/*--------------------------------*- C++ -*----------------------------------*\
| =========                 |                                                 |
| \\      /  F ield         | foam-extend: Open Source CFD                    |
|  \\    /   O peration     | Version:     5.0                                |
|   \\  /    A nd           | Web:         http://www.foam-extend.org         |
|    \\/     M anipulation  |                                                 |
\*---------------------------------------------------------------------------*/
FoamFile
{
    version     2.0;
    format      ascii;
    class       volScalarField;
    location    "5";
    object      H2O.water;
}
// * * * * * * * * * * * * * * * * * * * * * * * * * * * * * * * * * * * * * //

dimensions      [0 0 0 0 0 0 0];

internalField   nonuniform List<scalar> 
100
(
0.00385512
0.00606887
0.00802005
0.0098132
0.0114886
0.0130695
0.014569
0.0159974
0.0173635
0.0186719
0.0199293
0.0211385
0.0223044
0.0234291
0.0245164
0.0255679
0.0265868
0.0275747
0.0285332
0.0294652
0.0303695
0.0312506
0.0321078
0.0329427
0.033756
0.0345507
0.0353256
0.0360814
0.0368211
0.0375432
0.0382495
0.0389405
0.0396167
0.0402789
0.040928
0.0415631
0.0421876
0.0427983
0.0433974
0.0439853
0.0445626
0.0451301
0.0456856
0.0462331
0.0467704
0.0472983
0.0478189
0.0483289
0.0488319
0.0493259
0.0498137
0.0502919
0.050765
0.0512287
0.051686
0.0521376
0.0525821
0.0530202
0.053451
0.0538757
0.0542945
0.0547077
0.0551159
0.0555193
0.0559164
0.0563079
0.0566958
0.0570776
0.0574561
0.0578276
0.0581975
0.0585607
0.0589196
0.0592741
0.059625
0.0599726
0.0603148
0.0606539
0.0609878
0.0613193
0.0616457
0.0619699
0.0622885
0.0626049
0.0629175
0.0632282
0.0635342
0.0638377
0.0641376
0.0644348
0.0647284
0.0650197
0.0653085
0.0655936
0.0658748
0.0661557
0.0664333
0.0667082
0.0669786
0.067247
)
;

boundaryField
{
    inlet
    {
        type            fixedValue;
        value           uniform 0;
    }
    outlet
    {
        type            zeroGradient;
    }
    yzfaces
    {
        type            empty;
    }
}


// ************************************************************************* //
