/*--------------------------------*- C++ -*----------------------------------*\
| =========                 |                                                 |
| \\      /  F ield         | foam-extend: Open Source CFD                    |
|  \\    /   O peration     | Version:     5.0                                |
|   \\  /    A nd           | Web:         http://www.foam-extend.org         |
|    \\/     M anipulation  |                                                 |
\*---------------------------------------------------------------------------*/
FoamFile
{
    version     2.0;
    format      ascii;
    class       surfaceScalarField;
    location    "5";
    object      phi;
}
// * * * * * * * * * * * * * * * * * * * * * * * * * * * * * * * * * * * * * //

dimensions      [0 3 -1 0 0 0 0];

internalField   nonuniform List<scalar> 
99
(
0.000122491
0.000122505
0.000122488
0.00012249
0.000122515
0.000122498
0.000122491
0.000122469
0.000122491
0.000122469
0.000122506
0.000122496
0.000122507
0.000122508
0.000122493
0.000122505
0.00012251
0.0001225
0.000122505
0.000122521
0.000122539
0.000122533
0.000122553
0.000122579
0.000122563
0.000122541
0.000122526
0.000122526
0.000122524
0.000122517
0.000122499
0.000122517
0.000122519
0.000122523
0.000122521
0.000122512
0.000122508
0.000122495
0.000122485
0.000122497
0.000122505
0.000122511
0.000122511
0.00012249
0.000122489
0.000122493
0.000122486
0.000122468
0.000122461
0.000122458
0.000122471
0.000122462
0.000122453
0.000122452
0.00012247
0.00012247
0.000122464
0.000122472
0.000122455
0.000122463
0.000122479
0.000122475
0.000122465
0.000122477
0.00012248
0.000122469
0.000122462
0.000122469
0.000122446
0.000122439
0.000122436
0.000122415
0.000122428
0.00012243
0.000122422
0.000122424
0.000122411
0.000122435
0.000122437
0.000122429
0.000122415
0.000122437
0.00012245
0.000122442
0.000122435
0.000122439
0.000122446
0.000122447
0.000122443
0.000122442
0.000122427
0.000122433
0.000122432
0.000122443
0.000122429
0.000122424
0.000122427
0.00012243
0.000122416
)
;

boundaryField
{
    inlet
    {
        type            calculated;
        value           uniform -0.0001225;
    }
    outlet
    {
        type            calculated;
        value           uniform 0.00012242;
    }
    yzfaces
    {
        type            empty;
    }
}


// ************************************************************************* //
