/*--------------------------------*- C++ -*----------------------------------*\
| =========                 |                                                 |
| \\      /  F ield         | foam-extend: Open Source CFD                    |
|  \\    /   O peration     | Version:     5.0                                |
|   \\  /    A nd           | Web:         http://www.foam-extend.org         |
|    \\/     M anipulation  |                                                 |
\*---------------------------------------------------------------------------*/
FoamFile
{
    version     2.0;
    format      ascii;
    class       volVectorField;
    location    "5";
    object      U.water;
}
// * * * * * * * * * * * * * * * * * * * * * * * * * * * * * * * * * * * * * //

dimensions      [0 1 -1 0 0 0 0];

internalField   nonuniform List<vector> 
100
(
(8.81743e-05 0 0)
(0.000198011 0 0)
(0.000298915 0 0)
(0.00039517 0 0)
(0.000488421 0 0)
(0.000579198 0 0)
(0.000668099 0 0)
(0.000755226 0 0)
(0.000840972 0 0)
(0.000925634 0 0)
(0.00100885 0 0)
(0.00109104 0 0)
(0.00117233 0 0)
(0.0012525 0 0)
(0.00133196 0 0)
(0.00141043 0 0)
(0.00148844 0 0)
(0.00156526 0 0)
(0.00164166 0 0)
(0.00171776 0 0)
(0.00179284 0 0)
(0.00186721 0 0)
(0.00194136 0 0)
(0.00201482 0 0)
(0.00208774 0 0)
(0.00215941 0 0)
(0.00223063 0 0)
(0.00230222 0 0)
(0.00237317 0 0)
(0.00244333 0 0)
(0.00251302 0 0)
(0.0025827 0 0)
(0.00265145 0 0)
(0.00271948 0 0)
(0.00278788 0 0)
(0.00285573 0 0)
(0.00292312 0 0)
(0.00298931 0 0)
(0.00305583 0 0)
(0.0031223 0 0)
(0.00318846 0 0)
(0.00325362 0 0)
(0.00331842 0 0)
(0.0033838 0 0)
(0.00344876 0 0)
(0.0035125 0 0)
(0.0035765 0 0)
(0.00364006 0 0)
(0.00370264 0 0)
(0.00376615 0 0)
(0.00382921 0 0)
(0.00389151 0 0)
(0.00395341 0 0)
(0.00401604 0 0)
(0.00407808 0 0)
(0.00413984 0 0)
(0.00420048 0 0)
(0.00426108 0 0)
(0.00432095 0 0)
(0.00438167 0 0)
(0.00444215 0 0)
(0.0045024 0 0)
(0.00456207 0 0)
(0.00462141 0 0)
(0.00468114 0 0)
(0.00473877 0 0)
(0.00479792 0 0)
(0.00485692 0 0)
(0.0049157 0 0)
(0.00497293 0 0)
(0.00503161 0 0)
(0.00508874 0 0)
(0.00514688 0 0)
(0.00520552 0 0)
(0.00526301 0 0)
(0.00532047 0 0)
(0.00537681 0 0)
(0.00543362 0 0)
(0.0054912 0 0)
(0.00554664 0 0)
(0.0056027 0 0)
(0.00565865 0 0)
(0.0057151 0 0)
(0.00577079 0 0)
(0.00582521 0 0)
(0.00588067 0 0)
(0.00593634 0 0)
(0.00599175 0 0)
(0.00604654 0 0)
(0.0061014 0 0)
(0.00615615 0 0)
(0.00621092 0 0)
(0.00626575 0 0)
(0.00632106 0 0)
(0.00637475 0 0)
(0.00642815 0 0)
(0.00648147 0 0)
(0.0065355 0 0)
(0.00658892 0 0)
(0.00664188 0 0)
)
;

boundaryField
{
    inlet
    {
        type            fixedValue;
        value           uniform (0 0 0);
    }
    outlet
    {
        type            zeroGradient;
    }
    yzfaces
    {
        type            empty;
    }
}


// ************************************************************************* //
