/*--------------------------------*- C++ -*----------------------------------*\
| =========                 |                                                 |
| \\      /  F ield         | foam-extend: Open Source CFD                    |
|  \\    /   O peration     | Version:     5.0                                |
|   \\  /    A nd           | Web:         http://www.foam-extend.org         |
|    \\/     M anipulation  |                                                 |
\*---------------------------------------------------------------------------*/
FoamFile
{
    version     2.0;
    format      ascii;
    class       volScalarField;
    location    "3";
    object      alpha.gas;
}
// * * * * * * * * * * * * * * * * * * * * * * * * * * * * * * * * * * * * * //

dimensions      [0 0 0 0 0 0 0];

internalField   nonuniform List<scalar> 
100
(
0.144589
0.128886
0.11857
0.110852
0.104301
0.0992686
0.0950716
0.0913158
0.0878217
0.0851145
0.0825606
0.0800447
0.0776052
0.0756522
0.0737472
0.0718099
0.070346
0.0686161
0.0670498
0.0657319
0.0644755
0.063178
0.0618127
0.0605325
0.0594285
0.0581966
0.057063
0.0559509
0.0548995
0.0538379
0.0528006
0.0517823
0.0507725
0.0498488
0.0488832
0.0478986
0.0468665
0.0457676
0.0447264
0.0436472
0.0425761
0.0414834
0.0403951
0.0392344
0.0380291
0.0368144
0.03555
0.0342138
0.0327905
0.0312839
0.0296579
0.0279288
0.0260792
0.0241084
0.0220394
0.0199235
0.0178416
0.0158925
0.0141889
0.0128223
0.0118099
0.011117
0.0106688
0.0103908
0.0102264
0.0101289
0.0100717
0.0100403
0.010022
0.0100111
0.0100075
0.0100038
0.0100015
0.00999636
0.00999696
0.00999903
0.0100013
0.0100001
0.00999844
0.00999587
0.00999532
0.00999513
0.00999655
0.0099957
0.00999649
0.00999657
0.00999816
0.00999828
0.00999845
0.0100003
0.00999944
0.0100006
0.0100019
0.00999907
0.00999795
0.00999746
0.00999785
0.00999439
0.00999506
0.0099937
)
;

boundaryField
{
    inlet
    {
        type            fixedValue;
        value           uniform 0.2;
    }
    outlet
    {
        type            zeroGradient;
    }
    yzfaces
    {
        type            empty;
    }
}


// ************************************************************************* //
