/*--------------------------------*- C++ -*----------------------------------*\
| =========                 |                                                 |
| \\      /  F ield         | foam-extend: Open Source CFD                    |
|  \\    /   O peration     | Version:     5.0                                |
|   \\  /    A nd           | Web:         http://www.foam-extend.org         |
|    \\/     M anipulation  |                                                 |
\*---------------------------------------------------------------------------*/
FoamFile
{
    version     2.0;
    format      ascii;
    class       volScalarField;
    location    "3";
    object      H2O.gas;
}
// * * * * * * * * * * * * * * * * * * * * * * * * * * * * * * * * * * * * * //

dimensions      [0 0 0 0 0 0 0];

internalField   nonuniform List<scalar> 
100
(
0.000281583
0.000251002
0.000230911
0.00021588
0.000203123
0.000193323
0.000185149
0.000177835
0.00017103
0.000165758
0.000160784
0.000155885
0.000151134
0.000147331
0.000143621
0.000139848
0.000136997
0.000133628
0.000130577
0.000128011
0.000125564
0.000123037
0.000120378
0.000117885
0.000115735
0.000113336
0.000111129
0.000108963
0.000106915
0.000104848
0.000102828
0.000100845
9.88779e-05
9.70791e-05
9.51986e-05
9.3281e-05
9.12711e-05
8.91311e-05
8.71033e-05
8.50016e-05
8.29157e-05
8.07877e-05
7.86683e-05
0.00715823
0.0102661
0.0130452
0.0154901
0.0175567
0.0192251
0.0204826
0.0212745
0.0216329
0.0215139
0.0209372
0.0199662
0.0186236
0.0171107
0.0155014
0.0140059
0.0127228
0.0117656
0.0110833
0.0106579
0.0103802
0.0102132
0.0101333
0.0100764
0.010049
0.0100291
0.010018
0.0100135
0.0100115
0.0100033
0.00999958
0.00999693
0.0099981
0.00999419
0.00999291
0.00998696
0.0099948
0.0100033
0.00999871
0.00999643
0.00999747
0.0100005
0.0099996
0.010004
0.0100004
0.00999502
0.00999484
0.0100018
0.0100058
0.0100071
0.0100094
0.00999837
0.0100047
0.00999792
0.00999736
0.00998449
0.00998973
)
;

boundaryField
{
    inlet
    {
        type            fixedValue;
        value           uniform 0;
    }
    outlet
    {
        type            zeroGradient;
    }
    yzfaces
    {
        type            empty;
    }
}


// ************************************************************************* //
