/*--------------------------------*- C++ -*----------------------------------*\
| =========                 |                                                 |
| \\      /  F ield         | foam-extend: Open Source CFD                    |
|  \\    /   O peration     | Version:     5.0                                |
|   \\  /    A nd           | Web:         http://www.foam-extend.org         |
|    \\/     M anipulation  |                                                 |
\*---------------------------------------------------------------------------*/
FoamFile
{
    version     2.0;
    format      ascii;
    class       surfaceScalarField;
    location    "3";
    object      phi;
}
// * * * * * * * * * * * * * * * * * * * * * * * * * * * * * * * * * * * * * //

dimensions      [0 3 -1 0 0 0 0];

internalField   nonuniform List<scalar> 
99
(
1.22455e-06
1.21993e-06
1.21514e-06
1.20736e-06
1.2104e-06
1.21257e-06
1.21006e-06
1.21284e-06
1.21568e-06
1.22057e-06
1.2191e-06
1.21785e-06
1.21755e-06
1.21657e-06
1.21471e-06
1.21945e-06
1.21468e-06
1.21634e-06
1.2155e-06
1.2153e-06
1.21174e-06
1.21187e-06
1.21265e-06
1.20971e-06
1.20832e-06
1.20828e-06
1.20761e-06
1.20808e-06
1.2058e-06
1.20672e-06
1.20611e-06
1.206e-06
1.20747e-06
1.20218e-06
1.20122e-06
1.19906e-06
1.19843e-06
1.19875e-06
1.19658e-06
1.19757e-06
1.19559e-06
1.19615e-06
1.19598e-06
1.19505e-06
1.19673e-06
1.1971e-06
1.19703e-06
1.19702e-06
1.19748e-06
1.19488e-06
1.19635e-06
1.1965e-06
1.19637e-06
1.19694e-06
1.19726e-06
1.19894e-06
1.19697e-06
1.19796e-06
1.19675e-06
1.19727e-06
1.19563e-06
1.19892e-06
1.19841e-06
1.19683e-06
1.19768e-06
1.1963e-06
1.19954e-06
1.1968e-06
1.19692e-06
1.19788e-06
1.19758e-06
1.19768e-06
1.19681e-06
1.19802e-06
1.19891e-06
1.1974e-06
1.19873e-06
1.1977e-06
1.19873e-06
1.19984e-06
1.20033e-06
1.20119e-06
1.20083e-06
1.2011e-06
1.20132e-06
1.20004e-06
1.20021e-06
1.19889e-06
1.20091e-06
1.19928e-06
1.19936e-06
1.1988e-06
1.19969e-06
1.19888e-06
1.20025e-06
1.19826e-06
1.19943e-06
1.19781e-06
1.1967e-06
)
;

boundaryField
{
    inlet
    {
        type            calculated;
        value           uniform -1.225e-06;
    }
    outlet
    {
        type            calculated;
        value           uniform 1.1999e-06;
    }
    yzfaces
    {
        type            empty;
    }
}


// ************************************************************************* //
