/*--------------------------------*- C++ -*----------------------------------*\
| =========                 |                                                 |
| \\      /  F ield         | foam-extend: Open Source CFD                    |
|  \\    /   O peration     | Version:     5.0                                |
|   \\  /    A nd           | Web:         http://www.foam-extend.org         |
|    \\/     M anipulation  |                                                 |
\*---------------------------------------------------------------------------*/
FoamFile
{
    version     2.0;
    format      ascii;
    class       volVectorField;
    location    "3";
    object      U.gas;
}
// * * * * * * * * * * * * * * * * * * * * * * * * * * * * * * * * * * * * * //

dimensions      [0 1 -1 0 0 0 0];

internalField   nonuniform List<vector> 
100
(
(0.0068862 0 0)
(0.00764354 0 0)
(0.00820221 0 0)
(0.00864553 0 0)
(0.00907743 0 0)
(0.00945927 0 0)
(0.00977642 0 0)
(0.0100759 0 0)
(0.0103879 0 0)
(0.01064 0 0)
(0.010874 0 0)
(0.0110822 0 0)
(0.0112905 0 0)
(0.0114456 0 0)
(0.0115995 0 0)
(0.011787 0 0)
(0.0118991 0 0)
(0.0120453 0 0)
(0.0121768 0 0)
(0.01227 0 0)
(0.0123501 0 0)
(0.0124389 0 0)
(0.012555 0 0)
(0.0126349 0 0)
(0.0126817 0 0)
(0.0127681 0 0)
(0.0128288 0 0)
(0.0128946 0 0)
(0.0129418 0 0)
(0.0129924 0 0)
(0.0130409 0 0)
(0.0130807 0 0)
(0.0131272 0 0)
(0.0131262 0 0)
(0.0131233 0 0)
(0.0131287 0 0)
(0.0131348 0 0)
(0.0131513 0 0)
(0.0131304 0 0)
(0.0131182 0 0)
(0.0130898 0 0)
(0.0130515 0 0)
(0.0130099 0 0)
(0.0129549 0 0)
(0.0128885 0 0)
(0.0128051 0 0)
(0.0126967 0 0)
(0.0125641 0 0)
(0.012401 0 0)
(0.0121836 0 0)
(0.0119267 0 0)
(0.0116224 0 0)
(0.0112419 0 0)
(0.0107772 0 0)
(0.0102204 0 0)
(0.00956672 0 0)
(0.00881681 0 0)
(0.00800965 0 0)
(0.00720056 0 0)
(0.00645235 0 0)
(0.00583548 0 0)
(0.0053757 0 0)
(0.00506313 0 0)
(0.00485304 0 0)
(0.00472323 0 0)
(0.0046455 0 0)
(0.00460389 0 0)
(0.00457866 0 0)
(0.00455975 0 0)
(0.00455378 0 0)
(0.00454924 0 0)
(0.00454694 0 0)
(0.00454484 0 0)
(0.00454528 0 0)
(0.0045474 0 0)
(0.00454609 0 0)
(0.004546 0 0)
(0.00454761 0 0)
(0.0045467 0 0)
(0.00455023 0 0)
(0.00455196 0 0)
(0.00455451 0 0)
(0.00455616 0 0)
(0.00455575 0 0)
(0.00455529 0 0)
(0.00455408 0 0)
(0.00455269 0 0)
(0.00455168 0 0)
(0.00455295 0 0)
(0.00455424 0 0)
(0.00455286 0 0)
(0.00455141 0 0)
(0.00455256 0 0)
(0.00455226 0 0)
(0.00455089 0 0)
(0.00454929 0 0)
(0.00454818 0 0)
(0.00454734 0 0)
(0.00454095 0 0)
(0.00454267 0 0)
)
;

boundaryField
{
    inlet
    {
        type            fixedValue;
        value           uniform (0.005 0 0);
    }
    outlet
    {
        type            zeroGradient;
    }
    yzfaces
    {
        type            empty;
    }
}


// ************************************************************************* //
