/*--------------------------------*- C++ -*----------------------------------*\
| =========                 |                                                 |
| \\      /  F ield         | foam-extend: Open Source CFD                    |
|  \\    /   O peration     | Version:     5.0                                |
|   \\  /    A nd           | Web:         http://www.foam-extend.org         |
|    \\/     M anipulation  |                                                 |
\*---------------------------------------------------------------------------*/
FoamFile
{
    version     2.0;
    format      ascii;
    class       volVectorField;
    location    "3";
    object      U.water;
}
// * * * * * * * * * * * * * * * * * * * * * * * * * * * * * * * * * * * * * //

dimensions      [0 1 -1 0 0 0 0];

internalField   nonuniform List<vector> 
100
(
(7.4851e-05 0 0)
(0.000177194 0 0)
(0.000262507 0 0)
(0.000341103 0 0)
(0.000418572 0 0)
(0.00049596 0 0)
(0.000565811 0 0)
(0.000633524 0 0)
(0.000703802 0 0)
(0.000772701 0 0)
(0.000834648 0 0)
(0.000896998 0 0)
(0.000962735 0 0)
(0.0010264 0 0)
(0.00108457 0 0)
(0.00114764 0 0)
(0.00120684 0 0)
(0.00126158 0 0)
(0.00132482 0 0)
(0.00138259 0 0)
(0.00143406 0 0)
(0.00148634 0 0)
(0.00154531 0 0)
(0.00160538 0 0)
(0.00165964 0 0)
(0.00171582 0 0)
(0.00177718 0 0)
(0.00183639 0 0)
(0.00189359 0 0)
(0.00195139 0 0)
(0.00201267 0 0)
(0.00207253 0 0)
(0.0021349 0 0)
(0.00219247 0 0)
(0.00224639 0 0)
(0.00230675 0 0)
(0.00237039 0 0)
(0.00244136 0 0)
(0.00251433 0 0)
(0.00258793 0 0)
(0.00266469 0 0)
(0.00274292 0 0)
(0.00282475 0 0)
(0.00290892 0 0)
(0.00300117 0 0)
(0.00309871 0 0)
(0.00319749 0 0)
(0.00330122 0 0)
(0.00341317 0 0)
(0.00352856 0 0)
(0.0036532 0 0)
(0.00378956 0 0)
(0.00392995 0 0)
(0.00407659 0 0)
(0.0042255 0 0)
(0.00437281 0 0)
(0.00450495 0 0)
(0.0046181 0 0)
(0.0047105 0 0)
(0.00477844 0 0)
(0.00482374 0 0)
(0.00485807 0 0)
(0.0048829 0 0)
(0.00489016 0 0)
(0.00489555 0 0)
(0.00489848 0 0)
(0.00490461 0 0)
(0.00490697 0 0)
(0.00490233 0 0)
(0.00490493 0 0)
(0.00490658 0 0)
(0.00490627 0 0)
(0.00490471 0 0)
(0.0049054 0 0)
(0.0049098 0 0)
(0.00490855 0 0)
(0.00490819 0 0)
(0.00490874 0 0)
(0.00490877 0 0)
(0.00491317 0 0)
(0.00491653 0 0)
(0.0049193 0 0)
(0.00492029 0 0)
(0.0049201 0 0)
(0.00492119 0 0)
(0.00491898 0 0)
(0.00491668 0 0)
(0.00491427 0 0)
(0.0049157 0 0)
(0.00491646 0 0)
(0.00491319 0 0)
(0.00491224 0 0)
(0.0049129 0 0)
(0.00491308 0 0)
(0.00491434 0 0)
(0.0049131 0 0)
(0.0049114 0 0)
(0.00491047 0 0)
(0.00490494 0 0)
(0.00490933 0 0)
)
;

boundaryField
{
    inlet
    {
        type            fixedValue;
        value           uniform (0 0 0);
    }
    outlet
    {
        type            zeroGradient;
    }
    yzfaces
    {
        type            empty;
    }
}


// ************************************************************************* //
