/*--------------------------------*- C++ -*----------------------------------*\
| =========                 |                                                 |
| \\      /  F ield         | foam-extend: Open Source CFD                    |
|  \\    /   O peration     | Version:     5.0                                |
|   \\  /    A nd           | Web:         http://www.foam-extend.org         |
|    \\/     M anipulation  |                                                 |
\*---------------------------------------------------------------------------*/
FoamFile
{
    version     2.0;
    format      ascii;
    class       volScalarField;
    location    "0.644694";
    object      alpha.gas;
}
// * * * * * * * * * * * * * * * * * * * * * * * * * * * * * * * * * * * * * //

dimensions      [0 0 0 0 0 0 0];

internalField   nonuniform List<scalar> 
100
(
0.0990178
0.080926
0.0702236
0.0589456
0.051429
0.04631
0.00542314
0.0393474
0.0364309
0.0335231
0.0305568
0.0275342
0.0244351
0.0213605
0.0184565
0.0158817
0.0138018
0.0122951
0.0113072
0.0107114
0.0103765
0.0101957
0.0101005
0.0100504
0.0100242
0.0100111
0.0100052
0.0100024
0.0100015
0.0100013
0.0100015
0.0100006
0.0100012
0.0100015
0.00999974
0.00999896
0.00999955
0.00999789
0.00999704
0.00999869
0.0100005
0.0100023
0.00999982
0.00999748
0.00999681
0.00999856
0.00999935
0.0100015
0.0100002
0.00999891
0.00999989
0.0100003
0.00999961
0.00999986
0.0100009
0.0100004
0.0099985
0.00999811
0.0100002
0.0100011
0.0100013
0.0100018
0.0100019
0.010003
0.0100011
0.0100004
0.00999994
0.00999968
0.0100007
0.0100007
0.0100002
0.00999828
0.00999872
0.00999889
0.00999944
0.0100001
0.00999993
0.00999961
0.0100029
0.0100021
0.0100014
0.0100026
0.0100036
0.0100029
0.0100029
0.0100014
0.00999963
0.0100014
0.00999947
0.00999908
0.0099998
0.00999852
0.00999879
0.00999861
0.00999743
0.00999768
0.00999661
0.0099981
0.00999914
0.0100023
)
;

boundaryField
{
    inlet
    {
        type            fixedValue;
        value           uniform 0.2;
    }
    outlet
    {
        type            zeroGradient;
    }
    yzfaces
    {
        type            empty;
    }
}


// ************************************************************************* //
