/*--------------------------------*- C++ -*----------------------------------*\
| =========                 |                                                 |
| \\      /  F ield         | foam-extend: Open Source CFD                    |
|  \\    /   O peration     | Version:     5.0                                |
|   \\  /    A nd           | Web:         http://www.foam-extend.org         |
|    \\/     M anipulation  |                                                 |
\*---------------------------------------------------------------------------*/
FoamFile
{
    version     2.0;
    format      ascii;
    class       volScalarField;
    location    "0.644694";
    object      Cl.water;
}
// * * * * * * * * * * * * * * * * * * * * * * * * * * * * * * * * * * * * * //

dimensions      [0 0 0 0 0 0 0];

internalField   nonuniform List<scalar> 
100
(
0
0.00847711
0.0131396
0.00404492
0.0110143
0.0158242
-1.85962e-15
0.0191214
0.0197076
0.0201347
0.0204946
0.0208794
0.0212339
0.021626
0.0219676
0.0223096
0.0225379
0.0227472
0.022846
0.0229113
0.0229587
0.0229702
0.0229828
0.02298
0.0229984
0.0229848
0.0229824
0.0229761
0.0229847
0.0229811
0.0229807
0.0229986
0.022991
0.0230001
0.0230049
0.0230018
0.0230028
0.0230025
0.0230028
0.0229923
0.0229808
0.022995
0.0230032
0.0229909
0.0229994
0.022991
0.0229764
0.0229806
0.0229991
0.0229963
0.0229976
0.0230029
0.0230204
0.0229969
0.0229961
0.0229854
0.0230077
0.0229861
0.022994
0.0230027
0.0229886
0.0230011
0.0229919
0.0229791
0.022975
0.0229893
0.023002
0.023005
0.0230098
0.0230077
0.0230217
0.0230248
0.0229918
0.0230039
0.0230044
0.0230004
0.0230219
0.0230141
0.0230101
0.0230187
0.0229854
0.0229916
0.0229838
0.0230111
0.0229873
0.0230088
0.0230181
0.0229898
0.0229988
0.022991
0.0229825
0.0229978
0.022983
0.0230011
0.0229943
0.02301
0.0230141
0.023027
0.0230081
0.0229896
)
;

boundaryField
{
    inlet
    {
        type            fixedValue;
        value           uniform 0;
    }
    outlet
    {
        type            zeroGradient;
    }
    yzfaces
    {
        type            empty;
    }
}


// ************************************************************************* //
