/*--------------------------------*- C++ -*----------------------------------*\
| =========                 |                                                 |
| \\      /  F ield         | foam-extend: Open Source CFD                    |
|  \\    /   O peration     | Version:     5.0                                |
|   \\  /    A nd           | Web:         http://www.foam-extend.org         |
|    \\/     M anipulation  |                                                 |
\*---------------------------------------------------------------------------*/
FoamFile
{
    version     2.0;
    format      ascii;
    class       volScalarField;
    location    "0.644694";
    object      H2O.gas;
}
// * * * * * * * * * * * * * * * * * * * * * * * * * * * * * * * * * * * * * //

dimensions      [0 0 0 0 0 0 0];

internalField   nonuniform List<scalar> 
100
(
2.5715e-07
5.72617e-05
0.00024735
0.000362166
0.000856009
0.00187359
1.05614e-05
0.00536181
0.00758603
0.00987584
0.0119926
0.0137491
0.0148801
0.0152985
0.0149718
0.0141273
0.0130087
0.0119918
0.0111999
0.0106749
0.0103698
0.0101936
0.0101007
0.0100485
0.010031
0.0100087
0.01
0.00999413
0.00999632
0.00999545
0.00999537
0.0100028
0.00999899
0.0100027
0.0100033
0.00999772
0.00999827
0.00999785
0.00999916
0.00999546
0.00999026
0.00999625
0.00999801
0.00999253
0.00999705
0.0099929
0.0099863
0.00998876
0.00999512
0.00999314
0.0099949
0.00999648
0.0100069
0.00999689
0.00999853
0.00999502
0.0100025
0.00999107
0.00999736
0.0100043
0.00999734
0.0100044
0.0100015
0.00999616
0.00999446
0.00999705
0.0100019
0.0100044
0.0100052
0.0100022
0.0100063
0.0100079
0.00999688
0.0100012
0.0100024
0.0100022
0.0100096
0.0100068
0.0100059
0.0100062
0.00999348
0.00999683
0.00999299
0.0100034
0.00999308
0.0100024
0.0100023
0.00999416
0.00999721
0.00999492
0.00999319
0.00999912
0.00999409
0.0100016
0.00999589
0.0100019
0.0100018
0.0100042
0.00999861
0.00999274
)
;

boundaryField
{
    inlet
    {
        type            fixedValue;
        value           uniform 0;
    }
    outlet
    {
        type            zeroGradient;
    }
    yzfaces
    {
        type            empty;
    }
}


// ************************************************************************* //
