/*--------------------------------*- C++ -*----------------------------------*\
| =========                 |                                                 |
| \\      /  F ield         | foam-extend: Open Source CFD                    |
|  \\    /   O peration     | Version:     5.0                                |
|   \\  /    A nd           | Web:         http://www.foam-extend.org         |
|    \\/     M anipulation  |                                                 |
\*---------------------------------------------------------------------------*/
FoamFile
{
    version     2.0;
    format      ascii;
    class       volScalarField;
    location    "0.644694";
    object      Na.water;
}
// * * * * * * * * * * * * * * * * * * * * * * * * * * * * * * * * * * * * * //

dimensions      [0 0 0 0 0 0 0];

internalField   nonuniform List<scalar> 
100
(
0
0.00847928
0.0131412
0.00404615
0.0110193
0.0158291
-1.85962e-15
0.019116
0.019702
0.0201326
0.0204922
0.0208751
0.0212385
0.0216255
0.0219662
0.0223087
0.0225327
0.0227347
0.0228439
0.0229081
0.0229604
0.0229759
0.022991
0.0229876
0.0230149
0.0229951
0.0229876
0.0229775
0.0229893
0.0229853
0.0229787
0.0230066
0.022999
0.0230038
0.023004
0.0229927
0.0229923
0.0229896
0.0229944
0.0229784
0.0229651
0.0229787
0.0229891
0.0229812
0.0229855
0.0229764
0.0229624
0.0229698
0.0229968
0.0229986
0.0229914
0.0229906
0.023018
0.0229898
0.0229907
0.0229824
0.0230025
0.0229825
0.0229953
0.0230038
0.0229807
0.0229951
0.0229949
0.0229815
0.0229817
0.0229891
0.0229985
0.0230015
0.0230022
0.0230028
0.0230149
0.0230247
0.0229935
0.0230019
0.0230072
0.0230107
0.0230261
0.023024
0.0230167
0.0230263
0.0229978
0.0230017
0.0229857
0.0230008
0.022979
0.0230027
0.0230042
0.0229807
0.0229947
0.022984
0.0229759
0.0229906
0.0229851
0.0230055
0.0229975
0.0230177
0.0230157
0.0230234
0.023007
0.0229926
)
;

boundaryField
{
    inlet
    {
        type            fixedValue;
        value           uniform 0;
    }
    outlet
    {
        type            zeroGradient;
    }
    yzfaces
    {
        type            empty;
    }
}


// ************************************************************************* //
