/*--------------------------------*- C++ -*----------------------------------*\
| =========                 |                                                 |
| \\      /  F ield         | foam-extend: Open Source CFD                    |
|  \\    /   O peration     | Version:     5.0                                |
|   \\  /    A nd           | Web:         http://www.foam-extend.org         |
|    \\/     M anipulation  |                                                 |
\*---------------------------------------------------------------------------*/
FoamFile
{
    version     2.0;
    format      ascii;
    class       surfaceScalarField;
    location    "0.644694";
    object      phi;
}
// * * * * * * * * * * * * * * * * * * * * * * * * * * * * * * * * * * * * * //

dimensions      [0 3 -1 0 0 0 0];

internalField   nonuniform List<scalar> 
99
(
1.22242e-06
1.22497e-06
1.22077e-06
1.21812e-06
1.22153e-06
1.22532e-06
1.22659e-06
1.2305e-06
1.2298e-06
1.23033e-06
1.23268e-06
1.23169e-06
1.23173e-06
1.2319e-06
1.22964e-06
1.22937e-06
1.2288e-06
1.22665e-06
1.227e-06
1.22891e-06
1.23011e-06
1.22729e-06
1.22659e-06
1.22806e-06
1.22715e-06
1.22537e-06
1.22548e-06
1.22489e-06
1.22515e-06
1.22815e-06
1.2297e-06
1.23102e-06
1.23071e-06
1.23264e-06
1.23275e-06
1.23441e-06
1.23337e-06
1.2349e-06
1.23564e-06
1.23412e-06
1.23512e-06
1.23516e-06
1.23603e-06
1.23635e-06
1.23538e-06
1.23557e-06
1.23764e-06
1.2393e-06
1.23943e-06
1.23968e-06
1.23949e-06
1.23988e-06
1.23812e-06
1.24008e-06
1.24065e-06
1.24387e-06
1.24574e-06
1.24681e-06
1.24715e-06
1.24615e-06
1.24669e-06
1.24446e-06
1.2441e-06
1.24472e-06
1.24433e-06
1.24424e-06
1.24373e-06
1.24324e-06
1.24196e-06
1.24147e-06
1.24274e-06
1.24196e-06
1.24285e-06
1.24102e-06
1.24057e-06
1.2421e-06
1.24156e-06
1.24091e-06
1.24176e-06
1.23986e-06
1.24049e-06
1.23927e-06
1.23889e-06
1.23764e-06
1.24084e-06
1.24142e-06
1.24067e-06
1.24211e-06
1.24056e-06
1.242e-06
1.24448e-06
1.24323e-06
1.24203e-06
1.23975e-06
1.23972e-06
1.24026e-06
1.23963e-06
1.23993e-06
1.24133e-06
)
;

boundaryField
{
    inlet
    {
        type            calculated;
        value           uniform -1.225e-06;
    }
    outlet
    {
        type            calculated;
        value           uniform 1.24324e-06;
    }
    yzfaces
    {
        type            empty;
    }
}


// ************************************************************************* //
