/*--------------------------------*- C++ -*----------------------------------*\
| =========                 |                                                 |
| \\      /  F ield         | foam-extend: Open Source CFD                    |
|  \\    /   O peration     | Version:     5.0                                |
|   \\  /    A nd           | Web:         http://www.foam-extend.org         |
|    \\/     M anipulation  |                                                 |
\*---------------------------------------------------------------------------*/
FoamFile
{
    version     2.0;
    format      ascii;
    class       surfaceScalarField;
    location    "0.644694";
    object      phi.water;
}
// * * * * * * * * * * * * * * * * * * * * * * * * * * * * * * * * * * * * * //

dimensions      [0 3 -1 0 0 0 0];

internalField   nonuniform List<scalar> 
99
(
6.20322e-07
1.07878e-06
1.46759e-06
2.07139e-06
2.60669e-06
3.03769e-06
3.37913e-06
3.69395e-06
3.97575e-06
4.2729e-06
4.58558e-06
4.88655e-06
5.18722e-06
5.46585e-06
5.68959e-06
5.86949e-06
5.99291e-06
6.0581e-06
6.10655e-06
6.13991e-06
6.15826e-06
6.15158e-06
6.15236e-06
6.15963e-06
6.15612e-06
6.15151e-06
6.15401e-06
6.15113e-06
6.15178e-06
6.16712e-06
6.17244e-06
6.17791e-06
6.17659e-06
6.18437e-06
6.18582e-06
6.19575e-06
6.19009e-06
6.19681e-06
6.20143e-06
6.19761e-06
6.20345e-06
6.20098e-06
6.20505e-06
6.20616e-06
6.20152e-06
6.20659e-06
6.2192e-06
6.22488e-06
6.22335e-06
6.22477e-06
6.22318e-06
6.22117e-06
6.21218e-06
6.22509e-06
6.22857e-06
6.24278e-06
6.25273e-06
6.2602e-06
6.25873e-06
6.25398e-06
6.25698e-06
6.24459e-06
6.24569e-06
6.25079e-06
6.24772e-06
6.2447e-06
6.23968e-06
6.23636e-06
6.23093e-06
6.22793e-06
6.2317e-06
6.2304e-06
6.23717e-06
6.22646e-06
6.22429e-06
6.22982e-06
6.22548e-06
6.22432e-06
6.22945e-06
6.22342e-06
6.22963e-06
6.22422e-06
6.22035e-06
6.21384e-06
6.22984e-06
6.22887e-06
6.2278e-06
6.23639e-06
6.2277e-06
6.2364e-06
6.24738e-06
6.24039e-06
6.23366e-06
6.22128e-06
6.22073e-06
6.22145e-06
6.21775e-06
6.2209e-06
6.23286e-06
)
;

boundaryField
{
    inlet
    {
        type            fixedValue;
        value           uniform 0;
    }
    outlet
    {
        type            calculated;
        value           uniform 6.24519e-06;
    }
    yzfaces
    {
        type            empty;
    }
}


// ************************************************************************* //
