/*--------------------------------*- C++ -*----------------------------------*\
| =========                 |                                                 |
| \\      /  F ield         | foam-extend: Open Source CFD                    |
|  \\    /   O peration     | Version:     5.0                                |
|   \\  /    A nd           | Web:         http://www.foam-extend.org         |
|    \\/     M anipulation  |                                                 |
\*---------------------------------------------------------------------------*/
FoamFile
{
    version     2.0;
    format      ascii;
    class       volScalarField;
    location    "0.644694";
    object      S.gas;
}
// * * * * * * * * * * * * * * * * * * * * * * * * * * * * * * * * * * * * * //

dimensions      [0 0 0 0 0 0 0];

internalField   nonuniform List<scalar> 
100
(
0.495089
0.40463
0.351118
0.294728
0.257145
0.23155
0.21266
0.196737
0.182154
0.167615
0.152784
0.137671
0.122176
0.106802
0.0922824
0.0794085
0.0690092
0.0614755
0.0565362
0.0535568
0.0518827
0.0509783
0.0505024
0.050252
0.050121
0.0500557
0.0500261
0.050012
0.0500077
0.0500063
0.0500076
0.0500032
0.0500058
0.0500075
0.0499987
0.0499948
0.0499978
0.0499895
0.0499852
0.0499935
0.0500024
0.0500113
0.0499991
0.0499874
0.0499841
0.0499928
0.0499968
0.0500074
0.0500009
0.0499945
0.0499995
0.0500015
0.049998
0.0499993
0.0500047
0.0500021
0.0499925
0.0499906
0.0500008
0.0500056
0.0500063
0.0500091
0.0500095
0.050015
0.0500054
0.0500021
0.0499997
0.0499984
0.0500034
0.0500034
0.0500012
0.0499914
0.0499936
0.0499945
0.0499972
0.0500005
0.0499997
0.049998
0.0500143
0.0500107
0.0500072
0.050013
0.0500178
0.0500144
0.0500146
0.0500071
0.0499982
0.0500069
0.0499973
0.0499954
0.049999
0.0499926
0.0499939
0.049993
0.0499872
0.0499884
0.049983
0.0499905
0.0499957
0.0500113
)
;

boundaryField
{
    inlet
    {
        type            calculated;
        value           uniform 1;
    }
    outlet
    {
        type            calculated;
        value           uniform 0.0500113;
    }
    yzfaces
    {
        type            empty;
    }
}


// ************************************************************************* //
