/*--------------------------------*- C++ -*----------------------------------*\
| =========                 |                                                 |
| \\      /  F ield         | foam-extend: Open Source CFD                    |
|  \\    /   O peration     | Version:     5.0                                |
|   \\  /    A nd           | Web:         http://www.foam-extend.org         |
|    \\/     M anipulation  |                                                 |
\*---------------------------------------------------------------------------*/
FoamFile
{
    version     2.0;
    format      ascii;
    class       volVectorField;
    location    "0.644694";
    object      U.gas;
}
// * * * * * * * * * * * * * * * * * * * * * * * * * * * * * * * * * * * * * //

dimensions      [0 1 -1 0 0 0 0];

internalField   nonuniform List<vector> 
100
(
(0.00980744 0 0)
(0.0113239 0 0)
(0.0122842 0 0)
(0.0134434 0 0)
(0.0138684 0 0)
(0.0139439 0 0)
(0.0138502 0 0)
(0.0137082 0 0)
(0.0135014 0 0)
(0.0132177 0 0)
(0.0128367 0 0)
(0.0123049 0 0)
(0.0116019 0 0)
(0.0107167 0 0)
(0.00966287 0 0)
(0.00852291 0 0)
(0.00741441 0 0)
(0.00645652 0 0)
(0.00574261 0 0)
(0.00527774 0 0)
(0.00500113 0 0)
(0.00484061 0 0)
(0.00474872 0 0)
(0.00470444 0 0)
(0.00468244 0 0)
(0.00466481 0 0)
(0.00465533 0 0)
(0.00465226 0 0)
(0.00465003 0 0)
(0.00465561 0 0)
(0.00466393 0 0)
(0.00466898 0 0)
(0.00467057 0 0)
(0.0046746 0 0)
(0.00467866 0 0)
(0.00468059 0 0)
(0.00468137 0 0)
(0.00468248 0 0)
(0.004687 0 0)
(0.00468593 0 0)
(0.00468519 0 0)
(0.00468763 0 0)
(0.00469014 0 0)
(0.00469098 0 0)
(0.00468855 0 0)
(0.00468672 0 0)
(0.00469131 0 0)
(0.00469906 0 0)
(0.00470442 0 0)
(0.00470405 0 0)
(0.00470266 0 0)
(0.00470445 0 0)
(0.00470225 0 0)
(0.00470147 0 0)
(0.00470685 0 0)
(0.00471469 0 0)
(0.00472364 0 0)
(0.00472912 0 0)
(0.00473182 0 0)
(0.00473112 0 0)
(0.00473024 0 0)
(0.00472675 0 0)
(0.00472289 0 0)
(0.00472276 0 0)
(0.00472373 0 0)
(0.00472225 0 0)
(0.00471983 0 0)
(0.00471812 0 0)
(0.00471473 0 0)
(0.00471178 0 0)
(0.00471426 0 0)
(0.00471514 0 0)
(0.00471354 0 0)
(0.00471188 0 0)
(0.00470785 0 0)
(0.00470975 0 0)
(0.00471224 0 0)
(0.00471076 0 0)
(0.0047109 0 0)
(0.00470959 0 0)
(0.00470713 0 0)
(0.00470646 0 0)
(0.00470391 0 0)
(0.00470104 0 0)
(0.00470393 0 0)
(0.00471101 0 0)
(0.00470991 0 0)
(0.00471043 0 0)
(0.00471189 0 0)
(0.0047103 0 0)
(0.00471627 0 0)
(0.00471993 0 0)
(0.00471546 0 0)
(0.00470823 0 0)
(0.00470417 0 0)
(0.00470443 0 0)
(0.00470354 0 0)
(0.00470283 0 0)
(0.00470663 0 0)
(0.00471248 0 0)
)
;

boundaryField
{
    inlet
    {
        type            fixedValue;
        value           uniform (0.005 0 0);
    }
    outlet
    {
        type            zeroGradient;
    }
    yzfaces
    {
        type            empty;
    }
}


// ************************************************************************* //
