/*--------------------------------*- C++ -*----------------------------------*\
| =========                 |                                                 |
| \\      /  F ield         | foam-extend: Open Source CFD                    |
|  \\    /   O peration     | Version:     5.0                                |
|   \\  /    A nd           | Web:         http://www.foam-extend.org         |
|    \\/     M anipulation  |                                                 |
\*---------------------------------------------------------------------------*/
FoamFile
{
    version     2.0;
    format      ascii;
    class       volVectorField;
    location    "0.644694";
    object      U.water;
}
// * * * * * * * * * * * * * * * * * * * * * * * * * * * * * * * * * * * * * //

dimensions      [0 1 -1 0 0 0 0];

internalField   nonuniform List<vector> 
100
(
(0.000275635 0 0)
(0.000693134 0 0)
(0.00104503 0 0)
(0.00143942 0 0)
(0.00190173 0 0)
(0.00229666 0 0)
(0.00261451 0 0)
(0.00288516 0 0)
(0.00313221 0 0)
(0.00337005 0 0)
(0.0036181 0 0)
(0.00386778 0 0)
(0.00411235 0 0)
(0.00434758 0 0)
(0.00455189 0 0)
(0.00471609 0 0)
(0.00483893 0 0)
(0.00491644 0 0)
(0.0049634 0 0)
(0.00499703 0 0)
(0.00501934 0 0)
(0.00502447 0 0)
(0.00502172 0 0)
(0.00502564 0 0)
(0.00502795 0 0)
(0.00502307 0 0)
(0.00501999 0 0)
(0.00501911 0 0)
(0.00501852 0 0)
(0.00502523 0 0)
(0.00503455 0 0)
(0.00504044 0 0)
(0.00504253 0 0)
(0.00504579 0 0)
(0.00504996 0 0)
(0.00505367 0 0)
(0.00505497 0 0)
(0.00505597 0 0)
(0.00506061 0 0)
(0.00505899 0 0)
(0.0050579 0 0)
(0.00506002 0 0)
(0.00506184 0 0)
(0.00506434 0 0)
(0.00506306 0 0)
(0.00506148 0 0)
(0.0050661 0 0)
(0.00507371 0 0)
(0.00507728 0 0)
(0.00507811 0 0)
(0.00507831 0 0)
(0.00507865 0 0)
(0.00507582 0 0)
(0.0050763 0 0)
(0.00508146 0 0)
(0.00508919 0 0)
(0.00509963 0 0)
(0.00510566 0 0)
(0.00510856 0 0)
(0.00510718 0 0)
(0.00510623 0 0)
(0.00510279 0 0)
(0.00509743 0 0)
(0.00509799 0 0)
(0.00509844 0 0)
(0.00509749 0 0)
(0.00509633 0 0)
(0.00509427 0 0)
(0.00509063 0 0)
(0.00508698 0 0)
(0.00508853 0 0)
(0.00508953 0 0)
(0.00508985 0 0)
(0.00508792 0 0)
(0.00508325 0 0)
(0.00508546 0 0)
(0.00508743 0 0)
(0.00508496 0 0)
(0.0050854 0 0)
(0.00508321 0 0)
(0.00508062 0 0)
(0.00507939 0 0)
(0.00507608 0 0)
(0.00507273 0 0)
(0.00507676 0 0)
(0.00508452 0 0)
(0.00508421 0 0)
(0.00508566 0 0)
(0.00508535 0 0)
(0.00508519 0 0)
(0.00509329 0 0)
(0.00509575 0 0)
(0.00509071 0 0)
(0.00508363 0 0)
(0.00507888 0 0)
(0.00507997 0 0)
(0.00507982 0 0)
(0.00507914 0 0)
(0.00508258 0 0)
(0.0050894 0 0)
)
;

boundaryField
{
    inlet
    {
        type            fixedValue;
        value           uniform (0 0 0);
    }
    outlet
    {
        type            zeroGradient;
    }
    yzfaces
    {
        type            empty;
    }
}


// ************************************************************************* //
