/*--------------------------------*- C++ -*----------------------------------*\
| =========                 |                                                 |
| \\      /  F ield         | foam-extend: Open Source CFD                    |
|  \\    /   O peration     | Version:     5.0                                |
|   \\  /    A nd           | Web:         http://www.foam-extend.org         |
|    \\/     M anipulation  |                                                 |
\*---------------------------------------------------------------------------*/
FoamFile
{
    version     2.0;
    format      ascii;
    class       volScalarField;
    location    "5";
    object      alpha.water;
}
// * * * * * * * * * * * * * * * * * * * * * * * * * * * * * * * * * * * * * //

dimensions      [0 0 0 0 0 0 0];

internalField   nonuniform List<scalar> 
100
(
0.00385513
0.00606893
0.00801955
0.00981343
0.0114881
0.0130701
0.01457
0.0159981
0.0173668
0.0186727
0.0199276
0.0211382
0.0223
0.0234275
0.0245115
0.0255649
0.0265815
0.0275689
0.0285308
0.0294599
0.0303623
0.0312453
0.0321001
0.0329358
0.033747
0.0345386
0.0353211
0.0360815
0.0368198
0.0375433
0.0382535
0.0389416
0.039612
0.0402776
0.0409278
0.0415663
0.0421828
0.0427966
0.0433986
0.0439888
0.0445626
0.0451225
0.0456838
0.0462396
0.0467723
0.0473018
0.0478253
0.0483299
0.0488381
0.0493345
0.0498204
0.0502957
0.0507733
0.0512385
0.0516984
0.0521454
0.0525875
0.0530173
0.0534524
0.053876
0.0542965
0.0547125
0.0551165
0.055523
0.0559071
0.0563039
0.0566905
0.0570803
0.0574514
0.0578318
0.0581961
0.0585618
0.0589285
0.0592835
0.059637
0.0599821
0.0603202
0.0606632
0.0609909
0.0613249
0.0616495
0.0619709
0.0622908
0.0625997
0.0629133
0.0632238
0.0635314
0.063834
0.0641338
0.0644324
0.0647296
0.0650203
0.0653159
0.0655985
0.0658809
0.066158
0.0664347
0.0667105
0.066981
0.0672537
)
;

boundaryField
{
    inlet
    {
        type            fixedValue;
        value           uniform 0;
    }
    outlet
    {
        type            zeroGradient;
    }
    yzfaces
    {
        type            empty;
    }
}


// ************************************************************************* //
