/*--------------------------------*- C++ -*----------------------------------*\
| =========                 |                                                 |
| \\      /  F ield         | foam-extend: Open Source CFD                    |
|  \\    /   O peration     | Version:     5.0                                |
|   \\  /    A nd           | Web:         http://www.foam-extend.org         |
|    \\/     M anipulation  |                                                 |
\*---------------------------------------------------------------------------*/
FoamFile
{
    version     2.0;
    format      ascii;
    class       surfaceScalarField;
    location    "5";
    object      phi.water;
}
// * * * * * * * * * * * * * * * * * * * * * * * * * * * * * * * * * * * * * //

dimensions      [0 3 -1 0 0 0 0];

internalField   nonuniform List<scalar> 
99
(
1.67838e-07
2.99724e-07
4.21872e-07
5.38862e-07
6.5214e-07
7.6265e-07
8.70862e-07
9.76701e-07
1.08174e-06
1.18419e-06
1.28563e-06
1.38592e-06
1.48451e-06
1.5828e-06
1.67893e-06
1.77537e-06
1.86985e-06
1.96359e-06
2.05752e-06
2.14979e-06
2.24111e-06
2.33236e-06
2.42247e-06
2.51249e-06
2.60077e-06
2.68771e-06
2.77641e-06
2.86378e-06
2.95014e-06
3.03585e-06
3.12153e-06
3.20613e-06
3.28902e-06
3.37336e-06
3.45685e-06
3.54004e-06
3.62078e-06
3.70265e-06
3.78425e-06
3.86591e-06
3.94573e-06
4.02432e-06
4.10537e-06
4.18609e-06
4.2637e-06
4.34244e-06
4.42121e-06
4.49705e-06
4.57558e-06
4.65299e-06
4.72991e-06
4.8049e-06
4.88261e-06
4.95854e-06
5.0351e-06
5.10904e-06
5.18318e-06
5.25596e-06
5.33066e-06
5.40451e-06
5.47914e-06
5.55266e-06
5.62452e-06
5.69875e-06
5.76818e-06
5.84092e-06
5.91296e-06
5.98699e-06
6.05564e-06
6.12878e-06
6.1985e-06
6.26915e-06
6.3426e-06
6.41293e-06
6.48401e-06
6.5533e-06
6.62104e-06
6.69347e-06
6.76061e-06
6.82998e-06
6.89742e-06
6.96662e-06
7.03584e-06
7.10148e-06
7.16927e-06
7.23748e-06
7.30589e-06
7.37311e-06
7.44005e-06
7.50787e-06
7.57495e-06
7.64195e-06
7.71093e-06
7.77691e-06
7.84257e-06
7.907e-06
7.97295e-06
8.03971e-06
8.10373e-06
)
;

boundaryField
{
    inlet
    {
        type            fixedValue;
        value           uniform 0;
    }
    outlet
    {
        type            calculated;
        value           uniform 8.18666e-06;
    }
    yzfaces
    {
        type            empty;
    }
}


// ************************************************************************* //
