/*--------------------------------*- C++ -*----------------------------------*\
| =========                 |                                                 |
| \\      /  F ield         | foam-extend: Open Source CFD                    |
|  \\    /   O peration     | Version:     5.0                                |
|   \\  /    A nd           | Web:         http://www.foam-extend.org         |
|    \\/     M anipulation  |                                                 |
\*---------------------------------------------------------------------------*/
FoamFile
{
    version     2.0;
    format      ascii;
    class       surfaceScalarField;
    location    "5";
    object      phi.gas;
}
// * * * * * * * * * * * * * * * * * * * * * * * * * * * * * * * * * * * * * //

dimensions      [0 3 -1 0 0 0 0];

internalField   nonuniform List<scalar> 
99
(
0.000628034
0.000634858
0.000640984
0.000646861
0.000652604
0.000657936
0.000663097
0.000668059
0.000673073
0.00067761
0.000682427
0.000686854
0.000691312
0.000695638
0.000699763
0.00070397
0.000708019
0.000711988
0.000715941
0.000719805
0.000723683
0.000727355
0.000731106
0.000734836
0.000738205
0.000741611
0.000745104
0.000748517
0.00075183
0.000755136
0.000758266
0.00076147
0.000764603
0.000767789
0.000770902
0.000773822
0.000776741
0.000779683
0.000782607
0.00078556
0.000788346
0.00079119
0.000794147
0.000796816
0.000799509
0.000802294
0.000804902
0.000807432
0.000810096
0.000812689
0.000815296
0.000817806
0.000820339
0.000822879
0.000825459
0.000827848
0.000830132
0.00083256
0.000834869
0.000837301
0.000839807
0.000842096
0.000844336
0.000846616
0.00084883
0.000851052
0.000853322
0.000855606
0.000857671
0.000859851
0.000861977
0.000864093
0.000866409
0.000868588
0.000870649
0.00087269
0.000874681
0.000876898
0.000878928
0.000880916
0.000882798
0.000884952
0.000886977
0.000888841
0.000890773
0.000892776
0.000894783
0.000896721
0.000898624
0.000900585
0.000902406
0.000904406
0.000906323
0.000908253
0.000909973
0.000911742
0.000913602
0.000915453
0.000917204
)
;

boundaryField
{
    inlet
    {
        type            fixedValue;
        value           uniform -0.0006125;
    }
    outlet
    {
        type            calculated;
        value           uniform 0.000918152;
    }
    yzfaces
    {
        type            empty;
    }
}


// ************************************************************************* //
