/*--------------------------------*- C++ -*----------------------------------*\
| =========                 |                                                 |
| \\      /  F ield         | foam-extend: Open Source CFD                    |
|  \\    /   O peration     | Version:     5.0                                |
|   \\  /    A nd           | Web:         http://www.foam-extend.org         |
|    \\/     M anipulation  |                                                 |
\*---------------------------------------------------------------------------*/
FoamFile
{
    version     2.0;
    format      ascii;
    class       volScalarField;
    location    "10";
    object      alpha.gas;
}
// * * * * * * * * * * * * * * * * * * * * * * * * * * * * * * * * * * * * * //

dimensions      [0 0 0 0 0 0 0];

internalField   nonuniform List<scalar> 
100
(
0.17147
0.160082
0.150695
0.145743
0.139766
0.134973
0.13102
0.127759
0.124461
0.121308
0.117794
0.114144
0.111631
0.109827
0.108035
0.105957
0.104462
0.102994
0.10192
0.100471
0.0984606
0.0967159
0.0954468
0.0946864
0.093778
0.092492
0.0915293
0.090346
0.0887682
0.0869309
0.0858662
0.0851348
0.0845567
0.0839837
0.0835485
0.082801
0.0827927
0.0824783
0.0813731
0.080107
0.0794064
0.0789299
0.0780752
0.0771034
0.0764948
0.0757115
0.0752949
0.0749393
0.0744797
0.0740074
0.0732538
0.0725291
0.0717965
0.0710969
0.0704121
0.0698664
0.0697032
0.0694149
0.0690292
0.0684028
0.0677523
0.067229
0.0664329
0.06585
0.065421
0.064935
0.0643481
0.0639768
0.0634493
0.0628814
0.0624378
0.0619312
0.0613976
0.0608711
0.0602266
0.0597182
0.0591359
0.0584901
0.0578374
0.0572073
0.0565196
0.0557436
0.0550152
0.0539543
0.0528651
0.0514584
0.0498083
0.0473575
0.0436015
0.0373822
0.024666
0.0226111
0.0226237
0.0230914
0.0234833
0.0237325
0.0238575
0.0239181
0.0239214
0.0239063
)
;

boundaryField
{
    inlet
    {
        type            fixedValue;
        value           uniform 0.2;
    }
    outlet
    {
        type            zeroGradient;
    }
    yzfaces
    {
        type            empty;
    }
}


// ************************************************************************* //
