/*--------------------------------*- C++ -*----------------------------------*\
| =========                 |                                                 |
| \\      /  F ield         | foam-extend: Open Source CFD                    |
|  \\    /   O peration     | Version:     5.0                                |
|   \\  /    A nd           | Web:         http://www.foam-extend.org         |
|    \\/     M anipulation  |                                                 |
\*---------------------------------------------------------------------------*/
FoamFile
{
    version     2.0;
    format      ascii;
    class       volScalarField;
    location    "10";
    object      Cl.water;
}
// * * * * * * * * * * * * * * * * * * * * * * * * * * * * * * * * * * * * * //

dimensions      [0 0 0 0 0 0 0];

internalField   nonuniform List<scalar> 
100
(
0.00326212
0.00457794
0.00564751
0.00621661
0.00687
0.00744844
0.00790981
0.00825822
0.00864792
0.00899389
0.00934891
0.00971146
0.0100551
0.0103147
0.0105459
0.0107669
0.010953
0.0111184
0.0112557
0.0114016
0.0115966
0.0117949
0.0119308
0.0120408
0.0121513
0.0122612
0.0123955
0.0125111
0.0126391
0.0128856
0.0130519
0.0131744
0.0132383
0.0133174
0.0133585
0.013445
0.0134436
0.0134759
0.0135951
0.0136866
0.0137969
0.0138734
0.0139576
0.0140534
0.014152
0.0142117
0.0143008
0.014355
0.0143948
0.0144541
0.0145203
0.0146167
0.0146856
0.0147614
0.0148519
0.0149198
0.0149484
0.0149599
0.0150053
0.0150591
0.0151095
0.0152047
0.0152779
0.015377
0.0154349
0.0155032
0.0155731
0.0156084
0.0156706
0.01572
0.0158021
0.0158292
0.0158917
0.0159633
0.0160388
0.0161001
0.016173
0.0162357
0.016326
0.0163962
0.0164689
0.0165541
0.0166304
0.0167652
0.0168866
0.0170505
0.0172351
0.0175191
0.0179495
0.0186488
0.0200703
0.0209427
0.0212429
0.0213229
0.0213187
0.0213122
0.0213128
0.0213111
0.0213256
0.021317
)
;

boundaryField
{
    inlet
    {
        type            fixedValue;
        value           uniform 0;
    }
    outlet
    {
        type            zeroGradient;
    }
    yzfaces
    {
        type            empty;
    }
}


// ************************************************************************* //
