/*--------------------------------*- C++ -*----------------------------------*\
| =========                 |                                                 |
| \\      /  F ield         | foam-extend: Open Source CFD                    |
|  \\    /   O peration     | Version:     5.0                                |
|   \\  /    A nd           | Web:         http://www.foam-extend.org         |
|    \\/     M anipulation  |                                                 |
\*---------------------------------------------------------------------------*/
FoamFile
{
    version     2.0;
    format      ascii;
    class       volScalarField;
    location    "10";
    object      CO2.water;
}
// * * * * * * * * * * * * * * * * * * * * * * * * * * * * * * * * * * * * * //

dimensions      [0 0 0 0 0 0 0];

internalField   nonuniform List<scalar> 
100
(
0.000746067
0.00104687
0.0012912
0.00142173
0.00157139
0.00170356
0.00180868
0.0018886
0.00197753
0.00205662
0.00213808
0.00222084
0.00229936
0.00235858
0.0024118
0.00246272
0.00250544
0.00254309
0.00257451
0.002607
0.00265162
0.00269605
0.00272898
0.00275387
0.00277933
0.00280353
0.00283592
0.00286372
0.00289321
0.00294856
0.00298576
0.00301317
0.00302872
0.0030465
0.00305648
0.00307624
0.00307587
0.00308313
0.00311031
0.00313027
0.00315524
0.00317442
0.00319283
0.00321423
0.00323582
0.00325051
0.00327137
0.0032831
0.00329312
0.0033074
0.00332215
0.00334424
0.00335806
0.00337691
0.00339683
0.00341353
0.00342157
0.0034247
0.00343236
0.00344405
0.00345571
0.00347637
0.00349381
0.00351527
0.00353035
0.0035465
0.00356155
0.00356916
0.00358232
0.00359247
0.00361202
0.00361792
0.00363419
0.00365143
0.00366973
0.00368329
0.00369853
0.00371296
0.00373271
0.00374936
0.00376722
0.00378609
0.00380454
0.00383551
0.00386304
0.00390066
0.00394302
0.00400777
0.00410663
0.00426662
0.00459169
0.00197864
0.000729998
0.000256492
8.9282e-05
3.13275e-05
1.1127e-05
3.99357e-06
1.4436e-06
5.19675e-07
)
;

boundaryField
{
    inlet
    {
        type            fixedValue;
        value           uniform 0;
    }
    outlet
    {
        type            zeroGradient;
    }
    yzfaces
    {
        type            empty;
    }
}


// ************************************************************************* //
