/*--------------------------------*- C++ -*----------------------------------*\
| =========                 |                                                 |
| \\      /  F ield         | foam-extend: Open Source CFD                    |
|  \\    /   O peration     | Version:     5.0                                |
|   \\  /    A nd           | Web:         http://www.foam-extend.org         |
|    \\/     M anipulation  |                                                 |
\*---------------------------------------------------------------------------*/
FoamFile
{
    version     2.0;
    format      ascii;
    class       volScalarField;
    location    "10";
    object      CO2.gas;
}
// * * * * * * * * * * * * * * * * * * * * * * * * * * * * * * * * * * * * * //

dimensions      [0 0 0 0 0 0 0];

internalField   nonuniform List<scalar> 
100
(
0.170727
0.159734
0.150089
0.145459
0.138541
0.134375
0.130544
0.126907
0.123874
0.120533
0.11646
0.112261
0.110414
0.109196
0.107688
0.105444
0.104092
0.102616
0.101722
0.100023
0.0976896
0.095958
0.0946881
0.0941056
0.0932246
0.0916529
0.0909009
0.0896095
0.0877152
0.086131
0.0853654
0.0848789
0.0843264
0.0837935
0.0833858
0.0825849
0.0826314
0.0823177
0.0810974
0.0795252
0.0789995
0.0786619
0.0777064
0.0766425
0.0762069
0.0752397
0.0750587
0.0747933
0.0742505
0.0738199
0.0729536
0.0723133
0.0714871
0.0707799
0.0701202
0.0696419
0.0695485
0.0691917
0.0687754
0.0680363
0.0672643
0.0668772
0.0660283
0.0655661
0.0651978
0.0647796
0.0642086
0.063798
0.0632629
0.0626034
0.0622865
0.0616665
0.0611588
0.060717
0.0600833
0.059585
0.0590089
0.0583178
0.0577104
0.0570826
0.0563906
0.0555957
0.0548559
0.0538492
0.0527621
0.0513582
0.0497113
0.0472653
0.0435165
0.0373094
0.024618
0.0222748
0.0220064
0.0221753
0.0222066
0.0220633
0.0217589
0.0213455
0.0208467
0.020259
)
;

boundaryField
{
    inlet
    {
        type            fixedValue;
        value           uniform 0.2;
    }
    outlet
    {
        type            zeroGradient;
    }
    yzfaces
    {
        type            empty;
    }
}


// ************************************************************************* //
