/*--------------------------------*- C++ -*----------------------------------*\
| =========                 |                                                 |
| \\      /  F ield         | foam-extend: Open Source CFD                    |
|  \\    /   O peration     | Version:     5.0                                |
|   \\  /    A nd           | Web:         http://www.foam-extend.org         |
|    \\/     M anipulation  |                                                 |
\*---------------------------------------------------------------------------*/
FoamFile
{
    version     2.0;
    format      ascii;
    class       volScalarField;
    location    "10";
    object      H2O.water;
}
// * * * * * * * * * * * * * * * * * * * * * * * * * * * * * * * * * * * * * //

dimensions      [0 0 0 0 0 0 0];

internalField   nonuniform List<scalar> 
100
(
0.0211367
0.0296583
0.036585
0.0402772
0.0445027
0.0482627
0.0512393
0.0534875
0.0560431
0.0582773
0.0605744
0.0629304
0.0651318
0.0668121
0.0683153
0.069752
0.0709558
0.0720461
0.0729352
0.073865
0.0750987
0.0763966
0.0773347
0.0780353
0.0787135
0.0794018
0.0802918
0.0810737
0.0819384
0.0835128
0.0845904
0.0853745
0.0858388
0.0862928
0.0865892
0.087146
0.0871387
0.0873443
0.0881464
0.0887462
0.0894545
0.0899628
0.0904708
0.0910742
0.0917376
0.0920832
0.0926806
0.0930093
0.093287
0.0936838
0.0940973
0.0947523
0.095166
0.0956761
0.096203
0.0967044
0.0969243
0.0970534
0.0972978
0.0975911
0.0978903
0.0984676
0.098973
0.0995778
0.0999905
0.100453
0.100915
0.101132
0.101507
0.101767
0.102304
0.102487
0.102922
0.103465
0.103954
0.104354
0.104793
0.105185
0.105753
0.106226
0.106725
0.10726
0.107775
0.108659
0.109439
0.110505
0.111705
0.113539
0.11634
0.120872
0.130082
0.133054
0.133747
0.133794
0.133592
0.133502
0.133494
0.133496
0.133599
0.133462
)
;

boundaryField
{
    inlet
    {
        type            fixedValue;
        value           uniform 0;
    }
    outlet
    {
        type            zeroGradient;
    }
    yzfaces
    {
        type            empty;
    }
}


// ************************************************************************* //
