/*--------------------------------*- C++ -*----------------------------------*\
| =========                 |                                                 |
| \\      /  F ield         | foam-extend: Open Source CFD                    |
|  \\    /   O peration     | Version:     5.0                                |
|   \\  /    A nd           | Web:         http://www.foam-extend.org         |
|    \\/     M anipulation  |                                                 |
\*---------------------------------------------------------------------------*/
FoamFile
{
    version     2.0;
    format      ascii;
    class       volScalarField;
    location    "10";
    object      Na.water;
}
// * * * * * * * * * * * * * * * * * * * * * * * * * * * * * * * * * * * * * //

dimensions      [0 0 0 0 0 0 0];

internalField   nonuniform List<scalar> 
100
(
0.00326179
0.00457595
0.0056446
0.00621556
0.00687241
0.0074483
0.00790522
0.00825701
0.00864532
0.00899395
0.00934511
0.00970965
0.0100538
0.0103088
0.0105432
0.0107616
0.0109512
0.0111182
0.0112568
0.0114035
0.0115928
0.0117857
0.0119294
0.0120415
0.0121562
0.0122727
0.0124109
0.0125205
0.0126518
0.0128947
0.0130551
0.0131756
0.0132426
0.013319
0.0133685
0.0134537
0.013453
0.0134842
0.0136036
0.0136915
0.0138031
0.013884
0.0139645
0.0140586
0.0141549
0.0142094
0.0143035
0.0143537
0.0144031
0.014473
0.0145334
0.0146259
0.0146897
0.0147636
0.0148505
0.0149309
0.0149669
0.0149811
0.0150082
0.0150529
0.015096
0.0151851
0.0152683
0.0153625
0.0154264
0.0155017
0.0155729
0.0155984
0.0156558
0.0156994
0.0157792
0.0158133
0.0158857
0.0159684
0.0160502
0.0161044
0.0161713
0.0162345
0.0163156
0.0163883
0.0164709
0.0165544
0.0166369
0.0167741
0.0168933
0.0170584
0.0172443
0.0175265
0.0179605
0.0186603
0.0200814
0.0209493
0.0212441
0.0213275
0.0213231
0.0213103
0.0213089
0.0213085
0.0213241
0.0213114
)
;

boundaryField
{
    inlet
    {
        type            fixedValue;
        value           uniform 0;
    }
    outlet
    {
        type            zeroGradient;
    }
    yzfaces
    {
        type            empty;
    }
}


// ************************************************************************* //
