/*--------------------------------*- C++ -*----------------------------------*\
| =========                 |                                                 |
| \\      /  F ield         | foam-extend: Open Source CFD                    |
|  \\    /   O peration     | Version:     5.0                                |
|   \\  /    A nd           | Web:         http://www.foam-extend.org         |
|    \\/     M anipulation  |                                                 |
\*---------------------------------------------------------------------------*/
FoamFile
{
    version     2.0;
    format      ascii;
    class       volScalarField;
    location    "9";
    object      alpha.water;
}
// * * * * * * * * * * * * * * * * * * * * * * * * * * * * * * * * * * * * * //

dimensions      [0 0 0 0 0 0 0];

internalField   nonuniform List<scalar> 
100
(
0.000756325
0.00121213
0.00173425
0.002024
0.00246449
0.0028696
0.0033086
0.00376192
0.00416305
0.00446714
0.0046201
0.0048217
0.0050939
0.00542598
0.00582156
0.0062503
0.00667766
0.0070499
0.00741915
0.00770221
0.00786052
0.00807501
0.00838565
0.00875829
0.00914638
0.00948721
0.00981886
0.0100109
0.0102061
0.0105008
0.010877
0.0112191
0.011503
0.0117113
0.011914
0.0122357
0.012567
0.0128635
0.0130997
0.0133129
0.0135645
0.0138981
0.0141947
0.0144137
0.0146056
0.0148699
0.0151979
0.0154724
0.0156648
0.015921
0.0162521
0.0165167
0.0167402
0.0170307
0.0173821
0.0176712
0.0180478
0.0185028
0.0189827
0.0194342
0.0198919
0.02028
0.0206598
0.0210279
0.0213767
0.021712
0.0220224
0.0223608
0.022661
0.0229748
0.0232269
0.0234998
0.0237518
0.0240283
0.0242968
0.0245142
0.0247452
0.024918
0.0249761
0.0249768
0.0249741
0.0249708
0.024968
0.0249794
0.0249745
0.0249887
0.0249703
0.0249673
0.0249893
0.0249795
0.0249811
0.0249768
0.0249778
0.0249722
0.0249819
0.0249829
0.0249774
0.0249608
0.0249873
0.0250371
)
;

boundaryField
{
    inlet
    {
        type            fixedValue;
        value           uniform 0;
    }
    outlet
    {
        type            zeroGradient;
    }
    yzfaces
    {
        type            empty;
    }
}


// ************************************************************************* //
