/*--------------------------------*- C++ -*----------------------------------*\
| =========                 |                                                 |
| \\      /  F ield         | foam-extend: Open Source CFD                    |
|  \\    /   O peration     | Version:     5.0                                |
|   \\  /    A nd           | Web:         http://www.foam-extend.org         |
|    \\/     M anipulation  |                                                 |
\*---------------------------------------------------------------------------*/
FoamFile
{
    version     2.0;
    format      ascii;
    class       volScalarField;
    location    "9";
    object      CO2.water;
}
// * * * * * * * * * * * * * * * * * * * * * * * * * * * * * * * * * * * * * //

dimensions      [0 0 0 0 0 0 0];

internalField   nonuniform List<scalar> 
100
(
1.98645e-05
3.18361e-05
4.55492e-05
5.31594e-05
6.47287e-05
7.53688e-05
8.68987e-05
9.8805e-05
0.000109341
0.000117327
0.000121345
0.00012664
0.000133789
0.000142511
0.000152901
0.000164161
0.000175386
0.000185162
0.000194861
0.000202295
0.000206453
0.000212086
0.000220245
0.000230033
0.000240225
0.000249177
0.000257888
0.000262931
0.000268059
0.000275798
0.000285681
0.000294665
0.00030212
0.000307592
0.000312916
0.000321365
0.000330066
0.000337853
0.000344057
0.000349658
0.000356265
0.000365028
0.000372818
0.000378569
0.00038361
0.00039055
0.000399165
0.000406375
0.000411428
0.000418158
0.000426855
0.000433802
0.000439674
0.000447304
0.000456533
0.000464126
0.000474017
0.000485967
0.000498572
0.000510431
0.000522451
0.000532646
0.000542621
0.000552288
0.00056145
0.000570256
0.000578407
0.000587296
0.00059518
0.000603423
0.000610043
0.000617212
0.000623831
0.000631093
0.000638143
0.000643854
0.000649923
0.000654461
0.000655985
0.000656005
0.000655932
0.000655846
0.000655772
0.000656073
0.000655945
0.000656318
0.000655832
0.000655754
0.000656332
0.000656074
0.000656116
0.000656004
0.000656031
0.000655884
0.000656137
0.000656163
0.000656019
0.000655585
0.00065628
0.000657589
)
;

boundaryField
{
    inlet
    {
        type            fixedValue;
        value           uniform 0;
    }
    outlet
    {
        type            zeroGradient;
    }
    yzfaces
    {
        type            empty;
    }
}


// ************************************************************************* //
