/*--------------------------------*- C++ -*----------------------------------*\
| =========                 |                                                 |
| \\      /  F ield         | foam-extend: Open Source CFD                    |
|  \\    /   O peration     | Version:     5.0                                |
|   \\  /    A nd           | Web:         http://www.foam-extend.org         |
|    \\/     M anipulation  |                                                 |
\*---------------------------------------------------------------------------*/
FoamFile
{
    version     2.0;
    format      ascii;
    class       volScalarField;
    location    "9";
    object      H2O.water;
}
// * * * * * * * * * * * * * * * * * * * * * * * * * * * * * * * * * * * * * //

dimensions      [0 0 0 0 0 0 0];

internalField   nonuniform List<scalar> 
100
(
0.00073646
0.0011803
0.0016887
0.00197084
0.00239976
0.00279424
0.0032217
0.00366311
0.00405371
0.00434981
0.00449876
0.00469506
0.00496011
0.00528347
0.00566866
0.00608614
0.00650227
0.00686474
0.00722429
0.00749992
0.00765407
0.00786292
0.0081654
0.00852826
0.00890615
0.00923803
0.00956098
0.00974795
0.00993805
0.010225
0.0105914
0.0109245
0.0112008
0.0114037
0.0116011
0.0119143
0.0122369
0.0125256
0.0127556
0.0129633
0.0132082
0.0135331
0.0138219
0.0140351
0.014222
0.0144793
0.0147987
0.015066
0.0152534
0.0155029
0.0158253
0.0160829
0.0163005
0.0165834
0.0169256
0.0172071
0.0175738
0.0180168
0.0184841
0.0189238
0.0193694
0.0197474
0.0201172
0.0204756
0.0208153
0.0211417
0.021444
0.0217735
0.0220658
0.0223714
0.0226168
0.0228826
0.023128
0.0233972
0.0236586
0.0238703
0.0240953
0.0242636
0.0243201
0.0243208
0.0243181
0.0243149
0.0243122
0.0243234
0.0243186
0.0243324
0.0243144
0.0243115
0.024333
0.0243234
0.024325
0.0243208
0.0243218
0.0243163
0.0243257
0.0243267
0.0243213
0.0243053
0.024331
0.0243795
)
;

boundaryField
{
    inlet
    {
        type            fixedValue;
        value           uniform 0;
    }
    outlet
    {
        type            zeroGradient;
    }
    yzfaces
    {
        type            empty;
    }
}


// ************************************************************************* //
