/*--------------------------------*- C++ -*----------------------------------*\
| =========                 |                                                 |
| \\      /  F ield         | foam-extend: Open Source CFD                    |
|  \\    /   O peration     | Version:     5.0                                |
|   \\  /    A nd           | Web:         http://www.foam-extend.org         |
|    \\/     M anipulation  |                                                 |
\*---------------------------------------------------------------------------*/
FoamFile
{
    version     2.0;
    format      ascii;
    class       volScalarField;
    location    "9";
    object      H2O.gas;
}
// * * * * * * * * * * * * * * * * * * * * * * * * * * * * * * * * * * * * * //

dimensions      [0 0 0 0 0 0 0];

internalField   nonuniform List<scalar> 
100
(
0.000388021
0.000387134
0.000386117
0.000385553
0.000384695
0.000383906
0.000383051
0.000382168
0.000381387
0.000380795
0.000380497
0.000380104
0.000379574
0.000378927
0.000378157
0.000377322
0.00037649
0.000375765
0.000375046
0.000374494
0.000374186
0.000373768
0.000373163
0.000372438
0.000371682
0.000371018
0.000370372
0.000369998
0.000369618
0.000369044
0.000368311
0.000367645
0.000367093
0.000366687
0.000366292
0.000365666
0.00036502
0.000364443
0.000363983
0.000363568
0.000363078
0.000362428
0.00036185
0.000361424
0.00036105
0.000360536
0.000359897
0.000359362
0.000358987
0.000358488
0.000357844
0.000357328
0.000356893
0.000356327
0.000355643
0.00035508
0.000354347
0.000353461
0.000352526
0.000351647
0.000350755
0.000349999
0.00034926
0.000348543
0.000347864
0.000347211
0.000346606
0.000345947
0.000345363
0.000344751
0.000344261
0.000343729
0.000343238
0.0003427
0.000342177
0.000341753
0.000341304
0.000340967
0.000340854
0.000340853
0.000340858
0.000340864
0.00034087
0.000340847
0.000340857
0.000340829
0.000340865
0.000340871
0.000340828
0.000340847
0.000340844
0.000340853
0.000340851
0.000340862
0.000340843
0.000340841
0.000340852
0.000340884
0.000340832
0.000340735
)
;

boundaryField
{
    inlet
    {
        type            fixedValue;
        value           uniform 0;
    }
    outlet
    {
        type            zeroGradient;
    }
    yzfaces
    {
        type            empty;
    }
}


// ************************************************************************* //
