/*--------------------------------*- C++ -*----------------------------------*\
| =========                 |                                                 |
| \\      /  F ield         | foam-extend: Open Source CFD                    |
|  \\    /   O peration     | Version:     5.0                                |
|   \\  /    A nd           | Web:         http://www.foam-extend.org         |
|    \\/     M anipulation  |                                                 |
\*---------------------------------------------------------------------------*/
FoamFile
{
    version     2.0;
    format      ascii;
    class       surfaceScalarField;
    location    "9";
    object      phi;
}
// * * * * * * * * * * * * * * * * * * * * * * * * * * * * * * * * * * * * * //

dimensions      [0 3 -1 0 0 0 0];

internalField   nonuniform List<scalar> 
99
(
0.000122501
0.000122511
0.000122516
0.000122498
0.000122484
0.000122501
0.000122481
0.000122529
0.000122517
0.000122527
0.000122534
0.00012253
0.000122514
0.000122495
0.000122459
0.000122491
0.000122476
0.000122512
0.000122468
0.000122477
0.000122479
0.00012245
0.000122443
0.000122453
0.000122434
0.000122466
0.000122453
0.00012245
0.000122459
0.00012243
0.000122439
0.000122419
0.000122429
0.000122416
0.000122401
0.000122407
0.000122395
0.000122417
0.000122408
0.000122423
0.000122437
0.000122442
0.000122447
0.000122459
0.000122479
0.000122507
0.000122526
0.000122511
0.000122511
0.000122515
0.000122498
0.000122488
0.000122497
0.000122488
0.000122495
0.00012248
0.000122474
0.000122472
0.000122478
0.000122476
0.000122495
0.000122498
0.000122506
0.000122522
0.000122534
0.000122565
0.000122575
0.000122607
0.0001226
0.000122625
0.000122629
0.000122648
0.000122651
0.000122651
0.000122664
0.000122671
0.000122676
0.000122694
0.000122695
0.000122698
0.000122693
0.000122682
0.000122704
0.000122716
0.000122701
0.000122729
0.000122728
0.000122726
0.000122725
0.000122747
0.000122735
0.000122724
0.000122735
0.000122772
0.00012277
0.000122779
0.000122804
0.00012281
0.000122817
)
;

boundaryField
{
    inlet
    {
        type            calculated;
        value           uniform -0.0001225;
    }
    outlet
    {
        type            calculated;
        value           uniform 0.000122824;
    }
    yzfaces
    {
        type            empty;
    }
}


// ************************************************************************* //
