/*--------------------------------*- C++ -*----------------------------------*\
| =========                 |                                                 |
| \\      /  F ield         | foam-extend: Open Source CFD                    |
|  \\    /   O peration     | Version:     5.0                                |
|   \\  /    A nd           | Web:         http://www.foam-extend.org         |
|    \\/     M anipulation  |                                                 |
\*---------------------------------------------------------------------------*/
FoamFile
{
    version     2.0;
    format      ascii;
    class       surfaceScalarField;
    location    "9";
    object      phi.gas;
}
// * * * * * * * * * * * * * * * * * * * * * * * * * * * * * * * * * * * * * //

dimensions      [0 3 -1 0 0 0 0];

internalField   nonuniform List<scalar> 
99
(
0.000615556
0.000617139
0.000618398
0.000619415
0.000620685
0.000622107
0.000623466
0.000625072
0.000626082
0.000626848
0.000627432
0.000628179
0.000629046
0.000630105
0.000631324
0.000632904
0.000634114
0.000635477
0.000636308
0.000637123
0.00063774
0.00063844
0.000639583
0.000640892
0.000642005
0.000643303
0.000644084
0.000644766
0.000645602
0.000646562
0.000647818
0.000648799
0.000649729
0.000650335
0.000651171
0.000652336
0.000653357
0.00065438
0.000655123
0.000656054
0.000657149
0.000658275
0.000659202
0.000659994
0.000660944
0.000662127
0.000663239
0.000664003
0.000664813
0.000665868
0.000666804
0.000667639
0.000668649
0.000669784
0.000670973
0.000672049
0.000673548
0.000675269
0.000677035
0.00067873
0.000680398
0.000681838
0.0006833
0.000684732
0.000686137
0.000687543
0.000688819
0.000690202
0.000691351
0.000692591
0.000693577
0.000694708
0.000695755
0.000696801
0.000697818
0.000698741
0.000699581
0.000700115
0.000700204
0.000700224
0.000700168
0.000700108
0.000700262
0.000700335
0.0007003
0.000700444
0.00070037
0.0007004
0.000700423
0.000700528
0.000700421
0.000700376
0.000700457
0.000700648
0.000700651
0.000700722
0.000700828
0.000700876
0.000701038
)
;

boundaryField
{
    inlet
    {
        type            fixedValue;
        value           uniform -0.0006125;
    }
    outlet
    {
        type            calculated;
        value           uniform 0.000701152;
    }
    yzfaces
    {
        type            empty;
    }
}


// ************************************************************************* //
