/*--------------------------------*- C++ -*----------------------------------*\
| =========                 |                                                 |
| \\      /  F ield         | foam-extend: Open Source CFD                    |
|  \\    /   O peration     | Version:     5.0                                |
|   \\  /    A nd           | Web:         http://www.foam-extend.org         |
|    \\/     M anipulation  |                                                 |
\*---------------------------------------------------------------------------*/
FoamFile
{
    version     2.0;
    format      ascii;
    class       volVectorField;
    location    "9";
    object      U.water;
}
// * * * * * * * * * * * * * * * * * * * * * * * * * * * * * * * * * * * * * //

dimensions      [0 1 -1 0 0 0 0];

internalField   nonuniform List<vector> 
100
(
(5.41238e-05 0 0)
(0.000120922 0 0)
(0.00018627 0 0)
(0.000254106 0 0)
(0.000299889 0 0)
(0.000363876 0 0)
(0.000424866 0 0)
(0.000491224 0 0)
(0.000559243 0 0)
(0.000619414 0 0)
(0.000664919 0 0)
(0.000689164 0 0)
(0.000721398 0 0)
(0.000764774 0 0)
(0.000817914 0 0)
(0.000881313 0 0)
(0.000950111 0 0)
(0.00101862 0 0)
(0.0010793 0 0)
(0.00113882 0 0)
(0.00118442 0 0)
(0.00121117 0 0)
(0.00124791 0 0)
(0.00130089 0 0)
(0.00136403 0 0)
(0.00142959 0 0)
(0.00148808 0 0)
(0.00154347 0 0)
(0.00157692 0 0)
(0.00161211 0 0)
(0.00166478 0 0)
(0.00173061 0 0)
(0.00179049 0 0)
(0.00184021 0 0)
(0.00187744 0 0)
(0.00191563 0 0)
(0.0019741 0 0)
(0.00203417 0 0)
(0.00208794 0 0)
(0.00213141 0 0)
(0.00217181 0 0)
(0.0022203 0 0)
(0.00228246 0 0)
(0.0023375 0 0)
(0.00237914 0 0)
(0.00241736 0 0)
(0.00246954 0 0)
(0.00253208 0 0)
(0.00258392 0 0)
(0.00262259 0 0)
(0.00267416 0 0)
(0.00273807 0 0)
(0.00278986 0 0)
(0.00283575 0 0)
(0.00289519 0 0)
(0.00296476 0 0)
(0.00302507 0 0)
(0.00310381 0 0)
(0.00319847 0 0)
(0.00329812 0 0)
(0.0033938 0 0)
(0.00348991 0 0)
(0.00357323 0 0)
(0.00365558 0 0)
(0.00373575 0 0)
(0.0038127 0 0)
(0.00388707 0 0)
(0.00395788 0 0)
(0.00403331 0 0)
(0.00410167 0 0)
(0.00417192 0 0)
(0.00423055 0 0)
(0.00429326 0 0)
(0.00435238 0 0)
(0.0044169 0 0)
(0.00447874 0 0)
(0.00453046 0 0)
(0.00458411 0 0)
(0.00462244 0 0)
(0.00463464 0 0)
(0.00463453 0 0)
(0.00463356 0 0)
(0.00463298 0 0)
(0.00463341 0 0)
(0.00463579 0 0)
(0.00463521 0 0)
(0.00463816 0 0)
(0.00463422 0 0)
(0.00463426 0 0)
(0.00463913 0 0)
(0.00463725 0 0)
(0.00463697 0 0)
(0.00463602 0 0)
(0.00463692 0 0)
(0.00463662 0 0)
(0.004639 0 0)
(0.00463964 0 0)
(0.00463869 0 0)
(0.00463611 0 0)
(0.00464356 0 0)
)
;

boundaryField
{
    inlet
    {
        type            fixedValue;
        value           uniform (0 0 0);
    }
    outlet
    {
        type            zeroGradient;
    }
    yzfaces
    {
        type            empty;
    }
}


// ************************************************************************* //
