/*--------------------------------*- C++ -*----------------------------------*\
| =========                 |                                                 |
| \\      /  F ield         | foam-extend: Open Source CFD                    |
|  \\    /   O peration     | Version:     5.0                                |
|   \\  /    A nd           | Web:         http://www.foam-extend.org         |
|    \\/     M anipulation  |                                                 |
\*---------------------------------------------------------------------------*/
FoamFile
{
    version     2.0;
    format      ascii;
    class       volScalarField;
    location    "6";
    object      alpha.gas;
}
// * * * * * * * * * * * * * * * * * * * * * * * * * * * * * * * * * * * * * //

dimensions      [0 0 0 0 0 0 0];

internalField   nonuniform List<scalar> 
100
(
0.160797
0.146647
0.136584
0.129278
0.123973
0.118804
0.114239
0.110191
0.107229
0.104209
0.10173
0.0995693
0.0972546
0.095076
0.092856
0.0908206
0.0885833
0.0868458
0.0853806
0.0840611
0.0831952
0.0820657
0.0804759
0.0794685
0.0781837
0.0772295
0.0763647
0.0754443
0.0744976
0.0733638
0.0724151
0.0712017
0.069991
0.0690496
0.0679096
0.0668974
0.0659837
0.0651427
0.0644942
0.0637611
0.0629632
0.0620426
0.0611742
0.0602728
0.0592614
0.0580589
0.0570653
0.0558706
0.0543177
0.0528799
0.0508547
0.048111
0.0441057
0.0376256
0.0251932
0.0256354
0.0250354
0.0247153
0.0246921
0.0248541
0.0250844
0.0253064
0.0254929
0.0256205
0.0257045
0.0257504
0.0257662
0.0257402
0.0257071
0.0256791
0.0256278
0.0255879
0.0255477
0.0255
0.0254479
0.0254115
0.0253695
0.0253252
0.0252677
0.0252063
0.0251333
0.0250425
0.0249384
0.0247793
0.0246025
0.0243791
0.0240897
0.0237285
0.0232846
0.022719
0.0220411
0.0212401
0.020293
0.0192102
0.0180067
0.0167163
0.0154121
0.0141646
0.0130629
0.0121536
)
;

boundaryField
{
    inlet
    {
        type            fixedValue;
        value           uniform 0.2;
    }
    outlet
    {
        type            zeroGradient;
    }
    yzfaces
    {
        type            empty;
    }
}


// ************************************************************************* //
