/*--------------------------------*- C++ -*----------------------------------*\
| =========                 |                                                 |
| \\      /  F ield         | foam-extend: Open Source CFD                    |
|  \\    /   O peration     | Version:     5.0                                |
|   \\  /    A nd           | Web:         http://www.foam-extend.org         |
|    \\/     M anipulation  |                                                 |
\*---------------------------------------------------------------------------*/
FoamFile
{
    version     2.0;
    format      ascii;
    class       volScalarField;
    location    "6";
    object      Ns;
}
// * * * * * * * * * * * * * * * * * * * * * * * * * * * * * * * * * * * * * //

dimensions      [0 -3 0 0 1 0 0];

internalField   nonuniform List<scalar> 
100
(
0.739207
0.0710488
0.386413
0.609203
1.05334
0.116783
0.219684
0.703417
0.180875
0.663283
0.339323
0.390989
0.407106
0.553173
0.975576
0.467981
0.340787
0.521315
0.927578
0.785853
2.00168
0.615222
0.543406
0.141546
0.232556
0.261002
0.130864
0.508975
0.14085
0.440252
0.42403
0.501154
0.0823887
0.391767
0.240091
0.102801
0.113579
1.35114
0.443958
0.281826
0.127544
0.427571
0.198316
0.240918
0.0229069
0.489969
0.310197
2.78161
1.14234
0.464304
3.23051
2.50569
1.5996
4.11725
21.5929
2
2
2
2
2
2
2
2
2
2
2
2
2
2
2
2
2
2
2
2
2
2
2
2
2
2
2
2
2
2
2
2
2
2
2
2
2
2
2
2
2
2
2
2
2
)
;

boundaryField
{
    inlet
    {
        type            fixedValue;
        value           uniform 0;
    }
    outlet
    {
        type            zeroGradient;
    }
    yzfaces
    {
        type            empty;
    }
}


// ************************************************************************* //
