/*--------------------------------*- C++ -*----------------------------------*\
| =========                 |                                                 |
| \\      /  F ield         | foam-extend: Open Source CFD                    |
|  \\    /   O peration     | Version:     5.0                                |
|   \\  /    A nd           | Web:         http://www.foam-extend.org         |
|    \\/     M anipulation  |                                                 |
\*---------------------------------------------------------------------------*/
FoamFile
{
    version     2.0;
    format      ascii;
    class       surfaceScalarField;
    location    "6";
    object      phi;
}
// * * * * * * * * * * * * * * * * * * * * * * * * * * * * * * * * * * * * * //

dimensions      [0 3 -1 0 0 0 0];

internalField   nonuniform List<scalar> 
99
(
1.22074e-06
1.21498e-06
1.21397e-06
1.2275e-06
1.23179e-06
1.23614e-06
1.23219e-06
1.23134e-06
1.22596e-06
1.2257e-06
1.22701e-06
1.22123e-06
1.21535e-06
1.21377e-06
1.21691e-06
1.21506e-06
1.21807e-06
1.22288e-06
1.22101e-06
1.22257e-06
1.22185e-06
1.21641e-06
1.22422e-06
1.22618e-06
1.22439e-06
1.22112e-06
1.22215e-06
1.22103e-06
1.22262e-06
1.2228e-06
1.21877e-06
1.21751e-06
1.21628e-06
1.21493e-06
1.21472e-06
1.21456e-06
1.21627e-06
1.21884e-06
1.21963e-06
1.21943e-06
1.22179e-06
1.22068e-06
1.22063e-06
1.21768e-06
1.21463e-06
1.21775e-06
1.21598e-06
1.21972e-06
1.2234e-06
1.22214e-06
1.22098e-06
1.21824e-06
1.2163e-06
1.21777e-06
1.21252e-06
1.21736e-06
1.22015e-06
1.22096e-06
1.22177e-06
1.22181e-06
1.2205e-06
1.22082e-06
1.22267e-06
1.2241e-06
1.22383e-06
1.22355e-06
1.22214e-06
1.22405e-06
1.226e-06
1.22527e-06
1.22505e-06
1.22389e-06
1.22137e-06
1.22158e-06
1.22317e-06
1.2215e-06
1.22178e-06
1.22116e-06
1.22168e-06
1.22109e-06
1.22178e-06
1.22092e-06
1.2198e-06
1.22199e-06
1.22285e-06
1.22153e-06
1.21997e-06
1.22003e-06
1.21898e-06
1.21972e-06
1.2205e-06
1.21946e-06
1.21841e-06
1.21747e-06
1.21699e-06
1.2171e-06
1.21658e-06
1.219e-06
1.21845e-06
)
;

boundaryField
{
    inlet
    {
        type            calculated;
        value           uniform -1.225e-06;
    }
    outlet
    {
        type            calculated;
        value           uniform 1.21938e-06;
    }
    yzfaces
    {
        type            empty;
    }
}


// ************************************************************************* //
