/*--------------------------------*- C++ -*----------------------------------*\
| =========                 |                                                 |
| \\      /  F ield         | foam-extend: Open Source CFD                    |
|  \\    /   O peration     | Version:     5.0                                |
|   \\  /    A nd           | Web:         http://www.foam-extend.org         |
|    \\/     M anipulation  |                                                 |
\*---------------------------------------------------------------------------*/
FoamFile
{
    version     2.0;
    format      ascii;
    class       surfaceScalarField;
    location    "6";
    object      phi.water;
}
// * * * * * * * * * * * * * * * * * * * * * * * * * * * * * * * * * * * * * //

dimensions      [0 3 -1 0 0 0 0];

internalField   nonuniform List<scalar> 
99
(
8.90477e-08
1.56977e-07
2.22063e-07
2.82453e-07
3.30042e-07
3.85561e-07
4.38698e-07
4.92951e-07
5.31994e-07
5.81359e-07
6.24743e-07
6.59463e-07
7.025e-07
7.46041e-07
7.98439e-07
8.45779e-07
9.02128e-07
9.49452e-07
9.89387e-07
1.02656e-06
1.05037e-06
1.07987e-06
1.14127e-06
1.17408e-06
1.2171e-06
1.24581e-06
1.27869e-06
1.31317e-06
1.35272e-06
1.39885e-06
1.43152e-06
1.48118e-06
1.53221e-06
1.57127e-06
1.62665e-06
1.67339e-06
1.71988e-06
1.76727e-06
1.79651e-06
1.84026e-06
1.88461e-06
1.93296e-06
1.98443e-06
2.03207e-06
2.08738e-06
2.16914e-06
2.22971e-06
2.31491e-06
2.41106e-06
2.51909e-06
2.65669e-06
2.86207e-06
3.17179e-06
3.71445e-06
5.02659e-06
5.05762e-06
5.12617e-06
5.16429e-06
5.17296e-06
5.15617e-06
5.12595e-06
5.1063e-06
5.09454e-06
5.0858e-06
5.07542e-06
5.06962e-06
5.06454e-06
5.07603e-06
5.08668e-06
5.08554e-06
5.08834e-06
5.0849e-06
5.07793e-06
5.08438e-06
5.09593e-06
5.09076e-06
5.09616e-06
5.10027e-06
5.10977e-06
5.11347e-06
5.12365e-06
5.12984e-06
5.1348e-06
5.15451e-06
5.1706e-06
5.18625e-06
5.20835e-06
5.24216e-06
5.2777e-06
5.32956e-06
5.38753e-06
5.44914e-06
5.52388e-06
5.60284e-06
5.68745e-06
5.77516e-06
5.85472e-06
5.93722e-06
5.98734e-06
)
;

boundaryField
{
    inlet
    {
        type            fixedValue;
        value           uniform 0;
    }
    outlet
    {
        type            calculated;
        value           uniform 6.04285e-06;
    }
    yzfaces
    {
        type            empty;
    }
}


// ************************************************************************* //
