/*--------------------------------*- C++ -*----------------------------------*\
| =========                 |                                                 |
| \\      /  F ield         | foam-extend: Open Source CFD                    |
|  \\    /   O peration     | Version:     5.0                                |
|   \\  /    A nd           | Web:         http://www.foam-extend.org         |
|    \\/     M anipulation  |                                                 |
\*---------------------------------------------------------------------------*/
FoamFile
{
    version     2.0;
    format      ascii;
    class       volVectorField;
    location    "6";
    object      U.gas;
}
// * * * * * * * * * * * * * * * * * * * * * * * * * * * * * * * * * * * * * //

dimensions      [0 1 -1 0 0 0 0];

internalField   nonuniform List<vector> 
100
(
(0.00619775 0 0)
(0.00674266 0 0)
(0.00718755 0 0)
(0.00759707 0 0)
(0.00794424 0 0)
(0.00828029 0 0)
(0.00856811 0 0)
(0.00881755 0 0)
(0.00899292 0 0)
(0.00918678 0 0)
(0.00936697 0 0)
(0.00950876 0 0)
(0.00964129 0 0)
(0.00977955 0 0)
(0.00996324 0 0)
(0.0101306 0 0)
(0.0103231 0 0)
(0.0104947 0 0)
(0.0106262 0 0)
(0.0107342 0 0)
(0.0108112 0 0)
(0.0108789 0 0)
(0.0110397 0 0)
(0.0111579 0 0)
(0.0112792 0 0)
(0.0113305 0 0)
(0.0113929 0 0)
(0.0114751 0 0)
(0.0115613 0 0)
(0.0116754 0 0)
(0.0117333 0 0)
(0.0118238 0 0)
(0.0119177 0 0)
(0.0119755 0 0)
(0.0120732 0 0)
(0.0121496 0 0)
(0.0122285 0 0)
(0.0123153 0 0)
(0.0123632 0 0)
(0.0124445 0 0)
(0.012517 0 0)
(0.0126007 0 0)
(0.0126614 0 0)
(0.0127132 0 0)
(0.0127599 0 0)
(0.0128567 0 0)
(0.0129144 0 0)
(0.0130152 0 0)
(0.0131485 0 0)
(0.0132692 0 0)
(0.0133879 0 0)
(0.013562 0 0)
(0.0137734 0 0)
(0.0141157 0 0)
(0.0147334 0 0)
(0.0107586 0 0)
(0.0107393 0 0)
(0.0105639 0 0)
(0.0104576 0 0)
(0.0104427 0 0)
(0.0104793 0 0)
(0.0105422 0 0)
(0.0106183 0 0)
(0.010688 0 0)
(0.0107294 0 0)
(0.0107533 0 0)
(0.010762 0 0)
(0.010772 0 0)
(0.0107819 0 0)
(0.0107773 0 0)
(0.0107674 0 0)
(0.0107471 0 0)
(0.0107198 0 0)
(0.0106977 0 0)
(0.0106933 0 0)
(0.0106785 0 0)
(0.0106627 0 0)
(0.0106503 0 0)
(0.0106374 0 0)
(0.0106184 0 0)
(0.0106018 0 0)
(0.0105835 0 0)
(0.0105505 0 0)
(0.0105281 0 0)
(0.010496 0 0)
(0.0104459 0 0)
(0.010372 0 0)
(0.0102828 0 0)
(0.0101722 0 0)
(0.0100382 0 0)
(0.00986936 0 0)
(0.00965189 0 0)
(0.00937547 0 0)
(0.00903423 0 0)
(0.00863124 0 0)
(0.00816305 0 0)
(0.00763659 0 0)
(0.00708992 0 0)
(0.00654608 0 0)
(0.00605016 0 0)
)
;

boundaryField
{
    inlet
    {
        type            fixedValue;
        value           uniform (0.005 0 0);
    }
    outlet
    {
        type            zeroGradient;
    }
    yzfaces
    {
        type            empty;
    }
}


// ************************************************************************* //
