/*--------------------------------*- C++ -*----------------------------------*\
| =========                 |                                                 |
| \\      /  F ield         | foam-extend: Open Source CFD                    |
|  \\    /   O peration     | Version:     5.0                                |
|   \\  /    A nd           | Web:         http://www.foam-extend.org         |
|    \\/     M anipulation  |                                                 |
\*---------------------------------------------------------------------------*/
FoamFile
{
    version     2.0;
    format      ascii;
    class       volScalarField;
    location    "7";
    object      alpha.gas;
}
// * * * * * * * * * * * * * * * * * * * * * * * * * * * * * * * * * * * * * //

dimensions      [0 0 0 0 0 0 0];

internalField   nonuniform List<scalar> 
100
(
0.159106
0.146396
0.145127
0.134343
0.126512
0.123997
0.121684
0.11675
0.110453
0.10619
0.101452
0.0971848
0.0940608
0.0922941
0.0896153
0.0878971
0.0867941
0.0860796
0.0853326
0.0837295
0.0828658
0.0816185
0.080067
0.0787683
0.0777632
0.076165
0.0750247
0.0742255
0.0736561
0.0723946
0.0713619
0.070549
0.06998
0.0691387
0.0683657
0.0673926
0.0666831
0.0658057
0.0651739
0.0648203
0.063992
0.0632237
0.0623388
0.061777
0.060907
0.0602042
0.0594516
0.0588817
0.0582005
0.057704
0.056869
0.0563076
0.0556296
0.05499
0.0543058
0.0534254
0.0522565
0.0512975
0.0499718
0.0482284
0.0452443
0.0407031
0.0317511
0.0103309
0.0249465
0.0246162
0.024928
0.0253901
0.0258034
0.0261013
0.026276
0.0263702
0.0263947
0.0263624
0.0263136
0.0262529
0.0261679
0.0260831
0.0260047
0.0259277
0.0258383
0.0257723
0.0257177
0.025655
0.0256167
0.0255657
0.0255179
0.0254697
0.0254292
0.0253901
0.0253611
0.0253219
0.0252618
0.0252025
0.0251147
0.0250056
0.0248715
0.0247015
0.0244912
0.0242037
)
;

boundaryField
{
    inlet
    {
        type            fixedValue;
        value           uniform 0.2;
    }
    outlet
    {
        type            zeroGradient;
    }
    yzfaces
    {
        type            empty;
    }
}


// ************************************************************************* //
