/*--------------------------------*- C++ -*----------------------------------*\
| =========                 |                                                 |
| \\      /  F ield         | foam-extend: Open Source CFD                    |
|  \\    /   O peration     | Version:     5.0                                |
|   \\  /    A nd           | Web:         http://www.foam-extend.org         |
|    \\/     M anipulation  |                                                 |
\*---------------------------------------------------------------------------*/
FoamFile
{
    version     2.0;
    format      ascii;
    class       volScalarField;
    location    "7";
    object      Cl.water;
}
// * * * * * * * * * * * * * * * * * * * * * * * * * * * * * * * * * * * * * //

dimensions      [0 0 0 0 0 0 0];

internalField   nonuniform List<scalar> 
100
(
0.00813481
0.0111069
0.0121154
0.0139885
0.0156628
0.0163232
0.0167643
0.0174308
0.0183676
0.0190796
0.0198473
0.0206948
0.0214971
0.0220471
0.0223937
0.0228119
0.0232501
0.0234025
0.0236207
0.023818
0.023931
0.0241314
0.0244476
0.0247256
0.0250262
0.0252688
0.0255491
0.0257263
0.0258996
0.0261349
0.0264187
0.0265432
0.0267085
0.0268083
0.0268482
0.0269849
0.0271978
0.0273809
0.0275763
0.0276878
0.0277792
0.0279305
0.0281407
0.0283816
0.0284601
0.0286044
0.028743
0.0288839
0.029019
0.0291935
0.0293555
0.0294907
0.0296349
0.0297492
0.0298999
0.030085
0.0302882
0.0304915
0.0307761
0.0311382
0.031686
0.0326583
0.0344618
0.0388717
0.0366383
0.0368375
0.036837
0.03676
0.036675
0.036613
0.0365829
0.0365889
0.0365734
0.0365601
0.0365727
0.0365849
0.0365685
0.0365992
0.0366412
0.0366309
0.0366319
0.0366851
0.0366724
0.036659
0.0366602
0.0366915
0.0367234
0.0367531
0.036778
0.0367965
0.036814
0.0368194
0.0368171
0.0368522
0.0368714
0.0369249
0.0369689
0.0369987
0.0370262
0.0370482
)
;

boundaryField
{
    inlet
    {
        type            fixedValue;
        value           uniform 0;
    }
    outlet
    {
        type            zeroGradient;
    }
    yzfaces
    {
        type            empty;
    }
}


// ************************************************************************* //
