/*--------------------------------*- C++ -*----------------------------------*\
| =========                 |                                                 |
| \\      /  F ield         | foam-extend: Open Source CFD                    |
|  \\    /   O peration     | Version:     5.0                                |
|   \\  /    A nd           | Web:         http://www.foam-extend.org         |
|    \\/     M anipulation  |                                                 |
\*---------------------------------------------------------------------------*/
FoamFile
{
    version     2.0;
    format      ascii;
    class       volScalarField;
    location    "7";
    object      CO2.water;
}
// * * * * * * * * * * * * * * * * * * * * * * * * * * * * * * * * * * * * * //

dimensions      [0 0 0 0 0 0 0];

internalField   nonuniform List<scalar> 
100
(
0.00107407
0.00140788
0.0014412
0.00172445
0.00193013
0.00199618
0.00205692
0.00218651
0.00235191
0.00246386
0.00258832
0.00270039
0.00278245
0.00282885
0.0028992
0.00294433
0.0029733
0.00299207
0.00301169
0.00305379
0.00307648
0.00310924
0.00314998
0.00318409
0.00321049
0.00325247
0.00328242
0.00330341
0.00331836
0.0033515
0.00337862
0.00339997
0.00341491
0.00343701
0.00345731
0.00348287
0.00350151
0.00352455
0.00354115
0.00355043
0.00357219
0.00359237
0.00361561
0.00363036
0.00365321
0.00367167
0.00369144
0.00370641
0.0037243
0.00373734
0.00375927
0.00377401
0.00379182
0.00380862
0.00382659
0.00384971
0.00388042
0.0039056
0.00394042
0.00398621
0.00406459
0.00418386
0.00441898
0.00498157
0.00094479
0.000352627
0.000124605
4.31149e-05
1.49643e-05
5.26759e-06
1.88951e-06
6.902e-07
2.55452e-07
9.55143e-08
3.60105e-08
1.3658e-08
5.19752e-09
1.98717e-09
7.6231e-10
2.92796e-10
1.12775e-10
4.37012e-11
1.69787e-11
6.62941e-12
2.60801e-12
1.03311e-12
4.12084e-13
1.65513e-13
6.69259e-14
2.71867e-14
1.10815e-14
4.5234e-15
1.84817e-15
7.5765e-16
3.11803e-16
1.29369e-16
5.44692e-17
2.34412e-17
1.0405e-17
4.75502e-18
)
;

boundaryField
{
    inlet
    {
        type            fixedValue;
        value           uniform 0;
    }
    outlet
    {
        type            zeroGradient;
    }
    yzfaces
    {
        type            empty;
    }
}


// ************************************************************************* //
