/*--------------------------------*- C++ -*----------------------------------*\
| =========                 |                                                 |
| \\      /  F ield         | foam-extend: Open Source CFD                    |
|  \\    /   O peration     | Version:     5.0                                |
|   \\  /    A nd           | Web:         http://www.foam-extend.org         |
|    \\/     M anipulation  |                                                 |
\*---------------------------------------------------------------------------*/
FoamFile
{
    version     2.0;
    format      ascii;
    class       volScalarField;
    location    "7";
    object      CO2.gas;
}
// * * * * * * * * * * * * * * * * * * * * * * * * * * * * * * * * * * * * * //

dimensions      [0 0 0 0 0 0 0];

internalField   nonuniform List<scalar> 
100
(
0.158796
0.146111
0.144845
0.134082
0.126266
0.123756
0.121447
0.116523
0.110238
0.105984
0.101254
0.0969955
0.0938776
0.0921144
0.0894408
0.0877259
0.086625
0.085912
0.0851664
0.0835665
0.0827044
0.0814595
0.0799111
0.0786149
0.0776117
0.0760166
0.0748786
0.074081
0.0735127
0.0722536
0.0712229
0.0704117
0.0698438
0.069004
0.0682326
0.0672614
0.0665533
0.0656776
0.065047
0.0646941
0.0638674
0.0631006
0.0622174
0.0616567
0.0607883
0.060087
0.0593358
0.058767
0.0580871
0.0575917
0.0567583
0.0561979
0.0555213
0.0548829
0.0542001
0.0533214
0.0521547
0.0511976
0.0498745
0.0481345
0.0451562
0.0406238
0.0316893
0.0103107
0.0243417
0.0236051
0.0234476
0.0233597
0.0231413
0.0227224
0.0221222
0.0213748
0.0204845
0.0194847
0.0184426
0.0173646
0.0162379
0.015115
0.0140076
0.0128954
0.0118021
0.0107693
0.00975608
0.00879233
0.00788536
0.00703062
0.0062295
0.00548601
0.004801
0.00417308
0.00360288
0.00308408
0.00261756
0.00220275
0.00183623
0.00151584
0.00123717
0.000996714
0.000791845
0.000618782
)
;

boundaryField
{
    inlet
    {
        type            fixedValue;
        value           uniform 0.2;
    }
    outlet
    {
        type            zeroGradient;
    }
    yzfaces
    {
        type            empty;
    }
}


// ************************************************************************* //
