/*--------------------------------*- C++ -*----------------------------------*\
| =========                 |                                                 |
| \\      /  F ield         | foam-extend: Open Source CFD                    |
|  \\    /   O peration     | Version:     5.0                                |
|   \\  /    A nd           | Web:         http://www.foam-extend.org         |
|    \\/     M anipulation  |                                                 |
\*---------------------------------------------------------------------------*/
FoamFile
{
    version     2.0;
    format      ascii;
    class       volScalarField;
    location    "7";
    object      H2O.gas;
}
// * * * * * * * * * * * * * * * * * * * * * * * * * * * * * * * * * * * * * //

dimensions      [0 0 0 0 0 0 0];

internalField   nonuniform List<scalar> 
100
(
0.000309854
0.000285103
0.000282632
0.000261629
0.000246378
0.000241481
0.000236977
0.000227368
0.000215104
0.000206803
0.000197574
0.000189265
0.000183181
0.00017974
0.000174523
0.000171177
0.000169029
0.000167638
0.000166183
0.000163061
0.000161379
0.00015895
0.000155928
0.000153399
0.000151441
0.000148329
0.000146108
0.000144552
0.000143443
0.000140986
0.000138975
0.000137392
0.000136284
0.000134646
0.00013314
0.000131245
0.000129863
0.000128155
0.000126924
0.000126236
0.000124623
0.000123126
0.000121403
0.000120309
0.000118615
0.000117246
0.00011578
0.00011467
0.000113344
0.000112377
0.000110751
0.000109657
0.000108337
0.000107091
0.000105759
0.000104044
0.000101768
9.99003e-05
9.73186e-05
9.39235e-05
8.81119e-05
7.92681e-05
6.18344e-05
2.0119e-05
0.000597519
0.00100691
0.00148763
0.00204446
0.00268181
0.00339435
0.00418181
0.00503758
0.00594609
0.00689649
0.00788891
0.00890983
0.00993191
0.0109749
0.0120191
0.0130288
0.0140227
0.0150129
0.015949
0.0168352
0.0176945
0.0185121
0.0192774
0.0199841
0.0206451
0.0212375
0.021784
0.0222608
0.0226558
0.0230172
0.0232966
0.0235252
0.0236816
0.0237506
0.0237402
0.0235936
)
;

boundaryField
{
    inlet
    {
        type            fixedValue;
        value           uniform 0;
    }
    outlet
    {
        type            zeroGradient;
    }
    yzfaces
    {
        type            empty;
    }
}


// ************************************************************************* //
