/*--------------------------------*- C++ -*----------------------------------*\
| =========                 |                                                 |
| \\      /  F ield         | foam-extend: Open Source CFD                    |
|  \\    /   O peration     | Version:     5.0                                |
|   \\  /    A nd           | Web:         http://www.foam-extend.org         |
|    \\/     M anipulation  |                                                 |
\*---------------------------------------------------------------------------*/
FoamFile
{
    version     2.0;
    format      ascii;
    class       volScalarField;
    location    "7";
    object      H2O.water;
}
// * * * * * * * * * * * * * * * * * * * * * * * * * * * * * * * * * * * * * //

dimensions      [0 0 0 0 0 0 0];

internalField   nonuniform List<scalar> 
100
(
0.0235507
0.0299799
0.0291923
0.0359434
0.040209
0.0413495
0.042728
0.0461926
0.0504462
0.0531637
0.0562294
0.0586909
0.06012
0.0607489
0.062681
0.0635198
0.0637353
0.0641236
0.0643995
0.0655604
0.0661835
0.0670072
0.0678781
0.068592
0.0689561
0.0700244
0.0705801
0.0710027
0.0712183
0.0719759
0.0724161
0.0729672
0.0731869
0.0737909
0.0744621
0.0751414
0.0754181
0.0758983
0.0761196
0.0762338
0.0768545
0.0773039
0.07775
0.0778191
0.078501
0.0788998
0.0793544
0.0796344
0.0800227
0.0801581
0.0806604
0.08094
0.0813027
0.081688
0.0820739
0.0825735
0.0832943
0.0838142
0.0845401
0.0855086
0.0873177
0.089804
0.094899
0.10695
0.100794
0.101327
0.101336
0.101153
0.100969
0.10078
0.100736
0.100723
0.100683
0.100623
0.100642
0.100699
0.100688
0.100743
0.10084
0.100782
0.100803
0.100926
0.100858
0.100837
0.100814
0.100894
0.100961
0.101035
0.101128
0.101164
0.101201
0.101212
0.101205
0.101256
0.101315
0.101449
0.101567
0.101676
0.101797
0.101821
)
;

boundaryField
{
    inlet
    {
        type            fixedValue;
        value           uniform 0;
    }
    outlet
    {
        type            zeroGradient;
    }
    yzfaces
    {
        type            empty;
    }
}


// ************************************************************************* //
