/*--------------------------------*- C++ -*----------------------------------*\
| =========                 |                                                 |
| \\      /  F ield         | foam-extend: Open Source CFD                    |
|  \\    /   O peration     | Version:     5.0                                |
|   \\  /    A nd           | Web:         http://www.foam-extend.org         |
|    \\/     M anipulation  |                                                 |
\*---------------------------------------------------------------------------*/
FoamFile
{
    version     2.0;
    format      ascii;
    class       volScalarField;
    location    "7";
    object      Na.water;
}
// * * * * * * * * * * * * * * * * * * * * * * * * * * * * * * * * * * * * * //

dimensions      [0 0 0 0 0 0 0];

internalField   nonuniform List<scalar> 
100
(
0.0081346
0.0111089
0.0121236
0.0140005
0.0156861
0.0163339
0.0167664
0.0174397
0.0183813
0.0191024
0.0198833
0.0207292
0.0215397
0.022081
0.0224108
0.0228269
0.0232473
0.0234022
0.0236355
0.0238382
0.0239433
0.0241337
0.0244573
0.02473
0.025044
0.0252894
0.0255637
0.025742
0.0259075
0.026143
0.0264248
0.0265406
0.0267097
0.0268251
0.0268666
0.0269982
0.0271994
0.0273905
0.0275891
0.0277076
0.0278021
0.0279496
0.0281549
0.0283919
0.0284787
0.0286199
0.0287595
0.0288935
0.0290335
0.029207
0.0293558
0.0294877
0.0296409
0.0297641
0.0298938
0.0300663
0.0302806
0.0304913
0.0307715
0.0311386
0.0316875
0.0326507
0.0344692
0.0388656
0.0366247
0.0368359
0.0368247
0.0367501
0.0366714
0.0366037
0.0365893
0.0365943
0.0365846
0.0365779
0.03659
0.0366058
0.0365881
0.0366207
0.0366612
0.0366359
0.0366362
0.0366826
0.0366661
0.036662
0.0366575
0.0366918
0.036722
0.0367444
0.0367808
0.0367896
0.0368008
0.0368047
0.0367962
0.0368105
0.0368249
0.0368682
0.0369254
0.0369492
0.0369777
0.0369902
)
;

boundaryField
{
    inlet
    {
        type            fixedValue;
        value           uniform 0;
    }
    outlet
    {
        type            zeroGradient;
    }
    yzfaces
    {
        type            empty;
    }
}


// ************************************************************************* //
