/*--------------------------------*- C++ -*----------------------------------*\
| =========                 |                                                 |
| \\      /  F ield         | foam-extend: Open Source CFD                    |
|  \\    /   O peration     | Version:     5.0                                |
|   \\  /    A nd           | Web:         http://www.foam-extend.org         |
|    \\/     M anipulation  |                                                 |
\*---------------------------------------------------------------------------*/
FoamFile
{
    version     2.0;
    format      ascii;
    class       surfaceScalarField;
    location    "7";
    object      phi;
}
// * * * * * * * * * * * * * * * * * * * * * * * * * * * * * * * * * * * * * //

dimensions      [0 3 -1 0 0 0 0];

internalField   nonuniform List<scalar> 
99
(
1.22975e-06
1.23311e-06
1.22769e-06
1.23467e-06
1.23228e-06
1.23255e-06
1.23377e-06
1.23304e-06
1.23271e-06
1.22143e-06
1.21711e-06
1.21713e-06
1.22158e-06
1.21645e-06
1.22558e-06
1.22895e-06
1.22924e-06
1.23307e-06
1.23087e-06
1.22836e-06
1.23039e-06
1.22801e-06
1.23404e-06
1.23112e-06
1.22866e-06
1.23091e-06
1.2341e-06
1.23037e-06
1.22942e-06
1.2313e-06
1.23212e-06
1.23202e-06
1.23098e-06
1.23061e-06
1.23351e-06
1.23292e-06
1.23593e-06
1.23339e-06
1.23288e-06
1.22797e-06
1.2314e-06
1.23238e-06
1.22857e-06
1.22495e-06
1.22472e-06
1.22353e-06
1.22809e-06
1.23013e-06
1.22911e-06
1.22762e-06
1.22913e-06
1.23158e-06
1.23398e-06
1.23409e-06
1.22943e-06
1.22876e-06
1.23174e-06
1.23203e-06
1.23135e-06
1.22855e-06
1.22895e-06
1.22829e-06
1.22808e-06
1.2273e-06
1.22804e-06
1.22744e-06
1.22781e-06
1.22962e-06
1.22963e-06
1.22982e-06
1.2312e-06
1.23135e-06
1.23146e-06
1.23229e-06
1.23357e-06
1.23266e-06
1.23296e-06
1.23232e-06
1.23239e-06
1.22895e-06
1.23086e-06
1.22962e-06
1.22751e-06
1.22928e-06
1.22867e-06
1.22784e-06
1.22694e-06
1.22704e-06
1.22804e-06
1.22938e-06
1.22855e-06
1.22851e-06
1.2297e-06
1.23018e-06
1.23096e-06
1.23237e-06
1.23238e-06
1.23171e-06
1.23265e-06
)
;

boundaryField
{
    inlet
    {
        type            calculated;
        value           uniform -1.225e-06;
    }
    outlet
    {
        type            calculated;
        value           uniform 1.23398e-06;
    }
    yzfaces
    {
        type            empty;
    }
}


// ************************************************************************* //
