/*--------------------------------*- C++ -*----------------------------------*\
| =========                 |                                                 |
| \\      /  F ield         | foam-extend: Open Source CFD                    |
|  \\    /   O peration     | Version:     5.0                                |
|   \\  /    A nd           | Web:         http://www.foam-extend.org         |
|    \\/     M anipulation  |                                                 |
\*---------------------------------------------------------------------------*/
FoamFile
{
    version     2.0;
    format      ascii;
    class       volVectorField;
    location    "7";
    object      U.gas;
}
// * * * * * * * * * * * * * * * * * * * * * * * * * * * * * * * * * * * * * //

dimensions      [0 1 -1 0 0 0 0];

internalField   nonuniform List<vector> 
100
(
(0.00627979 0 0)
(0.00680982 0 0)
(0.00686653 0 0)
(0.00738758 0 0)
(0.00782887 0 0)
(0.00794975 0 0)
(0.00809161 0 0)
(0.00840572 0 0)
(0.00881444 0 0)
(0.00907346 0 0)
(0.0093544 0 0)
(0.00965582 0 0)
(0.00988577 0 0)
(0.0100473 0 0)
(0.0102425 0 0)
(0.0104579 0 0)
(0.010544 0 0)
(0.0106324 0 0)
(0.0106994 0 0)
(0.0108283 0 0)
(0.0108748 0 0)
(0.0110057 0 0)
(0.0111421 0 0)
(0.0112985 0 0)
(0.0113459 0 0)
(0.0114963 0 0)
(0.0116039 0 0)
(0.0116755 0 0)
(0.0117008 0 0)
(0.0118281 0 0)
(0.0119205 0 0)
(0.0119951 0 0)
(0.012038 0 0)
(0.0120939 0 0)
(0.0121742 0 0)
(0.0122819 0 0)
(0.0123346 0 0)
(0.0124289 0 0)
(0.0124479 0 0)
(0.0124489 0 0)
(0.0125144 0 0)
(0.0126035 0 0)
(0.0126776 0 0)
(0.012649 0 0)
(0.0127149 0 0)
(0.0127464 0 0)
(0.0128106 0 0)
(0.012881 0 0)
(0.0129487 0 0)
(0.0129519 0 0)
(0.013015 0 0)
(0.0130645 0 0)
(0.0131358 0 0)
(0.01319 0 0)
(0.013211 0 0)
(0.0132359 0 0)
(0.0133192 0 0)
(0.0133806 0 0)
(0.0134583 0 0)
(0.0135554 0 0)
(0.0137343 0 0)
(0.0140014 0 0)
(0.0145249 0 0)
(0.0127571 0 0)
(0.0112812 0 0)
(0.0105995 0 0)
(0.0104603 0 0)
(0.0105508 0 0)
(0.0106939 0 0)
(0.010818 0 0)
(0.0109138 0 0)
(0.0109723 0 0)
(0.0110046 0 0)
(0.01102 0 0)
(0.0110221 0 0)
(0.0110118 0 0)
(0.0109957 0 0)
(0.0109718 0 0)
(0.0109452 0 0)
(0.0109063 0 0)
(0.0108784 0 0)
(0.0108562 0 0)
(0.0108236 0 0)
(0.0108087 0 0)
(0.0107937 0 0)
(0.0107772 0 0)
(0.0107562 0 0)
(0.0107385 0 0)
(0.0107286 0 0)
(0.010728 0 0)
(0.0107179 0 0)
(0.0107076 0 0)
(0.0107034 0 0)
(0.0106915 0 0)
(0.0106806 0 0)
(0.0106674 0 0)
(0.0106439 0 0)
(0.0106056 0 0)
(0.0105584 0 0)
(0.0105123 0 0)
)
;

boundaryField
{
    inlet
    {
        type            fixedValue;
        value           uniform (0.005 0 0);
    }
    outlet
    {
        type            zeroGradient;
    }
    yzfaces
    {
        type            empty;
    }
}


// ************************************************************************* //
