/*--------------------------------*- C++ -*----------------------------------*\
| =========                 |                                                 |
| \\      /  F ield         | foam-extend: Open Source CFD                    |
|  \\    /   O peration     | Version:     5.0                                |
|   \\  /    A nd           | Web:         http://www.foam-extend.org         |
|    \\/     M anipulation  |                                                 |
\*---------------------------------------------------------------------------*/
FoamFile
{
    version     2.0;
    format      ascii;
    class       volVectorField;
    location    "7";
    object      U.water;
}
// * * * * * * * * * * * * * * * * * * * * * * * * * * * * * * * * * * * * * //

dimensions      [0 1 -1 0 0 0 0];

internalField   nonuniform List<vector> 
100
(
(4.58017e-05 0 0)
(0.000105116 0 0)
(0.000141327 0 0)
(0.00016344 0 0)
(0.000219484 0 0)
(0.000262714 0 0)
(0.000282224 0 0)
(0.000308967 0 0)
(0.000359585 0 0)
(0.000418354 0 0)
(0.000472559 0 0)
(0.000535486 0 0)
(0.000594947 0 0)
(0.000639962 0 0)
(0.000681652 0 0)
(0.000726552 0 0)
(0.00076254 0 0)
(0.000785253 0 0)
(0.000803457 0 0)
(0.000825804 0 0)
(0.000856555 0 0)
(0.000880764 0 0)
(0.000917107 0 0)
(0.000956387 0 0)
(0.000991306 0 0)
(0.00102554 0 0)
(0.00106928 0 0)
(0.00110129 0 0)
(0.00112526 0 0)
(0.00115317 0 0)
(0.00119177 0 0)
(0.00122501 0 0)
(0.00125267 0 0)
(0.00127696 0 0)
(0.00130612 0 0)
(0.00133969 0 0)
(0.0013747 0 0)
(0.00140675 0 0)
(0.00143957 0 0)
(0.00146017 0 0)
(0.0014833 0 0)
(0.00151837 0 0)
(0.00155554 0 0)
(0.00158804 0 0)
(0.00161476 0 0)
(0.00165064 0 0)
(0.00168634 0 0)
(0.00172304 0 0)
(0.00175717 0 0)
(0.00178937 0 0)
(0.00182083 0 0)
(0.00186041 0 0)
(0.00189844 0 0)
(0.00193793 0 0)
(0.00197478 0 0)
(0.00201609 0 0)
(0.00207343 0 0)
(0.00214024 0 0)
(0.00221198 0 0)
(0.00230708 0 0)
(0.0024569 0 0)
(0.00271458 0 0)
(0.00321294 0 0)
(0.0038069 0 0)
(0.00411734 0 0)
(0.00422681 0 0)
(0.00423476 0 0)
(0.00421021 0 0)
(0.00417823 0 0)
(0.00414891 0 0)
(0.00413143 0 0)
(0.00412246 0 0)
(0.00411719 0 0)
(0.00411837 0 0)
(0.00412493 0 0)
(0.00412976 0 0)
(0.00413411 0 0)
(0.00414024 0 0)
(0.00414597 0 0)
(0.00414684 0 0)
(0.00415087 0 0)
(0.00415829 0 0)
(0.00415736 0 0)
(0.00416116 0 0)
(0.00416752 0 0)
(0.00416852 0 0)
(0.00416935 0 0)
(0.00417187 0 0)
(0.00417741 0 0)
(0.00418444 0 0)
(0.00418818 0 0)
(0.00418911 0 0)
(0.00419464 0 0)
(0.00420245 0 0)
(0.00421022 0 0)
(0.00422125 0 0)
(0.00423283 0 0)
(0.00424292 0 0)
(0.00425776 0 0)
(0.00427967 0 0)
)
;

boundaryField
{
    inlet
    {
        type            fixedValue;
        value           uniform (0 0 0);
    }
    outlet
    {
        type            zeroGradient;
    }
    yzfaces
    {
        type            empty;
    }
}


// ************************************************************************* //
