/*--------------------------------*- C++ -*----------------------------------*\
| =========                 |                                                 |
| \\      /  F ield         | foam-extend: Open Source CFD                    |
|  \\    /   O peration     | Version:     5.0                                |
|   \\  /    A nd           | Web:         http://www.foam-extend.org         |
|    \\/     M anipulation  |                                                 |
\*---------------------------------------------------------------------------*/
FoamFile
{
    version     2.0;
    format      ascii;
    class       volScalarField;
    location    "7";
    object      Cl.water;
}
// * * * * * * * * * * * * * * * * * * * * * * * * * * * * * * * * * * * * * //

dimensions      [0 0 0 0 0 0 0];

internalField   nonuniform List<scalar> 
100
(
0.00409202
0.0055357
0.00656268
0.00724741
0.00785928
0.00845405
0.00900099
0.00948713
0.00997644
0.0103633
0.0106611
0.0109435
0.0112617
0.011477
0.0117134
0.0119457
0.0121476
0.01235
0.0124735
0.0126353
0.01287
0.0130276
0.0131595
0.0133302
0.0134227
0.0135015
0.0136492
0.0138131
0.0138983
0.0140332
0.0141433
0.014255
0.0143405
0.0144256
0.0145164
0.0146028
0.0146797
0.0147787
0.0148797
0.0149552
0.0150771
0.0152057
0.0152889
0.0153752
0.0154467
0.0155197
0.0156072
0.015727
0.0158075
0.0159047
0.0159741
0.0161035
0.0162024
0.0163249
0.0164474
0.0165699
0.0167097
0.0168496
0.0170189
0.0172686
0.0175765
0.0180198
0.0188021
0.0205157
0.0209579
0.0211651
0.0212511
0.0212812
0.0213015
0.0213035
0.0213027
0.0212997
0.0212735
0.0212742
0.02126
0.0212451
0.0212233
0.021212
0.0212032
0.02119
0.0211701
0.0211668
0.0211494
0.0211348
0.0211458
0.0211478
0.0211439
0.0211089
0.0210771
0.021082
0.0210659
0.0210639
0.0210697
0.0210655
0.0210683
0.0210718
0.0210739
0.0210873
0.0211298
0.0211411
)
;

boundaryField
{
    inlet
    {
        type            fixedValue;
        value           uniform 0;
    }
    outlet
    {
        type            zeroGradient;
    }
    yzfaces
    {
        type            empty;
    }
}


// ************************************************************************* //
