/*--------------------------------*- C++ -*----------------------------------*\
| =========                 |                                                 |
| \\      /  F ield         | foam-extend: Open Source CFD                    |
|  \\    /   O peration     | Version:     5.0                                |
|   \\  /    A nd           | Web:         http://www.foam-extend.org         |
|    \\/     M anipulation  |                                                 |
\*---------------------------------------------------------------------------*/
FoamFile
{
    version     2.0;
    format      ascii;
    class       volScalarField;
    location    "7";
    object      CO2.water;
}
// * * * * * * * * * * * * * * * * * * * * * * * * * * * * * * * * * * * * * //

dimensions      [0 0 0 0 0 0 0];

internalField   nonuniform List<scalar> 
100
(
0.000935759
0.00126574
0.0015006
0.00165759
0.00179765
0.00193379
0.00205914
0.00216932
0.00228053
0.00236982
0.0024384
0.00250245
0.00257514
0.00262471
0.00267991
0.00273181
0.00277815
0.00282404
0.00285326
0.00289046
0.00294375
0.00298001
0.0030107
0.0030502
0.00307076
0.00308994
0.00312189
0.00315883
0.003178
0.00320841
0.00323513
0.00325988
0.00328055
0.00330064
0.00332144
0.00334194
0.00336032
0.00338215
0.0034071
0.00342425
0.00344875
0.00347848
0.00349662
0.00351489
0.00353164
0.00354872
0.00357118
0.00359797
0.00361652
0.00363747
0.00365319
0.00368316
0.00370604
0.00373426
0.0037613
0.00378886
0.00382113
0.00385322
0.00389141
0.00394944
0.00401982
0.0041209
0.0042999
0.00469111
0.001528
0.000537664
0.000195473
7.20675e-05
2.68387e-05
1.00752e-05
3.8037e-06
1.43911e-06
5.43382e-07
2.04687e-07
7.6662e-08
2.85505e-08
1.05635e-08
3.88697e-09
1.42603e-09
5.22439e-10
1.91519e-10
7.04003e-11
2.59625e-11
9.63146e-12
3.60199e-12
1.35743e-12
5.16268e-13
1.97803e-13
7.642e-14
2.97977e-14
1.16901e-14
4.6206e-15
1.83906e-15
7.3472e-16
2.94372e-16
1.18156e-16
4.74198e-17
1.90136e-17
7.61631e-18
3.03478e-18
)
;

boundaryField
{
    inlet
    {
        type            fixedValue;
        value           uniform 0;
    }
    outlet
    {
        type            zeroGradient;
    }
    yzfaces
    {
        type            empty;
    }
}


// ************************************************************************* //
