/*--------------------------------*- C++ -*----------------------------------*\
| =========                 |                                                 |
| \\      /  F ield         | foam-extend: Open Source CFD                    |
|  \\    /   O peration     | Version:     5.0                                |
|   \\  /    A nd           | Web:         http://www.foam-extend.org         |
|    \\/     M anipulation  |                                                 |
\*---------------------------------------------------------------------------*/
FoamFile
{
    version     2.0;
    format      ascii;
    class       volScalarField;
    location    "7";
    object      H2O.water;
}
// * * * * * * * * * * * * * * * * * * * * * * * * * * * * * * * * * * * * * //

dimensions      [0 0 0 0 0 0 0];

internalField   nonuniform List<scalar> 
100
(
0.0265113
0.0358563
0.042513
0.0469447
0.0509261
0.0547769
0.0583243
0.0614536
0.0646293
0.0671304
0.0690775
0.0708939
0.0729542
0.0743684
0.0758992
0.0773637
0.0786932
0.0800008
0.080815
0.0819229
0.0833934
0.0844416
0.0853098
0.0864113
0.0869977
0.0875573
0.0884375
0.0894887
0.0900136
0.0908998
0.0916428
0.092373
0.0929662
0.0935193
0.0940894
0.0946641
0.0951633
0.0958026
0.0964959
0.0970046
0.0977582
0.0985513
0.0990686
0.0995928
0.100049
0.100522
0.101126
0.10193
0.102451
0.103049
0.103512
0.104349
0.104994
0.105791
0.106557
0.107338
0.108252
0.109161
0.110282
0.111887
0.113881
0.116744
0.121815
0.132898
0.132685
0.13301
0.133192
0.133263
0.133322
0.133331
0.13334
0.13334
0.133182
0.13318
0.133102
0.132999
0.132858
0.132797
0.13274
0.132677
0.132565
0.132563
0.132446
0.132354
0.132412
0.132378
0.132345
0.132143
0.131971
0.132003
0.131927
0.131866
0.131885
0.131868
0.131843
0.131877
0.13191
0.132014
0.13227
0.132424
)
;

boundaryField
{
    inlet
    {
        type            fixedValue;
        value           uniform 0;
    }
    outlet
    {
        type            zeroGradient;
    }
    yzfaces
    {
        type            empty;
    }
}


// ************************************************************************* //
