/*--------------------------------*- C++ -*----------------------------------*\
| =========                 |                                                 |
| \\      /  F ield         | foam-extend: Open Source CFD                    |
|  \\    /   O peration     | Version:     5.0                                |
|   \\  /    A nd           | Web:         http://www.foam-extend.org         |
|    \\/     M anipulation  |                                                 |
\*---------------------------------------------------------------------------*/
FoamFile
{
    version     2.0;
    format      ascii;
    class       volScalarField;
    location    "7";
    object      H2O.gas;
}
// * * * * * * * * * * * * * * * * * * * * * * * * * * * * * * * * * * * * * //

dimensions      [0 0 0 0 0 0 0];

internalField   nonuniform List<scalar> 
100
(
3.77622e-06
0.000114082
0.000129034
0.00011361
0.0001053
0.000107929
0.000117132
0.000129823
0.00014415
0.000162972
0.000182003
0.000203859
0.000196543
0.000191989
0.000188097
0.000185242
0.000180109
0.000178004
0.000175092
0.000171318
0.000168941
0.000167025
0.000164894
0.000163298
0.000161709
0.000159873
0.000157128
0.000155246
0.000153109
0.000151221
0.00014899
0.000147362
0.000145856
0.000144188
0.000142322
0.00014104
0.000139193
0.00013762
0.000135943
0.000134115
0.000132266
0.000130887
0.00012947
0.000128097
0.000126677
0.000125048
0.000123278
0.000122663
0.00012074
0.000119763
0.000117096
0.000115804
0.000114033
0.000112567
0.000110532
0.000108527
0.000106141
0.000103771
0.000100546
9.65826e-05
9.14087e-05
8.37327e-05
7.01577e-05
4.05037e-05
0.000446556
0.000862847
0.00132503
0.00183587
0.00239828
0.00300853
0.00366714
0.00437113
0.00511233
0.00590331
0.00673156
0.00759785
0.00849775
0.0094249
0.0103759
0.0113466
0.0123202
0.0133064
0.0142741
0.0152193
0.0161703
0.017084
0.0179727
0.0187949
0.0195733
0.0203358
0.0210133
0.0216415
0.0222274
0.0227506
0.0232053
0.023588
0.023902
0.0241572
0.0243501
0.0244434
)
;

boundaryField
{
    inlet
    {
        type            fixedValue;
        value           uniform 0;
    }
    outlet
    {
        type            zeroGradient;
    }
    yzfaces
    {
        type            empty;
    }
}


// ************************************************************************* //
