/*--------------------------------*- C++ -*----------------------------------*\
| =========                 |                                                 |
| \\      /  F ield         | foam-extend: Open Source CFD                    |
|  \\    /   O peration     | Version:     5.0                                |
|   \\  /    A nd           | Web:         http://www.foam-extend.org         |
|    \\/     M anipulation  |                                                 |
\*---------------------------------------------------------------------------*/
FoamFile
{
    version     2.0;
    format      ascii;
    class       surfaceScalarField;
    location    "7";
    object      phi;
}
// * * * * * * * * * * * * * * * * * * * * * * * * * * * * * * * * * * * * * //

dimensions      [0 3 -1 0 0 0 0];

internalField   nonuniform List<scalar> 
99
(
1.22246e-06
1.22038e-06
1.24209e-06
1.23681e-06
1.24118e-06
1.23939e-06
1.22947e-06
1.24034e-06
1.24021e-06
1.24124e-06
1.24759e-06
1.24903e-06
1.2467e-06
1.2494e-06
1.25359e-06
1.24631e-06
1.2484e-06
1.23993e-06
1.23971e-06
1.24453e-06
1.24035e-06
1.23909e-06
1.24362e-06
1.24454e-06
1.24511e-06
1.2471e-06
1.24656e-06
1.24928e-06
1.24677e-06
1.24322e-06
1.24365e-06
1.24367e-06
1.24361e-06
1.24201e-06
1.24655e-06
1.2453e-06
1.24422e-06
1.24176e-06
1.24474e-06
1.24439e-06
1.2425e-06
1.24604e-06
1.23992e-06
1.24009e-06
1.24055e-06
1.23605e-06
1.23696e-06
1.2351e-06
1.23289e-06
1.22768e-06
1.2277e-06
1.23209e-06
1.23188e-06
1.22941e-06
1.22826e-06
1.22893e-06
1.23019e-06
1.22871e-06
1.23194e-06
1.23386e-06
1.23374e-06
1.23311e-06
1.2315e-06
1.22991e-06
1.23416e-06
1.2362e-06
1.23677e-06
1.23749e-06
1.23867e-06
1.24042e-06
1.23974e-06
1.23842e-06
1.23806e-06
1.23955e-06
1.24032e-06
1.24022e-06
1.2391e-06
1.23924e-06
1.23904e-06
1.24007e-06
1.23998e-06
1.23809e-06
1.2384e-06
1.23956e-06
1.23996e-06
1.24093e-06
1.24003e-06
1.23919e-06
1.23985e-06
1.23753e-06
1.2382e-06
1.23742e-06
1.23775e-06
1.23687e-06
1.23436e-06
1.23599e-06
1.23554e-06
1.23519e-06
1.2339e-06
)
;

boundaryField
{
    inlet
    {
        type            calculated;
        value           uniform -1.225e-06;
    }
    outlet
    {
        type            calculated;
        value           uniform 1.23226e-06;
    }
    yzfaces
    {
        type            empty;
    }
}


// ************************************************************************* //
