/*--------------------------------*- C++ -*----------------------------------*\
| =========                 |                                                 |
| \\      /  F ield         | foam-extend: Open Source CFD                    |
|  \\    /   O peration     | Version:     5.0                                |
|   \\  /    A nd           | Web:         http://www.foam-extend.org         |
|    \\/     M anipulation  |                                                 |
\*---------------------------------------------------------------------------*/
FoamFile
{
    version     2.0;
    format      ascii;
    class       surfaceScalarField;
    location    "7";
    object      phi.water;
}
// * * * * * * * * * * * * * * * * * * * * * * * * * * * * * * * * * * * * * //

dimensions      [0 3 -1 0 0 0 0];

internalField   nonuniform List<scalar> 
99
(
7.87106e-08
1.33609e-07
1.90541e-07
2.32625e-07
2.74639e-07
3.19854e-07
3.6943e-07
4.22573e-07
4.69926e-07
5.1106e-07
5.4801e-07
5.76965e-07
6.30062e-07
6.73838e-07
7.16509e-07
7.48036e-07
8.00566e-07
8.26862e-07
8.66414e-07
9.12384e-07
9.49844e-07
9.83262e-07
1.01836e-06
1.0472e-06
1.07579e-06
1.10288e-06
1.14491e-06
1.182e-06
1.21488e-06
1.24955e-06
1.29049e-06
1.32558e-06
1.35671e-06
1.38981e-06
1.43128e-06
1.45721e-06
1.49236e-06
1.52497e-06
1.56676e-06
1.60082e-06
1.64203e-06
1.68752e-06
1.71812e-06
1.7537e-06
1.7865e-06
1.81588e-06
1.86176e-06
1.90357e-06
1.94505e-06
1.97459e-06
2.02877e-06
2.09827e-06
2.15338e-06
2.19987e-06
2.2665e-06
2.33581e-06
2.41851e-06
2.50205e-06
2.6317e-06
2.78209e-06
2.99042e-06
3.30773e-06
3.8741e-06
5.55665e-06
5.34674e-06
5.30048e-06
5.29377e-06
5.2955e-06
5.29926e-06
5.30492e-06
5.29988e-06
5.29367e-06
5.28998e-06
5.28978e-06
5.28698e-06
5.27826e-06
5.26239e-06
5.25084e-06
5.23688e-06
5.22956e-06
5.21562e-06
5.19513e-06
5.18661e-06
5.18048e-06
5.16941e-06
5.16397e-06
5.15299e-06
5.1462e-06
5.14281e-06
5.12485e-06
5.12525e-06
5.11822e-06
5.1162e-06
5.11119e-06
5.10048e-06
5.11017e-06
5.11356e-06
5.11525e-06
5.11831e-06
)
;

boundaryField
{
    inlet
    {
        type            fixedValue;
        value           uniform 0;
    }
    outlet
    {
        type            calculated;
        value           uniform 5.13041e-06;
    }
    yzfaces
    {
        type            empty;
    }
}


// ************************************************************************* //
