/*--------------------------------*- C++ -*----------------------------------*\
| =========                 |                                                 |
| \\      /  F ield         | foam-extend: Open Source CFD                    |
|  \\    /   O peration     | Version:     5.0                                |
|   \\  /    A nd           | Web:         http://www.foam-extend.org         |
|    \\/     M anipulation  |                                                 |
\*---------------------------------------------------------------------------*/
FoamFile
{
    version     2.0;
    format      ascii;
    class       volVectorField;
    location    "7";
    object      U.water;
}
// * * * * * * * * * * * * * * * * * * * * * * * * * * * * * * * * * * * * * //

dimensions      [0 1 -1 0 0 0 0];

internalField   nonuniform List<vector> 
100
(
(3.76427e-05 0 0)
(8.71656e-05 0 0)
(0.000130877 0 0)
(0.000170883 0 0)
(0.000205112 0 0)
(0.000240245 0 0)
(0.00027744 0 0)
(0.00031866 0 0)
(0.000360132 0 0)
(0.000397796 0 0)
(0.000430908 0 0)
(0.000459922 0 0)
(0.000491171 0 0)
(0.00053049 0 0)
(0.000565102 0 0)
(0.000596493 0 0)
(0.000628471 0 0)
(0.000661384 0 0)
(0.000687179 0 0)
(0.000720448 0 0)
(0.000755174 0 0)
(0.000785852 0 0)
(0.00081469 0 0)
(0.000842057 0 0)
(0.000865945 0 0)
(0.000888866 0 0)
(0.000915582 0 0)
(0.000948656 0 0)
(0.000977313 0 0)
(0.00100456 0 0)
(0.00103522 0 0)
(0.00106639 0 0)
(0.00109358 0 0)
(0.00111899 0 0)
(0.00114838 0 0)
(0.0011766 0 0)
(0.00120068 0 0)
(0.00122821 0 0)
(0.00125881 0 0)
(0.00129009 0 0)
(0.00132065 0 0)
(0.00135706 0 0)
(0.00138857 0 0)
(0.00141547 0 0)
(0.00144349 0 0)
(0.00146855 0 0)
(0.0014992 0 0)
(0.00153602 0 0)
(0.00157038 0 0)
(0.00159966 0 0)
(0.00163262 0 0)
(0.00168222 0 0)
(0.00173385 0 0)
(0.00177679 0 0)
(0.00182278 0 0)
(0.00187848 0 0)
(0.00194031 0 0)
(0.0020091 0 0)
(0.00209557 0 0)
(0.00221151 0 0)
(0.00236075 0 0)
(0.00258286 0 0)
(0.00296882 0 0)
(0.00375744 0 0)
(0.00445021 0 0)
(0.00434322 0 0)
(0.004322 0 0)
(0.00432062 0 0)
(0.00432362 0 0)
(0.00432814 0 0)
(0.00432891 0 0)
(0.00432373 0 0)
(0.00431817 0 0)
(0.00431635 0 0)
(0.00431494 0 0)
(0.00430938 0 0)
(0.00429857 0 0)
(0.00428759 0 0)
(0.00427824 0 0)
(0.00427014 0 0)
(0.00426198 0 0)
(0.00424882 0 0)
(0.00423697 0 0)
(0.00423131 0 0)
(0.00422655 0 0)
(0.00422175 0 0)
(0.00421496 0 0)
(0.00420477 0 0)
(0.00419819 0 0)
(0.00418959 0 0)
(0.00418195 0 0)
(0.00417875 0 0)
(0.00417552 0 0)
(0.00417289 0 0)
(0.00416635 0 0)
(0.00416581 0 0)
(0.00417136 0 0)
(0.0041753 0 0)
(0.00418017 0 0)
(0.00418676 0 0)
)
;

boundaryField
{
    inlet
    {
        type            fixedValue;
        value           uniform (0 0 0);
    }
    outlet
    {
        type            zeroGradient;
    }
    yzfaces
    {
        type            empty;
    }
}


// ************************************************************************* //
