/*--------------------------------*- C++ -*----------------------------------*\
| =========                 |                                                 |
| \\      /  F ield         | foam-extend: Open Source CFD                    |
|  \\    /   O peration     | Version:     5.0                                |
|   \\  /    A nd           | Web:         http://www.foam-extend.org         |
|    \\/     M anipulation  |                                                 |
\*---------------------------------------------------------------------------*/
FoamFile
{
    version     2.0;
    format      ascii;
    class       volScalarField;
    location    "2";
    object      alpha.gas;
}
// * * * * * * * * * * * * * * * * * * * * * * * * * * * * * * * * * * * * * //

dimensions      [0 0 0 0 0 0 0];

internalField   nonuniform List<scalar> 
100
(
0.133606
0.115316
0.104057
0.0961264
0.0895443
0.0845695
0.0801471
0.0757911
0.0719691
0.0685529
0.0650965
0.0613655
0.0574439
0.0531544
0.0474987
0.0391007
0.0240713
0.036951
0.036546
0.0363131
0.0360888
0.0358639
0.0356065
0.0352886
0.0348809
0.0343855
0.0338259
0.0331472
0.0323518
0.0314171
0.0303309
0.0290862
0.0276627
0.0260619
0.0242522
0.0222974
0.0202283
0.0181323
0.0161134
0.0143272
0.0128825
0.0118129
0.0110909
0.0106335
0.0103639
0.0102015
0.010114
0.0100596
0.0100404
0.0100203
0.0100132
0.0100091
0.0100051
0.0100005
0.00999571
0.0100011
0.0100009
0.00999883
0.00999654
0.00999935
0.0100053
0.0100013
0.0100022
0.0100026
0.0100104
0.0100087
0.0100098
0.0100062
0.010008
0.0100067
0.0100088
0.0100066
0.0100043
0.0100039
0.0100012
0.0099978
0.00999945
0.0099975
0.0100003
0.0100003
0.00999973
0.00999804
0.00999647
0.00999787
0.00999539
0.00999778
0.0100005
0.0100032
0.0100012
0.0100044
0.0100012
0.010001
0.01
0.00999757
0.00999231
0.00999275
0.00999026
0.00999543
0.00999777
0.00999779
)
;

boundaryField
{
    inlet
    {
        type            fixedValue;
        value           uniform 0.2;
    }
    outlet
    {
        type            zeroGradient;
    }
    yzfaces
    {
        type            empty;
    }
}


// ************************************************************************* //
