/*--------------------------------*- C++ -*----------------------------------*\
| =========                 |                                                 |
| \\      /  F ield         | foam-extend: Open Source CFD                    |
|  \\    /   O peration     | Version:     5.0                                |
|   \\  /    A nd           | Web:         http://www.foam-extend.org         |
|    \\/     M anipulation  |                                                 |
\*---------------------------------------------------------------------------*/
FoamFile
{
    version     2.0;
    format      ascii;
    class       volScalarField;
    location    "2";
    object      Cl.water;
}
// * * * * * * * * * * * * * * * * * * * * * * * * * * * * * * * * * * * * * //

dimensions      [0 0 0 0 0 0 0];

internalField   nonuniform List<scalar> 
100
(
0.00762137
0.00965473
0.0109317
0.0118386
0.0125906
0.0132087
0.013755
0.0142414
0.0146981
0.0150776
0.0154794
0.0159082
0.0163496
0.0168195
0.0174297
0.0183019
0.0198342
0.0187131
0.0187811
0.0187958
0.0188297
0.0188504
0.0188824
0.0189099
0.0189688
0.019022
0.019078
0.0191667
0.0192443
0.0193509
0.0194915
0.0196194
0.0197814
0.0199646
0.0201827
0.0204024
0.0206297
0.0208851
0.0211084
0.0213263
0.0214865
0.0216115
0.0216911
0.0217424
0.0217843
0.021788
0.0217943
0.0218108
0.0218108
0.0218174
0.0218108
0.0218178
0.0218142
0.0218226
0.0218243
0.0218098
0.021823
0.0218245
0.0218214
0.0218124
0.0218064
0.0218241
0.0218192
0.0218016
0.0218068
0.0218226
0.0218158
0.0218171
0.0218091
0.0218194
0.0218061
0.0218157
0.0218097
0.021805
0.0218125
0.0218203
0.0218153
0.0218241
0.0218156
0.0218225
0.0218172
0.0218294
0.0218274
0.0218116
0.0218076
0.0218278
0.0218057
0.0218112
0.0218208
0.0218113
0.0218212
0.0218137
0.0218264
0.0218165
0.0218235
0.0218221
0.0218225
0.0218068
0.0218076
0.0218125
)
;

boundaryField
{
    inlet
    {
        type            fixedValue;
        value           uniform 0;
    }
    outlet
    {
        type            zeroGradient;
    }
    yzfaces
    {
        type            empty;
    }
}


// ************************************************************************* //
