/*--------------------------------*- C++ -*----------------------------------*\
| =========                 |                                                 |
| \\      /  F ield         | foam-extend: Open Source CFD                    |
|  \\    /   O peration     | Version:     5.0                                |
|   \\  /    A nd           | Web:         http://www.foam-extend.org         |
|    \\/     M anipulation  |                                                 |
\*---------------------------------------------------------------------------*/
FoamFile
{
    version     2.0;
    format      ascii;
    class       volScalarField;
    location    "2";
    object      CO2.water;
}
// * * * * * * * * * * * * * * * * * * * * * * * * * * * * * * * * * * * * * //

dimensions      [0 0 0 0 0 0 0];

internalField   nonuniform List<scalar> 
100
(
0.00174333
0.00220758
0.00249955
0.0027097
0.00287925
0.00301909
0.00314522
0.00325599
0.00336092
0.00344859
0.0035414
0.00363952
0.0037401
0.00384624
0.00398554
0.00418478
0.00453487
0.000590028
0.000196427
6.43602e-05
2.1094e-05
6.95412e-06
2.29673e-06
7.5259e-07
2.41251e-07
7.42137e-08
2.15386e-08
5.76395e-09
1.32602e-09
1.85273e-10
0
0
0
0
0
0
0
0
0
0
0
0
0
0
2.4209e-15
2.7088e-15
2.2144e-15
1.56943e-15
1.02227e-15
6.27129e-16
3.68403e-16
2.0922e-16
1.15472e-16
6.22141e-17
3.27361e-17
1.68468e-17
8.47832e-18
4.16019e-18
1.98521e-18
9.18449e-19
4.10629e-19
1.76475e-19
7.25459e-20
2.83729e-20
1.0526e-20
3.65479e-21
1.16034e-21
3.18174e-22
4.49781e-23
0
0
0
0
0
0
0
0
0
0
0
0
0
0
0
0
0
0
0
0
0
0
0
0
0
0
0
0
0
0
0
)
;

boundaryField
{
    inlet
    {
        type            fixedValue;
        value           uniform 0;
    }
    outlet
    {
        type            zeroGradient;
    }
    yzfaces
    {
        type            empty;
    }
}


// ************************************************************************* //
