/*--------------------------------*- C++ -*----------------------------------*\
| =========                 |                                                 |
| \\      /  F ield         | foam-extend: Open Source CFD                    |
|  \\    /   O peration     | Version:     5.0                                |
|   \\  /    A nd           | Web:         http://www.foam-extend.org         |
|    \\/     M anipulation  |                                                 |
\*---------------------------------------------------------------------------*/
FoamFile
{
    version     2.0;
    format      ascii;
    class       volScalarField;
    location    "2";
    object      H2O.gas;
}
// * * * * * * * * * * * * * * * * * * * * * * * * * * * * * * * * * * * * * //

dimensions      [0 0 0 0 0 0 0];

internalField   nonuniform List<scalar> 
100
(
0.000260194
0.000136368
0.000136428
0.000134405
0.000132004
0.000130442
0.000129136
0.000131266
0.000133462
0.000129147
0.000124296
0.000119507
0.00011187
0.000103517
9.25024e-05
7.61475e-05
4.68781e-05
0.000630315
0.00115733
0.00187001
0.00277547
0.00388766
0.0051956
0.00668884
0.00832686
0.01008
0.0119082
0.0137189
0.0154793
0.0170838
0.0184491
0.0195418
0.0202498
0.0205331
0.0203192
0.0196651
0.0185937
0.0171853
0.0156265
0.0140956
0.0127867
0.0117761
0.0110788
0.0106309
0.0103587
0.0102028
0.0101179
0.0100573
0.0100413
0.0100215
0.0100116
0.0100097
0.0100029
0.010004
0.00999826
0.00999933
0.0100022
0.00999859
0.00999539
0.00999312
0.0100022
0.00999939
0.00999972
0.00999663
0.0100088
0.0100117
0.0100112
0.0100069
0.0100061
0.0100088
0.0100049
0.0100064
0.0100023
0.0100008
0.00999969
0.00999758
0.00999779
0.00999671
0.00999608
0.0099967
0.00999598
0.0100011
0.0100001
0.00999779
0.0099915
0.0100029
0.00999507
0.0100023
0.0100017
0.0100027
0.010003
0.00999837
0.0100027
0.00999675
0.00999112
0.00999378
0.00999005
0.00999156
0.00999415
0.00999485
)
;

boundaryField
{
    inlet
    {
        type            fixedValue;
        value           uniform 0;
    }
    outlet
    {
        type            zeroGradient;
    }
    yzfaces
    {
        type            empty;
    }
}


// ************************************************************************* //
