/*--------------------------------*- C++ -*----------------------------------*\
| =========                 |                                                 |
| \\      /  F ield         | foam-extend: Open Source CFD                    |
|  \\    /   O peration     | Version:     5.0                                |
|   \\  /    A nd           | Web:         http://www.foam-extend.org         |
|    \\/     M anipulation  |                                                 |
\*---------------------------------------------------------------------------*/
FoamFile
{
    version     2.0;
    format      ascii;
    class       volScalarField;
    location    "2";
    object      Na.water;
}
// * * * * * * * * * * * * * * * * * * * * * * * * * * * * * * * * * * * * * //

dimensions      [0 0 0 0 0 0 0];

internalField   nonuniform List<scalar> 
100
(
0.00762296
0.00964772
0.0109264
0.0118469
0.0125926
0.0132024
0.0137511
0.0142335
0.014691
0.0150733
0.0154867
0.0159172
0.0163553
0.0168136
0.0174215
0.0182915
0.0198205
0.018713
0.0187851
0.0187957
0.0188243
0.0188432
0.0188772
0.0189063
0.0189627
0.0190177
0.0190719
0.0191631
0.0192408
0.0193478
0.0194903
0.0196189
0.0197842
0.0199695
0.0201881
0.0204062
0.0206353
0.0208937
0.0211124
0.0213228
0.0214869
0.0216086
0.0216929
0.0217424
0.0217874
0.0217932
0.0217978
0.0218102
0.0218105
0.0218181
0.0218107
0.0218085
0.0218091
0.021821
0.0218254
0.0218081
0.0218144
0.0218109
0.0218124
0.0218059
0.0218031
0.0218174
0.0218179
0.0218065
0.021812
0.0218329
0.0218278
0.0218307
0.0218234
0.0218299
0.0218161
0.0218284
0.0218241
0.021827
0.0218188
0.0218188
0.0218156
0.0218219
0.0218049
0.0218096
0.0218148
0.0218311
0.0218361
0.0218247
0.0218219
0.0218358
0.0218099
0.0218177
0.0218155
0.0218063
0.0218225
0.021815
0.0218185
0.0218137
0.0218184
0.0218214
0.0218268
0.0218145
0.0218114
0.0218154
)
;

boundaryField
{
    inlet
    {
        type            fixedValue;
        value           uniform 0;
    }
    outlet
    {
        type            zeroGradient;
    }
    yzfaces
    {
        type            empty;
    }
}


// ************************************************************************* //
