/*--------------------------------*- C++ -*----------------------------------*\
| =========                 |                                                 |
| \\      /  F ield         | foam-extend: Open Source CFD                    |
|  \\    /   O peration     | Version:     5.0                                |
|   \\  /    A nd           | Web:         http://www.foam-extend.org         |
|    \\/     M anipulation  |                                                 |
\*---------------------------------------------------------------------------*/
FoamFile
{
    version     2.0;
    format      ascii;
    class       volScalarField;
    location    "2";
    object      Ns;
}
// * * * * * * * * * * * * * * * * * * * * * * * * * * * * * * * * * * * * * //

dimensions      [0 -3 0 0 1 0 0];

internalField   nonuniform List<scalar> 
100
(
0.674294
0.0542234
2.17385
0.273297
0.488717
1.00545
1.10335
0.194552
0.19101
0.762582
0.871477
2.32701
5.72949
14.9062
27.9155
57.9352
120.768
174.089
173.739
170.195
171.993
175.941
174.03
173.407
171.948
170.473
174.013
174.315
171.769
173.49
173.868
171.923
173.514
175.485
164.371
169.947
173.224
173.021
172.921
174.627
172.761
170.994
173.154
171.79
174.641
171.206
173.574
170.277
173.147
170.546
171.985
173.681
172.843
173.68
172.687
174.319
170.945
172.524
176.831
171.558
174.565
170.123
174.092
172.942
179.492
175.66
175.813
172.314
175.361
173.132
177.401
174.492
171.803
175.735
174.659
172.655
173.009
173.785
175.467
175.472
172.688
176.223
168.365
174.676
172.736
172.102
173.488
172.698
170.055
174.402
171.568
173.292
172.602
174.984
173.19
174.138
173.5
173.546
175.323
171.229
)
;

boundaryField
{
    inlet
    {
        type            fixedValue;
        value           uniform 0;
    }
    outlet
    {
        type            zeroGradient;
    }
    yzfaces
    {
        type            empty;
    }
}


// ************************************************************************* //
