/*--------------------------------*- C++ -*----------------------------------*\
| =========                 |                                                 |
| \\      /  F ield         | foam-extend: Open Source CFD                    |
|  \\    /   O peration     | Version:     5.0                                |
|   \\  /    A nd           | Web:         http://www.foam-extend.org         |
|    \\/     M anipulation  |                                                 |
\*---------------------------------------------------------------------------*/
FoamFile
{
    version     2.0;
    format      ascii;
    class       surfaceScalarField;
    location    "2";
    object      phi;
}
// * * * * * * * * * * * * * * * * * * * * * * * * * * * * * * * * * * * * * //

dimensions      [0 3 -1 0 0 0 0];

internalField   nonuniform List<scalar> 
99
(
1.22181e-06
1.224e-06
1.23635e-06
1.23152e-06
1.23573e-06
1.23449e-06
1.23404e-06
1.23852e-06
1.23845e-06
1.24212e-06
1.24148e-06
1.24067e-06
1.24035e-06
1.23853e-06
1.23453e-06
1.22663e-06
1.23686e-06
1.2367e-06
1.2386e-06
1.23723e-06
1.23866e-06
1.23721e-06
1.23684e-06
1.2356e-06
1.23565e-06
1.23653e-06
1.2358e-06
1.23653e-06
1.23589e-06
1.23425e-06
1.23543e-06
1.2347e-06
1.23427e-06
1.23155e-06
1.23335e-06
1.23209e-06
1.23067e-06
1.23074e-06
1.23059e-06
1.23218e-06
1.23161e-06
1.23209e-06
1.23218e-06
1.23107e-06
1.23291e-06
1.23267e-06
1.23159e-06
1.23251e-06
1.23144e-06
1.23149e-06
1.23182e-06
1.23129e-06
1.23089e-06
1.23028e-06
1.22964e-06
1.22942e-06
1.22903e-06
1.2289e-06
1.22943e-06
1.23114e-06
1.23128e-06
1.23118e-06
1.23236e-06
1.23417e-06
1.23396e-06
1.23316e-06
1.232e-06
1.23229e-06
1.23315e-06
1.23246e-06
1.23324e-06
1.23321e-06
1.23284e-06
1.23425e-06
1.23536e-06
1.23528e-06
1.23557e-06
1.23658e-06
1.23796e-06
1.23844e-06
1.23939e-06
1.23863e-06
1.23734e-06
1.23766e-06
1.23815e-06
1.23671e-06
1.23919e-06
1.23999e-06
1.23976e-06
1.24069e-06
1.24064e-06
1.24218e-06
1.24217e-06
1.24295e-06
1.24391e-06
1.24213e-06
1.24293e-06
1.24316e-06
1.24468e-06
)
;

boundaryField
{
    inlet
    {
        type            calculated;
        value           uniform -1.225e-06;
    }
    outlet
    {
        type            calculated;
        value           uniform 1.24628e-06;
    }
    yzfaces
    {
        type            empty;
    }
}


// ************************************************************************* //
