/*--------------------------------*- C++ -*----------------------------------*\
| =========                 |                                                 |
| \\      /  F ield         | foam-extend: Open Source CFD                    |
|  \\    /   O peration     | Version:     5.0                                |
|   \\  /    A nd           | Web:         http://www.foam-extend.org         |
|    \\/     M anipulation  |                                                 |
\*---------------------------------------------------------------------------*/
FoamFile
{
    version     2.0;
    format      ascii;
    class       volScalarField;
    location    "2";
    object      S.gas;
}
// * * * * * * * * * * * * * * * * * * * * * * * * * * * * * * * * * * * * * //

dimensions      [0 0 0 0 0 0 0];

internalField   nonuniform List<scalar> 
100
(
0.667756
0.576582
0.520284
0.480632
0.447722
0.422848
0.400735
0.378956
0.359845
0.342765
0.325483
0.307352
0.288286
0.26775
0.240491
0.201412
0.189088
0.184755
0.18273
0.181566
0.180444
0.17932
0.178033
0.176443
0.174405
0.171927
0.169129
0.165736
0.161759
0.157085
0.151655
0.145431
0.138314
0.13031
0.121261
0.111487
0.101141
0.0906614
0.0805669
0.071636
0.0644124
0.0590643
0.0554543
0.0531673
0.0518193
0.0510076
0.0505699
0.050298
0.050202
0.0501016
0.0500662
0.0500453
0.0500257
0.0500023
0.0499785
0.0500055
0.0500045
0.0499941
0.0499827
0.0499967
0.0500265
0.0500066
0.0500108
0.050013
0.050052
0.0500434
0.0500489
0.0500311
0.0500399
0.0500335
0.0500439
0.0500328
0.0500217
0.0500195
0.0500061
0.049989
0.0499972
0.0499875
0.0500015
0.0500014
0.0499987
0.0499902
0.0499824
0.0499893
0.0499769
0.0499889
0.0500027
0.0500159
0.0500058
0.0500218
0.0500058
0.0500049
0.0500002
0.0499879
0.0499616
0.0499637
0.0499513
0.0499771
0.0499888
0.049989
)
;

boundaryField
{
    inlet
    {
        type            calculated;
        value           uniform 1;
    }
    outlet
    {
        type            calculated;
        value           uniform 0.049989;
    }
    yzfaces
    {
        type            empty;
    }
}


// ************************************************************************* //
