/*--------------------------------*- C++ -*----------------------------------*\
| =========                 |                                                 |
| \\      /  F ield         | foam-extend: Open Source CFD                    |
|  \\    /   O peration     | Version:     5.0                                |
|   \\  /    A nd           | Web:         http://www.foam-extend.org         |
|    \\/     M anipulation  |                                                 |
\*---------------------------------------------------------------------------*/
FoamFile
{
    version     2.0;
    format      ascii;
    class       volVectorField;
    location    "2";
    object      U.gas;
}
// * * * * * * * * * * * * * * * * * * * * * * * * * * * * * * * * * * * * * //

dimensions      [0 1 -1 0 0 0 0];

internalField   nonuniform List<vector> 
100
(
(0.00742638 0 0)
(0.00846817 0 0)
(0.00928462 0 0)
(0.00991164 0 0)
(0.0104488 0 0)
(0.0108778 0 0)
(0.0112613 0 0)
(0.0116826 0 0)
(0.0120462 0 0)
(0.0123667 0 0)
(0.0126991 0 0)
(0.013019 0 0)
(0.0133379 0 0)
(0.0136469 0 0)
(0.0140614 0 0)
(0.0145486 0 0)
(0.0135227 0 0)
(0.0131689 0 0)
(0.0130329 0 0)
(0.0129698 0 0)
(0.0129447 0 0)
(0.012921 0 0)
(0.0128874 0 0)
(0.0128558 0 0)
(0.0128221 0 0)
(0.0127855 0 0)
(0.0127256 0 0)
(0.0126581 0 0)
(0.0125678 0 0)
(0.0124385 0 0)
(0.0122843 0 0)
(0.0120901 0 0)
(0.0118311 0 0)
(0.011493 0 0)
(0.0110796 0 0)
(0.010559 0 0)
(0.00991853 0 0)
(0.00917293 0 0)
(0.00835449 0 0)
(0.00750444 0 0)
(0.00670671 0 0)
(0.00603699 0 0)
(0.00553535 0 0)
(0.00519007 0 0)
(0.00497434 0 0)
(0.0048502 0 0)
(0.00477041 0 0)
(0.00472945 0 0)
(0.00470396 0 0)
(0.00469271 0 0)
(0.00468333 0 0)
(0.00467942 0 0)
(0.00467616 0 0)
(0.00467194 0 0)
(0.0046667 0 0)
(0.00466349 0 0)
(0.00466544 0 0)
(0.0046634 0 0)
(0.00466298 0 0)
(0.00466671 0 0)
(0.00467147 0 0)
(0.0046749 0 0)
(0.00467556 0 0)
(0.00468148 0 0)
(0.0046838 0 0)
(0.00468611 0 0)
(0.00468195 0 0)
(0.00467989 0 0)
(0.00468081 0 0)
(0.00468233 0 0)
(0.00468123 0 0)
(0.00468336 0 0)
(0.00468184 0 0)
(0.00468353 0 0)
(0.00468856 0 0)
(0.00468871 0 0)
(0.00468756 0 0)
(0.00469079 0 0)
(0.00469443 0 0)
(0.00469917 0 0)
(0.00470172 0 0)
(0.00470191 0 0)
(0.00469722 0 0)
(0.00469427 0 0)
(0.00469603 0 0)
(0.00469354 0 0)
(0.00469742 0 0)
(0.00470459 0 0)
(0.00470637 0 0)
(0.00470692 0 0)
(0.00471045 0 0)
(0.00471228 0 0)
(0.00471506 0 0)
(0.00471593 0 0)
(0.00471815 0 0)
(0.00471351 0 0)
(0.00471122 0 0)
(0.00471233 0 0)
(0.00471816 0 0)
(0.00472567 0 0)
)
;

boundaryField
{
    inlet
    {
        type            fixedValue;
        value           uniform (0.005 0 0);
    }
    outlet
    {
        type            zeroGradient;
    }
    yzfaces
    {
        type            empty;
    }
}


// ************************************************************************* //
