/*--------------------------------*- C++ -*----------------------------------*\
| =========                 |                                                 |
| \\      /  F ield         | foam-extend: Open Source CFD                    |
|  \\    /   O peration     | Version:     5.0                                |
|   \\  /    A nd           | Web:         http://www.foam-extend.org         |
|    \\/     M anipulation  |                                                 |
\*---------------------------------------------------------------------------*/
FoamFile
{
    version     2.0;
    format      ascii;
    class       volVectorField;
    location    "2";
    object      U.water;
}
// * * * * * * * * * * * * * * * * * * * * * * * * * * * * * * * * * * * * * //

dimensions      [0 1 -1 0 0 0 0];

internalField   nonuniform List<vector> 
100
(
(0.000103788 0 0)
(0.000257086 0 0)
(0.000397076 0 0)
(0.0005249 0 0)
(0.000646476 0 0)
(0.000765155 0 0)
(0.000876093 0 0)
(0.000996483 0 0)
(0.00112515 0 0)
(0.00125299 0 0)
(0.00138652 0 0)
(0.00153644 0 0)
(0.00171165 0 0)
(0.00191871 0 0)
(0.00219277 0 0)
(0.00262028 0 0)
(0.00304664 0 0)
(0.0032077 0 0)
(0.00326712 0 0)
(0.00329634 0 0)
(0.00331526 0 0)
(0.0033336 0 0)
(0.00335138 0 0)
(0.00337256 0 0)
(0.00340013 0 0)
(0.00343821 0 0)
(0.00348225 0 0)
(0.00353327 0 0)
(0.00359419 0 0)
(0.00366252 0 0)
(0.00374518 0 0)
(0.00384149 0 0)
(0.00394843 0 0)
(0.00406426 0 0)
(0.00419565 0 0)
(0.00433794 0 0)
(0.00447552 0 0)
(0.00460957 0 0)
(0.00473122 0 0)
(0.00483482 0 0)
(0.00491258 0 0)
(0.00496463 0 0)
(0.0049994 0 0)
(0.00501788 0 0)
(0.00503148 0 0)
(0.00504154 0 0)
(0.00504288 0 0)
(0.00504462 0 0)
(0.00504561 0 0)
(0.00504397 0 0)
(0.00504527 0 0)
(0.00504504 0 0)
(0.00504321 0 0)
(0.00504127 0 0)
(0.00503886 0 0)
(0.00503719 0 0)
(0.00503576 0 0)
(0.00503474 0 0)
(0.00503564 0 0)
(0.00504025 0 0)
(0.00504398 0 0)
(0.00504387 0 0)
(0.00504617 0 0)
(0.00505229 0 0)
(0.00505563 0 0)
(0.00505333 0 0)
(0.00504934 0 0)
(0.00504757 0 0)
(0.00504999 0 0)
(0.00505026 0 0)
(0.00505052 0 0)
(0.00505202 0 0)
(0.00505124 0 0)
(0.00505339 0 0)
(0.00505853 0 0)
(0.00506071 0 0)
(0.00506121 0 0)
(0.00506385 0 0)
(0.00506881 0 0)
(0.00507254 0 0)
(0.00507548 0 0)
(0.0050759 0 0)
(0.00507174 0 0)
(0.00506979 0 0)
(0.00507143 0 0)
(0.00506954 0 0)
(0.00507158 0 0)
(0.00507825 0 0)
(0.00507937 0 0)
(0.00508086 0 0)
(0.00508254 0 0)
(0.00508565 0 0)
(0.00508879 0 0)
(0.0050904 0 0)
(0.00509401 0 0)
(0.00509247 0 0)
(0.00509048 0 0)
(0.00509265 0 0)
(0.00509611 0 0)
(0.00510242 0 0)
)
;

boundaryField
{
    inlet
    {
        type            fixedValue;
        value           uniform (0 0 0);
    }
    outlet
    {
        type            zeroGradient;
    }
    yzfaces
    {
        type            empty;
    }
}


// ************************************************************************* //
