/*--------------------------------*- C++ -*----------------------------------*\
| =========                 |                                                 |
| \\      /  F ield         | foam-extend: Open Source CFD                    |
|  \\    /   O peration     | Version:     5.0                                |
|   \\  /    A nd           | Web:         http://www.foam-extend.org         |
|    \\/     M anipulation  |                                                 |
\*---------------------------------------------------------------------------*/
FoamFile
{
    version     2.0;
    format      ascii;
    class       volScalarField;
    location    "3";
    object      alpha.gas;
}
// * * * * * * * * * * * * * * * * * * * * * * * * * * * * * * * * * * * * * //

dimensions      [0 0 0 0 0 0 0];

internalField   nonuniform List<scalar> 
100
(
0.146016
0.129911
0.117347
0.10934
0.102948
0.0977661
0.093474
0.0894916
0.0862063
0.0834342
0.080811
0.0781779
0.0757073
0.0734529
0.0712208
0.0691784
0.0671904
0.0653717
0.0634354
0.0615147
0.0593829
0.057112
0.0547253
0.0519523
0.0483788
0.0430278
0.0337709
0.0133342
0.0297351
0.0290293
0.0285489
0.0281353
0.0277685
0.0274301
0.027136
0.0268769
0.0266545
0.0264449
0.0262483
0.026034
0.025791
0.0254932
0.0251303
0.0246834
0.0241185
0.0234269
0.022569
0.0215428
0.0203406
0.0189915
0.017536
0.0160344
0.0145964
0.0133225
0.0122791
0.0114932
0.0109446
0.0105824
0.0103534
0.0102124
0.0101254
0.0100752
0.0100449
0.0100259
0.0100139
0.0100086
0.0100041
0.0100017
0.0100014
0.0100011
0.01
0.00999876
0.00999877
0.0100005
0.00999593
0.00999508
0.00999502
0.00999614
0.00999748
0.00999882
0.0100001
0.00999852
0.00999896
0.00999867
0.00999787
0.00999747
0.00999792
0.00999728
0.00999734
0.00999731
0.00999827
0.010003
0.010003
0.010001
0.0100024
0.0100021
0.0100002
0.0100001
0.00999803
0.0100041
)
;

boundaryField
{
    inlet
    {
        type            fixedValue;
        value           uniform 0.2;
    }
    outlet
    {
        type            zeroGradient;
    }
    yzfaces
    {
        type            empty;
    }
}


// ************************************************************************* //
