/*--------------------------------*- C++ -*----------------------------------*\
| =========                 |                                                 |
| \\      /  F ield         | foam-extend: Open Source CFD                    |
|  \\    /   O peration     | Version:     5.0                                |
|   \\  /    A nd           | Web:         http://www.foam-extend.org         |
|    \\/     M anipulation  |                                                 |
\*---------------------------------------------------------------------------*/
FoamFile
{
    version     2.0;
    format      ascii;
    class       volScalarField;
    location    "3";
    object      Cl.water;
}
// * * * * * * * * * * * * * * * * * * * * * * * * * * * * * * * * * * * * * //

dimensions      [0 0 0 0 0 0 0];

internalField   nonuniform List<scalar> 
100
(
0.00618383
0.00801999
0.00947049
0.0104006
0.0111124
0.0117003
0.0121646
0.0126122
0.0130092
0.0133546
0.0136779
0.0139535
0.0142387
0.0145146
0.0147593
0.0149999
0.0152344
0.0154546
0.0156721
0.0159004
0.016124
0.0164081
0.0166814
0.0169981
0.0173976
0.0180041
0.0190369
0.0213197
0.0203837
0.0206196
0.0207345
0.020787
0.0208334
0.0208745
0.0209346
0.0209576
0.0209946
0.0210036
0.0210362
0.0210566
0.0210812
0.0211038
0.02116
0.0212214
0.0212728
0.0213785
0.0214761
0.0216164
0.0217385
0.021924
0.0220992
0.0222846
0.0224624
0.0226103
0.0227116
0.0228149
0.0228764
0.0229224
0.0229453
0.0229739
0.0230088
0.0230102
0.0230066
0.0230081
0.0230035
0.0229993
0.0229918
0.0229977
0.0229864
0.0229907
0.0229995
0.0230111
0.0230073
0.0230102
0.0230168
0.0230045
0.0229935
0.0229869
0.0229944
0.0229903
0.022968
0.022966
0.0229667
0.022975
0.0229624
0.0229767
0.0229809
0.0229741
0.0229669
0.0229766
0.0230006
0.0229824
0.0229914
0.022974
0.0229782
0.0229784
0.0229872
0.0229988
0.0229878
0.022986
)
;

boundaryField
{
    inlet
    {
        type            fixedValue;
        value           uniform 0;
    }
    outlet
    {
        type            zeroGradient;
    }
    yzfaces
    {
        type            empty;
    }
}


// ************************************************************************* //
