/*--------------------------------*- C++ -*----------------------------------*\
| =========                 |                                                 |
| \\      /  F ield         | foam-extend: Open Source CFD                    |
|  \\    /   O peration     | Version:     5.0                                |
|   \\  /    A nd           | Web:         http://www.foam-extend.org         |
|    \\/     M anipulation  |                                                 |
\*---------------------------------------------------------------------------*/
FoamFile
{
    version     2.0;
    format      ascii;
    class       surfaceScalarField;
    location    "3";
    object      phi;
}
// * * * * * * * * * * * * * * * * * * * * * * * * * * * * * * * * * * * * * //

dimensions      [0 3 -1 0 0 0 0];

internalField   nonuniform List<scalar> 
99
(
1.21983e-06
1.21658e-06
1.21404e-06
1.20475e-06
1.19816e-06
1.19894e-06
1.19934e-06
1.19482e-06
1.19699e-06
1.19609e-06
1.19566e-06
1.19538e-06
1.193e-06
1.19471e-06
1.19676e-06
1.19655e-06
1.20142e-06
1.19944e-06
1.1977e-06
1.19661e-06
1.20228e-06
1.20316e-06
1.20396e-06
1.20194e-06
1.20151e-06
1.20162e-06
1.19982e-06
1.20214e-06
1.20296e-06
1.20414e-06
1.20316e-06
1.20309e-06
1.20416e-06
1.20314e-06
1.20465e-06
1.20347e-06
1.20329e-06
1.20153e-06
1.20105e-06
1.20126e-06
1.20271e-06
1.20417e-06
1.20443e-06
1.20383e-06
1.2053e-06
1.20305e-06
1.20224e-06
1.20101e-06
1.202e-06
1.20265e-06
1.20077e-06
1.20168e-06
1.2009e-06
1.19891e-06
1.19935e-06
1.19944e-06
1.19845e-06
1.19668e-06
1.19772e-06
1.19971e-06
1.19827e-06
1.19635e-06
1.19604e-06
1.19577e-06
1.19499e-06
1.19611e-06
1.19602e-06
1.19611e-06
1.19729e-06
1.19509e-06
1.19629e-06
1.19694e-06
1.1965e-06
1.19631e-06
1.19437e-06
1.19471e-06
1.19391e-06
1.19331e-06
1.19127e-06
1.19141e-06
1.19182e-06
1.1917e-06
1.19192e-06
1.19159e-06
1.19332e-06
1.19255e-06
1.19348e-06
1.1936e-06
1.19614e-06
1.1977e-06
1.19639e-06
1.19652e-06
1.19688e-06
1.1974e-06
1.19684e-06
1.19735e-06
1.19645e-06
1.19659e-06
1.19755e-06
)
;

boundaryField
{
    inlet
    {
        type            calculated;
        value           uniform -1.225e-06;
    }
    outlet
    {
        type            calculated;
        value           uniform 1.19702e-06;
    }
    yzfaces
    {
        type            empty;
    }
}


// ************************************************************************* //
