/*--------------------------------*- C++ -*----------------------------------*\
| =========                 |                                                 |
| \\      /  F ield         | foam-extend: Open Source CFD                    |
|  \\    /   O peration     | Version:     5.0                                |
|   \\  /    A nd           | Web:         http://www.foam-extend.org         |
|    \\/     M anipulation  |                                                 |
\*---------------------------------------------------------------------------*/
FoamFile
{
    version     2.0;
    format      ascii;
    class       volVectorField;
    location    "3";
    object      U.water;
}
// * * * * * * * * * * * * * * * * * * * * * * * * * * * * * * * * * * * * * //

dimensions      [0 1 -1 0 0 0 0];

internalField   nonuniform List<vector> 
100
(
(7.10249e-05 0 0)
(0.000170141 0 0)
(0.000262284 0 0)
(0.00035337 0 0)
(0.00043288 0 0)
(0.000510197 0 0)
(0.000584052 0 0)
(0.00065605 0 0)
(0.000728437 0 0)
(0.000795237 0 0)
(0.00085903 0 0)
(0.000926318 0 0)
(0.000996695 0 0)
(0.00106715 0 0)
(0.00114033 0 0)
(0.00121581 0 0)
(0.00129218 0 0)
(0.00136785 0 0)
(0.00144103 0 0)
(0.00152071 0 0)
(0.00161767 0 0)
(0.00172923 0 0)
(0.00184722 0 0)
(0.0019896 0 0)
(0.00217528 0 0)
(0.0024532 0 0)
(0.00295359 0 0)
(0.00348032 0 0)
(0.00368347 0 0)
(0.0037758 0 0)
(0.00382687 0 0)
(0.00386195 0 0)
(0.00389518 0 0)
(0.00392386 0 0)
(0.00395067 0 0)
(0.00397344 0 0)
(0.0039904 0 0)
(0.00400432 0 0)
(0.00401642 0 0)
(0.00403174 0 0)
(0.00405228 0 0)
(0.00407761 0 0)
(0.00410491 0 0)
(0.00413422 0 0)
(0.00417255 0 0)
(0.00421641 0 0)
(0.00426563 0 0)
(0.00432654 0 0)
(0.00439964 0 0)
(0.00448318 0 0)
(0.00456414 0 0)
(0.00464347 0 0)
(0.00471726 0 0)
(0.00477319 0 0)
(0.00481754 0 0)
(0.00485267 0 0)
(0.00487382 0 0)
(0.00488301 0 0)
(0.00489072 0 0)
(0.00490248 0 0)
(0.00490698 0 0)
(0.00490216 0 0)
(0.00489876 0 0)
(0.00489827 0 0)
(0.00489656 0 0)
(0.00489755 0 0)
(0.00489978 0 0)
(0.00489989 0 0)
(0.00490254 0 0)
(0.00490041 0 0)
(0.00489836 0 0)
(0.00490218 0 0)
(0.00490264 0 0)
(0.00490139 0 0)
(0.00489697 0 0)
(0.00489378 0 0)
(0.00489286 0 0)
(0.00489001 0 0)
(0.00488459 0 0)
(0.00488064 0 0)
(0.00488173 0 0)
(0.00488228 0 0)
(0.00488252 0 0)
(0.00488233 0 0)
(0.00488521 0 0)
(0.0048872 0 0)
(0.00488755 0 0)
(0.00488969 0 0)
(0.00489514 0 0)
(0.00490352 0 0)
(0.00490405 0 0)
(0.0049016 0 0)
(0.00490247 0 0)
(0.00490427 0 0)
(0.00490425 0 0)
(0.00490414 0 0)
(0.00490333 0 0)
(0.00490178 0 0)
(0.00490407 0 0)
(0.00490511 0 0)
)
;

boundaryField
{
    inlet
    {
        type            fixedValue;
        value           uniform (0 0 0);
    }
    outlet
    {
        type            zeroGradient;
    }
    yzfaces
    {
        type            empty;
    }
}


// ************************************************************************* //
