/*--------------------------------*- C++ -*----------------------------------*\
| =========                 |                                                 |
| \\      /  F ield         | foam-extend: Open Source CFD                    |
|  \\    /   O peration     | Version:     5.0                                |
|   \\  /    A nd           | Web:         http://www.foam-extend.org         |
|    \\/     M anipulation  |                                                 |
\*---------------------------------------------------------------------------*/
FoamFile
{
    version     2.0;
    format      ascii;
    class       volScalarField;
    location    "3";
    object      alpha.gas;
}
// * * * * * * * * * * * * * * * * * * * * * * * * * * * * * * * * * * * * * //

dimensions      [0 0 0 0 0 0 0];

internalField   nonuniform List<scalar> 
100
(
0.144551
0.12811
0.117495
0.109525
0.103433
0.0987654
0.0945693
0.0910404
0.0880356
0.0854992
0.0826221
0.080278
0.0778573
0.0758951
0.0739394
0.0719732
0.0703597
0.0687289
0.0671256
0.0656699
0.0642302
0.0629255
0.0616777
0.0606089
0.0593761
0.0581908
0.0570959
0.0559855
0.0549094
0.0538043
0.0527691
0.0517627
0.0507362
0.0496215
0.0486301
0.0476841
0.0466678
0.0457152
0.0446947
0.0436811
0.0426445
0.0415895
0.0404952
0.0393841
0.0382199
0.0370371
0.0357912
0.0344722
0.0330675
0.0315809
0.0299749
0.0282754
0.0264554
0.0244953
0.0224456
0.0203437
0.0182464
0.0162704
0.0145188
0.0130862
0.0120024
0.011245
0.0107521
0.0104436
0.0102575
0.0101485
0.0100841
0.0100468
0.0100256
0.0100144
0.0100072
0.0100021
0.00999866
0.0100002
0.00999945
0.00999938
0.00999998
0.00999799
0.00999975
0.0100019
0.0100022
0.0100045
0.0100032
0.0100023
0.0100007
0.00999953
0.0100002
0.0100013
0.010002
0.0100023
0.0100027
0.0100026
0.0100023
0.0100027
0.0100025
0.0100025
0.0100012
0.0100005
0.00999992
0.0100037
)
;

boundaryField
{
    inlet
    {
        type            fixedValue;
        value           uniform 0.2;
    }
    outlet
    {
        type            zeroGradient;
    }
    yzfaces
    {
        type            empty;
    }
}


// ************************************************************************* //
