/*--------------------------------*- C++ -*----------------------------------*\
| =========                 |                                                 |
| \\      /  F ield         | foam-extend: Open Source CFD                    |
|  \\    /   O peration     | Version:     5.0                                |
|   \\  /    A nd           | Web:         http://www.foam-extend.org         |
|    \\/     M anipulation  |                                                 |
\*---------------------------------------------------------------------------*/
FoamFile
{
    version     2.0;
    format      ascii;
    class       volScalarField;
    location    "3";
    object      Cl.water;
}
// * * * * * * * * * * * * * * * * * * * * * * * * * * * * * * * * * * * * * //

dimensions      [0 0 0 0 0 0 0];

internalField   nonuniform List<scalar> 
100
(
0.0116261
0.0150526
0.0172053
0.0188947
0.0202304
0.0213025
0.0221958
0.022944
0.0236535
0.0242055
0.0247636
0.025234
0.0257023
0.026168
0.0265822
0.0269137
0.0273577
0.0276851
0.0279825
0.0283012
0.0285989
0.0288571
0.0291534
0.0293844
0.0295767
0.0298597
0.0301331
0.0303384
0.0305704
0.0307549
0.0309781
0.0312265
0.0314176
0.0316397
0.0319034
0.0320787
0.032301
0.0325096
0.0326973
0.0329249
0.0330929
0.033336
0.0335613
0.0338098
0.0340368
0.0342883
0.0345526
0.0348156
0.0351098
0.0354602
0.035776
0.0361424
0.0365295
0.0369278
0.0373896
0.0378621
0.0382703
0.0387015
0.0390685
0.0393482
0.0395625
0.0397137
0.039843
0.0399235
0.0399662
0.0399936
0.0399836
0.0399891
0.0400175
0.0400024
0.0399641
0.0399973
0.0399986
0.0399996
0.0399947
0.0399552
0.0399761
0.0400017
0.0399569
0.0399749
0.0399453
0.0399808
0.04001
0.0399828
0.0399928
0.0400013
0.0399776
0.0399868
0.0399589
0.0399775
0.040018
0.0400289
0.0400037
0.0400251
0.040012
0.0400212
0.0400079
0.0400058
0.0399982
0.0400135
)
;

boundaryField
{
    inlet
    {
        type            fixedValue;
        value           uniform 0;
    }
    outlet
    {
        type            zeroGradient;
    }
    yzfaces
    {
        type            empty;
    }
}


// ************************************************************************* //
