/*--------------------------------*- C++ -*----------------------------------*\
| =========                 |                                                 |
| \\      /  F ield         | foam-extend: Open Source CFD                    |
|  \\    /   O peration     | Version:     5.0                                |
|   \\  /    A nd           | Web:         http://www.foam-extend.org         |
|    \\/     M anipulation  |                                                 |
\*---------------------------------------------------------------------------*/
FoamFile
{
    version     2.0;
    format      ascii;
    class       volScalarField;
    location    "3";
    object      H2O.water;
}
// * * * * * * * * * * * * * * * * * * * * * * * * * * * * * * * * * * * * * //

dimensions      [0 0 0 0 0 0 0];

internalField   nonuniform List<scalar> 
100
(
0.0319764
0.0414008
0.0473347
0.0519668
0.0555896
0.058576
0.0610502
0.0631271
0.0650905
0.0666146
0.0681117
0.0694193
0.0706797
0.0719916
0.0730944
0.0740094
0.0752063
0.0760789
0.0769093
0.0777789
0.0786048
0.0793704
0.0801944
0.0808503
0.0813753
0.0821678
0.0829063
0.0834743
0.0840985
0.0846023
0.085225
0.0858737
0.0864374
0.0870171
0.0877327
0.0881962
0.0887901
0.0893543
0.0899137
0.0905489
0.0910256
0.0916793
0.0922984
0.0929725
0.0936263
0.0943035
0.0950135
0.0957231
0.0965303
0.0975194
0.0984337
0.0994358
0.100499
0.101577
0.102814
0.104129
0.10528
0.10645
0.107491
0.108243
0.108828
0.10922
0.109587
0.10977
0.109904
0.109996
0.10996
0.109971
0.110027
0.109986
0.109928
0.11001
0.110023
0.110009
0.110032
0.109948
0.110002
0.110088
0.109971
0.110002
0.109941
0.110017
0.110122
0.110038
0.110044
0.110013
0.109922
0.109918
0.109869
0.109889
0.110019
0.110042
0.109963
0.109996
0.10998
0.110064
0.11003
0.109987
0.109977
0.110024
)
;

boundaryField
{
    inlet
    {
        type            fixedValue;
        value           uniform 0;
    }
    outlet
    {
        type            zeroGradient;
    }
    yzfaces
    {
        type            empty;
    }
}


// ************************************************************************* //
