/*--------------------------------*- C++ -*----------------------------------*\
| =========                 |                                                 |
| \\      /  F ield         | foam-extend: Open Source CFD                    |
|  \\    /   O peration     | Version:     5.0                                |
|   \\  /    A nd           | Web:         http://www.foam-extend.org         |
|    \\/     M anipulation  |                                                 |
\*---------------------------------------------------------------------------*/
FoamFile
{
    version     2.0;
    format      ascii;
    class       volScalarField;
    location    "3";
    object      H2O.gas;
}
// * * * * * * * * * * * * * * * * * * * * * * * * * * * * * * * * * * * * * //

dimensions      [0 0 0 0 0 0 0];

internalField   nonuniform List<scalar> 
100
(
3.21226e-11
2.16338e-10
9.0112e-10
3.01362e-09
8.75942e-09
2.29515e-08
5.48397e-08
1.22117e-07
2.57813e-07
5.14383e-07
9.79717e-07
1.79486e-06
3.1628e-06
5.44877e-06
9.10482e-06
1.47408e-05
2.35402e-05
3.65057e-05
5.54939e-05
8.28262e-05
0.000121332
0.000174841
0.000248146
0.000346792
0.000474919
0.000643835
0.000861596
0.00113385
0.00147233
0.00188361
0.00238225
0.00298078
0.00367784
0.00448064
0.00541379
0.00645409
0.0076031
0.00886657
0.0102119
0.0116436
0.0130976
0.014609
0.0161103
0.0175979
0.0189873
0.0202805
0.021421
0.0223482
0.0230539
0.0235236
0.0236405
0.0234526
0.02292
0.0220037
0.0207998
0.0193391
0.0176643
0.0159723
0.0143858
0.0130277
0.0119772
0.011232
0.0107527
0.0104477
0.0102631
0.0101557
0.010084
0.0100457
0.0100301
0.0100138
0.0099997
0.0100017
0.00999947
0.0100009
0.010001
0.00999193
0.00999759
0.0100031
0.00999461
0.010001
0.00999485
0.0100054
0.0100124
0.0100043
0.0100033
0.0100002
0.00999285
0.00999448
0.00999051
0.00999409
0.0100058
0.010008
0.0100002
0.0100056
0.010004
0.0100108
0.0100057
0.0100013
0.00999918
0.0100086
)
;

boundaryField
{
    inlet
    {
        type            fixedValue;
        value           uniform 0;
    }
    outlet
    {
        type            zeroGradient;
    }
    yzfaces
    {
        type            empty;
    }
}


// ************************************************************************* //
