/*--------------------------------*- C++ -*----------------------------------*\
| =========                 |                                                 |
| \\      /  F ield         | foam-extend: Open Source CFD                    |
|  \\    /   O peration     | Version:     5.0                                |
|   \\  /    A nd           | Web:         http://www.foam-extend.org         |
|    \\/     M anipulation  |                                                 |
\*---------------------------------------------------------------------------*/
FoamFile
{
    version     2.0;
    format      ascii;
    class       volScalarField;
    location    "3";
    object      Na.water;
}
// * * * * * * * * * * * * * * * * * * * * * * * * * * * * * * * * * * * * * //

dimensions      [0 0 0 0 0 0 0];

internalField   nonuniform List<scalar> 
100
(
0.0116279
0.0150517
0.0172148
0.0189044
0.0202275
0.0212888
0.0222082
0.0229619
0.0236781
0.0242165
0.0247637
0.0252339
0.0256929
0.0261722
0.0265772
0.0269053
0.0273462
0.0276687
0.0279696
0.0282829
0.0285738
0.0288484
0.029149
0.0293801
0.0295753
0.02987
0.0301343
0.0303469
0.0305681
0.0307579
0.0309836
0.0312277
0.031419
0.0316404
0.0319097
0.0320764
0.0322958
0.0324856
0.0326928
0.0329168
0.0330802
0.0333233
0.0335474
0.0337979
0.0340256
0.0342651
0.0345352
0.0347979
0.0350949
0.0354543
0.0357812
0.0361495
0.0365457
0.0369334
0.03739
0.0378737
0.0382919
0.0387109
0.0390908
0.039368
0.0395762
0.0397358
0.0398709
0.03995
0.0399787
0.0399969
0.0399712
0.0399721
0.0400148
0.0399858
0.0399594
0.0399846
0.0399952
0.0400064
0.040004
0.0399563
0.0399762
0.0400093
0.0399743
0.040003
0.0399727
0.040016
0.0400404
0.0400138
0.0400133
0.0399978
0.0399597
0.0399638
0.0399511
0.0399759
0.0400188
0.0400289
0.0399925
0.040031
0.0400328
0.04007
0.040047
0.040023
0.0400113
0.0400529
)
;

boundaryField
{
    inlet
    {
        type            fixedValue;
        value           uniform 0;
    }
    outlet
    {
        type            zeroGradient;
    }
    yzfaces
    {
        type            empty;
    }
}


// ************************************************************************* //
