/*--------------------------------*- C++ -*----------------------------------*\
| =========                 |                                                 |
| \\      /  F ield         | foam-extend: Open Source CFD                    |
|  \\    /   O peration     | Version:     5.0                                |
|   \\  /    A nd           | Web:         http://www.foam-extend.org         |
|    \\/     M anipulation  |                                                 |
\*---------------------------------------------------------------------------*/
FoamFile
{
    version     2.0;
    format      ascii;
    class       surfaceScalarField;
    location    "3";
    object      phi;
}
// * * * * * * * * * * * * * * * * * * * * * * * * * * * * * * * * * * * * * //

dimensions      [0 3 -1 0 0 0 0];

internalField   nonuniform List<scalar> 
99
(
1.22078e-06
1.2314e-06
1.22628e-06
1.22839e-06
1.23186e-06
1.22629e-06
1.23155e-06
1.2309e-06
1.23233e-06
1.22507e-06
1.22565e-06
1.22315e-06
1.22294e-06
1.22349e-06
1.22211e-06
1.22425e-06
1.22386e-06
1.22203e-06
1.21981e-06
1.22134e-06
1.22421e-06
1.22743e-06
1.23209e-06
1.22475e-06
1.22275e-06
1.22382e-06
1.2248e-06
1.22357e-06
1.22263e-06
1.22256e-06
1.22406e-06
1.22345e-06
1.22018e-06
1.22416e-06
1.22496e-06
1.22059e-06
1.22402e-06
1.22152e-06
1.22155e-06
1.2194e-06
1.21962e-06
1.22071e-06
1.2195e-06
1.21899e-06
1.21956e-06
1.21895e-06
1.21805e-06
1.21728e-06
1.21921e-06
1.21822e-06
1.22046e-06
1.21901e-06
1.21865e-06
1.22041e-06
1.22118e-06
1.21961e-06
1.22045e-06
1.22002e-06
1.21961e-06
1.21786e-06
1.21723e-06
1.21952e-06
1.21879e-06
1.22047e-06
1.21836e-06
1.21903e-06
1.21769e-06
1.2203e-06
1.21947e-06
1.21871e-06
1.22025e-06
1.22037e-06
1.22024e-06
1.2199e-06
1.21973e-06
1.22217e-06
1.22369e-06
1.22376e-06
1.22482e-06
1.22313e-06
1.22273e-06
1.22244e-06
1.22217e-06
1.22421e-06
1.22282e-06
1.22291e-06
1.22326e-06
1.22391e-06
1.2247e-06
1.22467e-06
1.22508e-06
1.22415e-06
1.22583e-06
1.22459e-06
1.22742e-06
1.22799e-06
1.22857e-06
1.22778e-06
1.22877e-06
)
;

boundaryField
{
    inlet
    {
        type            calculated;
        value           uniform -1.225e-06;
    }
    outlet
    {
        type            calculated;
        value           uniform 1.22931e-06;
    }
    yzfaces
    {
        type            empty;
    }
}


// ************************************************************************* //
