/*--------------------------------*- C++ -*----------------------------------*\
| =========                 |                                                 |
| \\      /  F ield         | foam-extend: Open Source CFD                    |
|  \\    /   O peration     | Version:     5.0                                |
|   \\  /    A nd           | Web:         http://www.foam-extend.org         |
|    \\/     M anipulation  |                                                 |
\*---------------------------------------------------------------------------*/
FoamFile
{
    version     2.0;
    format      ascii;
    class       surfaceScalarField;
    location    "3";
    object      phi.water;
}
// * * * * * * * * * * * * * * * * * * * * * * * * * * * * * * * * * * * * * //

dimensions      [0 3 -1 0 0 0 0];

internalField   nonuniform List<scalar> 
99
(
1.59828e-07
2.82375e-07
3.89286e-07
4.93373e-07
5.89657e-07
6.68864e-07
7.56217e-07
8.36761e-07
9.11964e-07
9.73866e-07
1.06213e-06
1.13443e-06
1.21672e-06
1.28747e-06
1.36385e-06
1.44745e-06
1.51532e-06
1.58722e-06
1.66244e-06
1.73696e-06
1.81679e-06
1.89021e-06
1.96899e-06
2.02021e-06
2.09332e-06
2.16622e-06
2.23776e-06
2.31076e-06
2.38374e-06
2.46373e-06
2.54003e-06
2.61287e-06
2.68604e-06
2.78119e-06
2.86261e-06
2.93004e-06
3.02518e-06
3.09997e-06
3.18953e-06
3.2756e-06
3.37187e-06
3.47153e-06
3.57191e-06
3.67546e-06
3.79129e-06
3.90621e-06
4.02745e-06
4.15733e-06
4.30394e-06
4.44731e-06
4.61751e-06
4.77967e-06
4.95655e-06
5.1485e-06
5.33289e-06
5.50219e-06
5.66882e-06
5.80239e-06
5.90907e-06
5.98052e-06
6.03104e-06
6.07345e-06
6.0867e-06
6.106e-06
6.10135e-06
6.11033e-06
6.10833e-06
6.12143e-06
6.11788e-06
6.11803e-06
6.12598e-06
6.12424e-06
6.12336e-06
6.12136e-06
6.12291e-06
6.13652e-06
6.14026e-06
6.14153e-06
6.14869e-06
6.14075e-06
6.13821e-06
6.13148e-06
6.12993e-06
6.14219e-06
6.13557e-06
6.13925e-06
6.14336e-06
6.14783e-06
6.15216e-06
6.14752e-06
6.14533e-06
6.14226e-06
6.1515e-06
6.14415e-06
6.15674e-06
6.15854e-06
6.16392e-06
6.16154e-06
6.16526e-06
)
;

boundaryField
{
    inlet
    {
        type            fixedValue;
        value           uniform 0;
    }
    outlet
    {
        type            calculated;
        value           uniform 6.16617e-06;
    }
    yzfaces
    {
        type            empty;
    }
}


// ************************************************************************* //
