/*--------------------------------*- C++ -*----------------------------------*\
| =========                 |                                                 |
| \\      /  F ield         | foam-extend: Open Source CFD                    |
|  \\    /   O peration     | Version:     5.0                                |
|   \\  /    A nd           | Web:         http://www.foam-extend.org         |
|    \\/     M anipulation  |                                                 |
\*---------------------------------------------------------------------------*/
FoamFile
{
    version     2.0;
    format      ascii;
    class       volVectorField;
    location    "3";
    object      U.gas;
}
// * * * * * * * * * * * * * * * * * * * * * * * * * * * * * * * * * * * * * //

dimensions      [0 1 -1 0 0 0 0];

internalField   nonuniform List<vector> 
100
(
(0.00687746 0 0)
(0.00771156 0 0)
(0.00834651 0 0)
(0.00885252 0 0)
(0.00929819 0 0)
(0.00963284 0 0)
(0.00995984 0 0)
(0.010261 0 0)
(0.01051 0 0)
(0.0106954 0 0)
(0.010924 0 0)
(0.0111115 0 0)
(0.0113182 0 0)
(0.0114831 0 0)
(0.0116534 0 0)
(0.0118331 0 0)
(0.011971 0 0)
(0.012104 0 0)
(0.0122219 0 0)
(0.0123339 0 0)
(0.0124747 0 0)
(0.0126053 0 0)
(0.0127409 0 0)
(0.0127958 0 0)
(0.0128473 0 0)
(0.0129216 0 0)
(0.012999 0 0)
(0.0130684 0 0)
(0.0131169 0 0)
(0.0131742 0 0)
(0.0132267 0 0)
(0.0132741 0 0)
(0.0132941 0 0)
(0.013344 0 0)
(0.0133823 0 0)
(0.0133761 0 0)
(0.0133923 0 0)
(0.0133935 0 0)
(0.0133882 0 0)
(0.0133647 0 0)
(0.0133372 0 0)
(0.013316 0 0)
(0.0132764 0 0)
(0.0132113 0 0)
(0.0131472 0 0)
(0.0130559 0 0)
(0.0129438 0 0)
(0.0128073 0 0)
(0.0126513 0 0)
(0.0124541 0 0)
(0.0122169 0 0)
(0.0119135 0 0)
(0.0115326 0 0)
(0.0110862 0 0)
(0.0105408 0 0)
(0.00988214 0 0)
(0.00913599 0 0)
(0.00832591 0 0)
(0.00749808 0 0)
(0.00671997 0 0)
(0.00606008 0 0)
(0.00556069 0 0)
(0.00521044 0 0)
(0.00497968 0 0)
(0.00483438 0 0)
(0.00474502 0 0)
(0.00469297 0 0)
(0.00466519 0 0)
(0.00465064 0 0)
(0.00463807 0 0)
(0.0046342 0 0)
(0.00463321 0 0)
(0.00463095 0 0)
(0.00462859 0 0)
(0.00462924 0 0)
(0.00463363 0 0)
(0.00464019 0 0)
(0.00464358 0 0)
(0.00464487 0 0)
(0.00464453 0 0)
(0.00464182 0 0)
(0.00464082 0 0)
(0.00464088 0 0)
(0.00464306 0 0)
(0.00464434 0 0)
(0.00464134 0 0)
(0.00464085 0 0)
(0.00464283 0 0)
(0.00464626 0 0)
(0.00464828 0 0)
(0.00464945 0 0)
(0.00464889 0 0)
(0.00464999 0 0)
(0.00465059 0 0)
(0.00465358 0 0)
(0.0046602 0 0)
(0.00466231 0 0)
(0.00466115 0 0)
(0.00466205 0 0)
(0.00466408 0 0)
)
;

boundaryField
{
    inlet
    {
        type            fixedValue;
        value           uniform (0.005 0 0);
    }
    outlet
    {
        type            zeroGradient;
    }
    yzfaces
    {
        type            empty;
    }
}


// ************************************************************************* //
