/*--------------------------------*- C++ -*----------------------------------*\
| =========                 |                                                 |
| \\      /  F ield         | foam-extend: Open Source CFD                    |
|  \\    /   O peration     | Version:     5.0                                |
|   \\  /    A nd           | Web:         http://www.foam-extend.org         |
|    \\/     M anipulation  |                                                 |
\*---------------------------------------------------------------------------*/
FoamFile
{
    version     2.0;
    format      ascii;
    class       volVectorField;
    location    "3";
    object      U.water;
}
// * * * * * * * * * * * * * * * * * * * * * * * * * * * * * * * * * * * * * //

dimensions      [0 1 -1 0 0 0 0];

internalField   nonuniform List<vector> 
100
(
(7.45522e-05 0 0)
(0.000180356 0 0)
(0.000272211 0 0)
(0.000357401 0 0)
(0.000439506 0 0)
(0.000513034 0 0)
(0.000581484 0 0)
(0.000650875 0 0)
(0.00071586 0 0)
(0.000773596 0 0)
(0.000832614 0 0)
(0.000897954 0 0)
(0.000959561 0 0)
(0.00102354 0 0)
(0.0010833 0 0)
(0.00114707 0 0)
(0.0012107 0 0)
(0.00126784 0 0)
(0.00132661 0 0)
(0.00138779 0 0)
(0.00145045 0 0)
(0.00151357 0 0)
(0.00157646 0 0)
(0.00163034 0 0)
(0.00167933 0 0)
(0.00173952 0 0)
(0.00180013 0 0)
(0.00185881 0 0)
(0.0019175 0 0)
(0.00197823 0 0)
(0.00204209 0 0)
(0.00210392 0 0)
(0.00216335 0 0)
(0.0022313 0 0)
(0.0023047 0 0)
(0.00236587 0 0)
(0.00243141 0 0)
(0.00250118 0 0)
(0.00256779 0 0)
(0.00263897 0 0)
(0.0027121 0 0)
(0.00279178 0 0)
(0.00287372 0 0)
(0.0029573 0 0)
(0.00304638 0 0)
(0.00314034 0 0)
(0.00323625 0 0)
(0.0033379 0 0)
(0.00345133 0 0)
(0.00357178 0 0)
(0.0037005 0 0)
(0.00383661 0 0)
(0.00397513 0 0)
(0.00412511 0 0)
(0.00428023 0 0)
(0.00442622 0 0)
(0.00456246 0 0)
(0.00468431 0 0)
(0.00478164 0 0)
(0.00485221 0 0)
(0.00489994 0 0)
(0.00493794 0 0)
(0.00496284 0 0)
(0.00497801 0 0)
(0.00498494 0 0)
(0.00498653 0 0)
(0.00498776 0 0)
(0.0049919 0 0)
(0.00499647 0 0)
(0.0049937 0 0)
(0.00499556 0 0)
(0.00499917 0 0)
(0.00499925 0 0)
(0.00499835 0 0)
(0.00499722 0 0)
(0.00500188 0 0)
(0.00501006 0 0)
(0.00501329 0 0)
(0.00501565 0 0)
(0.00501431 0 0)
(0.00500997 0 0)
(0.00500854 0 0)
(0.00500733 0 0)
(0.00501102 0 0)
(0.00501233 0 0)
(0.00500969 0 0)
(0.00501068 0 0)
(0.00501273 0 0)
(0.00501563 0 0)
(0.00501716 0 0)
(0.00501791 0 0)
(0.00501682 0 0)
(0.00501838 0 0)
(0.00501929 0 0)
(0.00502254 0 0)
(0.00502949 0 0)
(0.00503186 0 0)
(0.00503149 0 0)
(0.00503186 0 0)
(0.00503503 0 0)
)
;

boundaryField
{
    inlet
    {
        type            fixedValue;
        value           uniform (0 0 0);
    }
    outlet
    {
        type            zeroGradient;
    }
    yzfaces
    {
        type            empty;
    }
}


// ************************************************************************* //
