/*--------------------------------*- C++ -*----------------------------------*\
| =========                 |                                                 |
| \\      /  F ield         | foam-extend: Open Source CFD                    |
|  \\    /   O peration     | Version:     5.0                                |
|   \\  /    A nd           | Web:         http://www.foam-extend.org         |
|    \\/     M anipulation  |                                                 |
\*---------------------------------------------------------------------------*/
FoamFile
{
    version     2.0;
    format      ascii;
    class       volScalarField;
    location    "8";
    object      Cl.water;
}
// * * * * * * * * * * * * * * * * * * * * * * * * * * * * * * * * * * * * * //

dimensions      [0 0 0 0 0 0 0];

internalField   nonuniform List<scalar> 
100
(
0.000314769
0.00186298
0.00759755
0.00753243
0.00788313
0.00724484
0.00766681
0.0086077
0.00906122
0.00901125
0.0098456
0.00990247
0.00983442
0.0102125
0.0105472
0.0109575
0.0116258
0.0119844
0.012681
0.0136185
0.0138086
0.0139551
0.0145965
0.0144465
0.0149016
0.0150619
0.0155034
0.0155416
0.0157637
0.0160783
0.0165147
0.0169585
0.017215
0.0174127
0.0175246
0.0176806
0.0177751
0.0180459
0.0182889
0.018541
0.0188851
0.0192366
0.0196079
0.0198199
0.0200437
0.0201236
0.0203544
0.020601
0.0207441
0.0209079
0.021151
0.0213771
0.0215943
0.0218136
0.0221178
0.0223001
0.0225746
0.0228402
0.0231149
0.0234152
0.0236697
0.0239837
0.0243051
0.024608
0.0249392
0.0252994
0.0256821
0.0260248
0.0264492
0.0269875
0.0275712
0.0281524
0.0288641
0.0297841
0.0310543
0.0331324
0.0374865
0.0369566
0.0367511
0.0366801
0.036639
0.0366408
0.0366456
0.0366152
0.036595
0.0365578
0.0365206
0.0364916
0.0364757
0.0364261
0.0363929
0.0363764
0.0363596
0.0363414
0.0363129
0.0362874
0.0362646
0.0362342
0.0362111
0.0362175
)
;

boundaryField
{
    inlet
    {
        type            fixedValue;
        value           uniform 0;
    }
    outlet
    {
        type            zeroGradient;
    }
    yzfaces
    {
        type            empty;
    }
}


// ************************************************************************* //
