/*--------------------------------*- C++ -*----------------------------------*\
| =========                 |                                                 |
| \\      /  F ield         | foam-extend: Open Source CFD                    |
|  \\    /   O peration     | Version:     5.0                                |
|   \\  /    A nd           | Web:         http://www.foam-extend.org         |
|    \\/     M anipulation  |                                                 |
\*---------------------------------------------------------------------------*/
FoamFile
{
    version     2.0;
    format      ascii;
    class       volScalarField;
    location    "8";
    object      CO2.water;
}
// * * * * * * * * * * * * * * * * * * * * * * * * * * * * * * * * * * * * * //

dimensions      [0 0 0 0 0 0 0];

internalField   nonuniform List<scalar> 
100
(
4.40349e-05
0.000240018
0.00116647
0.00104296
0.00105247
0.000917799
0.000974398
0.00110978
0.00114267
0.00111818
0.00124529
0.00124263
0.00121539
0.00126243
0.00131165
0.00135403
0.00144377
0.00149047
0.00158627
0.00173584
0.00175397
0.00174115
0.00184474
0.00181515
0.00190309
0.00192003
0.00199874
0.0019872
0.00202066
0.00205636
0.00212766
0.00217514
0.00220766
0.00224557
0.00224594
0.00225653
0.00229412
0.00231601
0.00234104
0.00238627
0.00245494
0.00250169
0.00255181
0.00256915
0.00257886
0.00260537
0.00262348
0.00265608
0.00266993
0.00268305
0.00271308
0.00274705
0.00277863
0.00280478
0.00283815
0.00286332
0.00290232
0.00293494
0.00297
0.00301143
0.00303559
0.00307335
0.00311293
0.00315877
0.00320848
0.00324852
0.00329124
0.00333997
0.00340173
0.00346746
0.00353263
0.00360454
0.0037047
0.0038231
0.00398333
0.00424991
0.00480724
0.00117778
0.000306788
8.62277e-05
2.53954e-05
7.63238e-06
2.30931e-06
6.98708e-07
2.11396e-07
6.39029e-08
1.93208e-08
5.83673e-09
1.7603e-09
5.29463e-10
1.59019e-10
4.77568e-11
1.43701e-11
4.3382e-12
1.31878e-12
4.05438e-13
1.26645e-13
4.03082e-14
1.31391e-14
4.25573e-15
)
;

boundaryField
{
    inlet
    {
        type            fixedValue;
        value           uniform 0;
    }
    outlet
    {
        type            zeroGradient;
    }
    yzfaces
    {
        type            empty;
    }
}


// ************************************************************************* //
