/*--------------------------------*- C++ -*----------------------------------*\
| =========                 |                                                 |
| \\      /  F ield         | foam-extend: Open Source CFD                    |
|  \\    /   O peration     | Version:     5.0                                |
|   \\  /    A nd           | Web:         http://www.foam-extend.org         |
|    \\/     M anipulation  |                                                 |
\*---------------------------------------------------------------------------*/
FoamFile
{
    version     2.0;
    format      ascii;
    class       volScalarField;
    location    "8";
    object      CO2.gas;
}
// * * * * * * * * * * * * * * * * * * * * * * * * * * * * * * * * * * * * * //

dimensions      [0 0 0 0 0 0 0];

internalField   nonuniform List<scalar> 
100
(
0.197937
0.19049
0.155285
0.159978
0.159617
0.164734
0.162583
0.157439
0.156189
0.15712
0.15229
0.152391
0.153426
0.151638
0.149768
0.148158
0.144747
0.142973
0.139332
0.133649
0.13296
0.133447
0.129511
0.130635
0.127293
0.126649
0.123658
0.124097
0.122825
0.121469
0.118759
0.116955
0.11572
0.114279
0.114265
0.113862
0.112434
0.111602
0.110651
0.108932
0.106323
0.104546
0.102642
0.101983
0.101614
0.100606
0.0999182
0.0986795
0.0981534
0.0976547
0.0965136
0.0952225
0.0940226
0.093029
0.0917607
0.0908042
0.0893224
0.0880827
0.0867505
0.085176
0.0842579
0.0828234
0.081319
0.0795773
0.0776883
0.0761667
0.0745435
0.0726918
0.0703446
0.067847
0.0653704
0.0626382
0.058832
0.0543328
0.0482439
0.0381139
0.0169355
0.0226162
0.024195
0.0243141
0.0239612
0.0234734
0.0229544
0.0223872
0.0217949
0.0211403
0.020462
0.0197519
0.0190053
0.0181897
0.0173453
0.0164742
0.0155822
0.0146656
0.0137324
0.0127883
0.0118502
0.010911
0.00998561
0.00909537
)
;

boundaryField
{
    inlet
    {
        type            fixedValue;
        value           uniform 0.2;
    }
    outlet
    {
        type            zeroGradient;
    }
    yzfaces
    {
        type            empty;
    }
}


// ************************************************************************* //
