/*--------------------------------*- C++ -*----------------------------------*\
| =========                 |                                                 |
| \\      /  F ield         | foam-extend: Open Source CFD                    |
|  \\    /   O peration     | Version:     5.0                                |
|   \\  /    A nd           | Web:         http://www.foam-extend.org         |
|    \\/     M anipulation  |                                                 |
\*---------------------------------------------------------------------------*/
FoamFile
{
    version     2.0;
    format      ascii;
    class       volScalarField;
    location    "8";
    object      H2O.water;
}
// * * * * * * * * * * * * * * * * * * * * * * * * * * * * * * * * * * * * * //

dimensions      [0 0 0 0 0 0 0];

internalField   nonuniform List<scalar> 
100
(
0.00100306
0.00517355
0.02805
0.0236029
0.0232502
0.0195362
0.0207957
0.0239237
0.0242385
0.023429
0.026465
0.0262568
0.0253871
0.0263726
0.0275253
0.0282834
0.0302727
0.0312935
0.0334442
0.037124
0.0374122
0.0366356
0.0391836
0.0383934
0.0407497
0.0410549
0.0430925
0.0425871
0.0433771
0.0440645
0.0458255
0.0466978
0.0473937
0.0484011
0.0481833
0.0482766
0.049488
0.0497539
0.0501975
0.0513758
0.0532289
0.0542637
0.0553709
0.0556101
0.0555229
0.0563511
0.056559
0.0572858
0.0575031
0.0576618
0.0582877
0.0590948
0.059827
0.0603642
0.0609726
0.0615489
0.0624476
0.0631167
0.0638596
0.064807
0.0651867
0.0659431
0.0667874
0.0678789
0.0690619
0.0698166
0.0706241
0.0717492
0.0731948
0.0745691
0.0758295
0.0773181
0.0796053
0.0821514
0.0855573
0.0912942
0.103246
0.101688
0.101027
0.100797
0.100702
0.100697
0.100727
0.100648
0.100612
0.10048
0.100404
0.100365
0.100305
0.100196
0.100061
0.0999787
0.0999072
0.0998691
0.0998111
0.0997367
0.0996723
0.0996143
0.0995416
0.0995425
)
;

boundaryField
{
    inlet
    {
        type            fixedValue;
        value           uniform 0;
    }
    outlet
    {
        type            zeroGradient;
    }
    yzfaces
    {
        type            empty;
    }
}


// ************************************************************************* //
