/*--------------------------------*- C++ -*----------------------------------*\
| =========                 |                                                 |
| \\      /  F ield         | foam-extend: Open Source CFD                    |
|  \\    /   O peration     | Version:     5.0                                |
|   \\  /    A nd           | Web:         http://www.foam-extend.org         |
|    \\/     M anipulation  |                                                 |
\*---------------------------------------------------------------------------*/
FoamFile
{
    version     2.0;
    format      ascii;
    class       volScalarField;
    location    "8";
    object      H2O.gas;
}
// * * * * * * * * * * * * * * * * * * * * * * * * * * * * * * * * * * * * * //

dimensions      [0 0 0 0 0 0 0];

internalField   nonuniform List<scalar> 
100
(
0.000386229
0.000371697
0.000303002
0.000312161
0.000311455
0.000321441
0.000317244
0.000307206
0.000304767
0.000306583
0.000297158
0.000297355
0.000299375
0.000295887
0.000292237
0.000289096
0.000282441
0.000278978
0.000271875
0.000260785
0.000259441
0.000260391
0.00025271
0.000254904
0.000248383
0.000247127
0.000241291
0.000242147
0.000239665
0.000237018
0.000231732
0.000228211
0.0002258
0.000222989
0.000222962
0.000222176
0.000219389
0.000217766
0.00021591
0.000212556
0.000207464
0.000203998
0.000200282
0.000198996
0.000198276
0.00019631
0.000194968
0.00019255
0.000191524
0.000190551
0.000188324
0.000185805
0.000183464
0.000181525
0.00017905
0.000177184
0.000174292
0.000171873
0.000169274
0.000166201
0.00016441
0.000161611
0.000158675
0.000155277
0.000151591
0.000148622
0.000145455
0.000141841
0.000137261
0.000132388
0.000127555
0.000122224
0.000114797
0.000106018
9.4137e-05
7.43706e-05
3.30457e-05
0.000546825
0.000997428
0.00147908
0.00200035
0.00256754
0.00318441
0.00384725
0.0045636
0.00532415
0.00613745
0.00699705
0.00790448
0.00884341
0.00980472
0.0108036
0.0118293
0.012869
0.0139026
0.0149332
0.0159565
0.0169431
0.0178888
0.018815
)
;

boundaryField
{
    inlet
    {
        type            fixedValue;
        value           uniform 0;
    }
    outlet
    {
        type            zeroGradient;
    }
    yzfaces
    {
        type            empty;
    }
}


// ************************************************************************* //
