/*--------------------------------*- C++ -*----------------------------------*\
| =========                 |                                                 |
| \\      /  F ield         | foam-extend: Open Source CFD                    |
|  \\    /   O peration     | Version:     5.0                                |
|   \\  /    A nd           | Web:         http://www.foam-extend.org         |
|    \\/     M anipulation  |                                                 |
\*---------------------------------------------------------------------------*/
FoamFile
{
    version     2.0;
    format      ascii;
    class       volScalarField;
    location    "8";
    object      Na.water;
}
// * * * * * * * * * * * * * * * * * * * * * * * * * * * * * * * * * * * * * //

dimensions      [0 0 0 0 0 0 0];

internalField   nonuniform List<scalar> 
100
(
0.000314722
0.00186195
0.00759841
0.00753148
0.00788624
0.0072456
0.00766248
0.00861283
0.00906364
0.00901538
0.00985727
0.00991025
0.00983813
0.0102184
0.010556
0.0109583
0.0116278
0.01198
0.0126846
0.0136122
0.0138059
0.013961
0.014612
0.0144552
0.0149042
0.0150668
0.0155059
0.0155449
0.0157735
0.0160951
0.0165411
0.0169853
0.0172383
0.017439
0.0175584
0.0177017
0.0177894
0.0180643
0.0183056
0.0185522
0.0189009
0.0192477
0.0196273
0.0198189
0.0200424
0.0201173
0.02035
0.020585
0.020738
0.0209021
0.0211462
0.0213728
0.021594
0.0218069
0.0221317
0.0223062
0.0225787
0.0228536
0.0231357
0.0234241
0.0236856
0.0240149
0.0243169
0.0246219
0.0249506
0.0253202
0.0257136
0.0260525
0.0264725
0.0269966
0.0275687
0.0281645
0.0288791
0.0298026
0.031067
0.0331352
0.0374915
0.0369607
0.0367359
0.0366517
0.0366104
0.0366207
0.0366266
0.0365962
0.0365737
0.0365142
0.0364875
0.0364712
0.0364484
0.0364123
0.0363679
0.0363449
0.036324
0.036303
0.0362796
0.0362551
0.0362433
0.0362244
0.0362081
0.03622
)
;

boundaryField
{
    inlet
    {
        type            fixedValue;
        value           uniform 0;
    }
    outlet
    {
        type            zeroGradient;
    }
    yzfaces
    {
        type            empty;
    }
}


// ************************************************************************* //
