/*--------------------------------*- C++ -*----------------------------------*\
| =========                 |                                                 |
| \\      /  F ield         | foam-extend: Open Source CFD                    |
|  \\    /   O peration     | Version:     5.0                                |
|   \\  /    A nd           | Web:         http://www.foam-extend.org         |
|    \\/     M anipulation  |                                                 |
\*---------------------------------------------------------------------------*/
FoamFile
{
    version     2.0;
    format      ascii;
    class       surfaceScalarField;
    location    "8";
    object      phi;
}
// * * * * * * * * * * * * * * * * * * * * * * * * * * * * * * * * * * * * * //

dimensions      [0 3 -1 0 0 0 0];

internalField   nonuniform List<scalar> 
99
(
1.2152e-06
1.21878e-06
1.23978e-06
1.24452e-06
1.24568e-06
1.23734e-06
1.24433e-06
1.24348e-06
1.25161e-06
1.2514e-06
1.25506e-06
1.26129e-06
1.26968e-06
1.27289e-06
1.26751e-06
1.26305e-06
1.2469e-06
1.22542e-06
1.20866e-06
1.2127e-06
1.20096e-06
1.19692e-06
1.20022e-06
1.18206e-06
1.19193e-06
1.18542e-06
1.2015e-06
1.19998e-06
1.20013e-06
1.19656e-06
1.1831e-06
1.18116e-06
1.18138e-06
1.17197e-06
1.17221e-06
1.16805e-06
1.17207e-06
1.16527e-06
1.16164e-06
1.15765e-06
1.15509e-06
1.15377e-06
1.14816e-06
1.15205e-06
1.15141e-06
1.15274e-06
1.14789e-06
1.14859e-06
1.1552e-06
1.14996e-06
1.14874e-06
1.15287e-06
1.15408e-06
1.1535e-06
1.14334e-06
1.13591e-06
1.13703e-06
1.13499e-06
1.13734e-06
1.14361e-06
1.13683e-06
1.13568e-06
1.13324e-06
1.13242e-06
1.1324e-06
1.13192e-06
1.12708e-06
1.12809e-06
1.12702e-06
1.12955e-06
1.13199e-06
1.12904e-06
1.13015e-06
1.13165e-06
1.13061e-06
1.13048e-06
1.12985e-06
1.12968e-06
1.13071e-06
1.1311e-06
1.1312e-06
1.13305e-06
1.13252e-06
1.13203e-06
1.13194e-06
1.13218e-06
1.13174e-06
1.13226e-06
1.12978e-06
1.12863e-06
1.12965e-06
1.13114e-06
1.12954e-06
1.13026e-06
1.13044e-06
1.13218e-06
1.13063e-06
1.13033e-06
1.13037e-06
)
;

boundaryField
{
    inlet
    {
        type            calculated;
        value           uniform -1.225e-06;
    }
    outlet
    {
        type            calculated;
        value           uniform 1.13001e-06;
    }
    yzfaces
    {
        type            empty;
    }
}


// ************************************************************************* //
