/*--------------------------------*- C++ -*----------------------------------*\
| =========                 |                                                 |
| \\      /  F ield         | foam-extend: Open Source CFD                    |
|  \\    /   O peration     | Version:     5.0                                |
|   \\  /    A nd           | Web:         http://www.foam-extend.org         |
|    \\/     M anipulation  |                                                 |
\*---------------------------------------------------------------------------*/
FoamFile
{
    version     2.0;
    format      ascii;
    class       surfaceScalarField;
    location    "8";
    object      phi.water;
}
// * * * * * * * * * * * * * * * * * * * * * * * * * * * * * * * * * * * * * //

dimensions      [0 3 -1 0 0 0 0];

internalField   nonuniform List<scalar> 
99
(
1.26731e-09
6.41748e-09
1.34208e-07
1.10596e-07
1.18923e-07
8.87274e-08
9.23917e-08
1.21273e-07
1.27998e-07
1.18301e-07
1.45433e-07
1.46288e-07
1.38076e-07
1.49676e-07
1.55797e-07
1.66077e-07
1.84905e-07
1.88023e-07
2.09775e-07
2.50846e-07
2.58691e-07
2.47367e-07
2.8467e-07
2.69215e-07
2.95949e-07
3.00181e-07
3.32789e-07
3.2624e-07
3.41506e-07
3.48154e-07
3.77855e-07
3.9822e-07
4.09457e-07
4.25814e-07
4.26056e-07
4.27536e-07
4.46221e-07
4.55905e-07
4.63678e-07
4.84527e-07
5.19535e-07
5.45068e-07
5.7781e-07
5.88452e-07
5.91047e-07
6.09315e-07
6.21717e-07
6.42905e-07
6.5502e-07
6.62189e-07
6.81217e-07
7.08755e-07
7.33288e-07
7.54612e-07
7.82295e-07
7.93554e-07
8.26522e-07
8.54347e-07
8.85833e-07
9.32274e-07
9.56052e-07
9.92011e-07
1.03272e-06
1.0852e-06
1.14378e-06
1.19705e-06
1.2494e-06
1.31605e-06
1.40656e-06
1.51521e-06
1.63028e-06
1.76043e-06
1.96158e-06
2.23006e-06
2.62361e-06
3.35325e-06
5.49352e-06
4.93494e-06
4.74455e-06
4.68832e-06
4.67131e-06
4.67071e-06
4.65994e-06
4.64943e-06
4.63878e-06
4.63078e-06
4.61618e-06
4.60453e-06
4.5801e-06
4.56476e-06
4.55878e-06
4.5528e-06
4.53356e-06
4.52495e-06
4.51669e-06
4.51574e-06
4.50158e-06
4.49692e-06
4.49471e-06
)
;

boundaryField
{
    inlet
    {
        type            fixedValue;
        value           uniform 0;
    }
    outlet
    {
        type            calculated;
        value           uniform 4.48804e-06;
    }
    yzfaces
    {
        type            empty;
    }
}


// ************************************************************************* //
