/*--------------------------------*- C++ -*----------------------------------*\
| =========                 |                                                 |
| \\      /  F ield         | foam-extend: Open Source CFD                    |
|  \\    /   O peration     | Version:     5.0                                |
|   \\  /    A nd           | Web:         http://www.foam-extend.org         |
|    \\/     M anipulation  |                                                 |
\*---------------------------------------------------------------------------*/
FoamFile
{
    version     2.0;
    format      ascii;
    class       volVectorField;
    location    "8";
    object      U.gas;
}
// * * * * * * * * * * * * * * * * * * * * * * * * * * * * * * * * * * * * * //

dimensions      [0 1 -1 0 0 0 0];

internalField   nonuniform List<vector> 
100
(
(0.00503118 0 0)
(0.00521478 0 0)
(0.00642845 0 0)
(0.00632012 0 0)
(0.00634313 0 0)
(0.00613374 0 0)
(0.00621013 0 0)
(0.00644379 0 0)
(0.0064912 0 0)
(0.00648553 0 0)
(0.00667637 0 0)
(0.00669315 0 0)
(0.00669261 0 0)
(0.0068142 0 0)
(0.00687482 0 0)
(0.00695426 0 0)
(0.00704528 0 0)
(0.00702045 0 0)
(0.00710634 0 0)
(0.00730884 0 0)
(0.00732518 0 0)
(0.00726014 0 0)
(0.00745497 0 0)
(0.00735935 0 0)
(0.00748095 0 0)
(0.00753981 0 0)
(0.00771076 0 0)
(0.00774211 0 0)
(0.00783112 0 0)
(0.0078832 0 0)
(0.00800667 0 0)
(0.00805632 0 0)
(0.00811248 0 0)
(0.00816243 0 0)
(0.00813203 0 0)
(0.00814567 0 0)
(0.00823737 0 0)
(0.00828511 0 0)
(0.00830415 0 0)
(0.00839364 0 0)
(0.00853353 0 0)
(0.00863557 0 0)
(0.00874415 0 0)
(0.00876417 0 0)
(0.00879924 0 0)
(0.00888181 0 0)
(0.00892522 0 0)
(0.00898371 0 0)
(0.00904463 0 0)
(0.00909842 0 0)
(0.0091532 0 0)
(0.00926125 0 0)
(0.0093712 0 0)
(0.00945622 0 0)
(0.00952899 0 0)
(0.00950652 0 0)
(0.00959237 0 0)
(0.00968778 0 0)
(0.00977973 0 0)
(0.0099538 0 0)
(0.0100361 0 0)
(0.0101096 0 0)
(0.0102193 0 0)
(0.0103516 0 0)
(0.0105004 0 0)
(0.010627 0 0)
(0.0107354 0 0)
(0.0108726 0 0)
(0.0110809 0 0)
(0.011294 0 0)
(0.0115191 0 0)
(0.0117567 0 0)
(0.0120791 0 0)
(0.0124582 0 0)
(0.0129407 0 0)
(0.013735 0 0)
(0.0171257 0 0)
(0.00708461 0 0)
(0.00915166 0 0)
(0.00977338 0 0)
(0.00995531 0 0)
(0.0100153 0 0)
(0.0100389 0 0)
(0.0100536 0 0)
(0.0100756 0 0)
(0.0101055 0 0)
(0.0101322 0 0)
(0.0101639 0 0)
(0.010188 0 0)
(0.0102112 0 0)
(0.0102413 0 0)
(0.0102814 0 0)
(0.0103099 0 0)
(0.010337 0 0)
(0.0103693 0 0)
(0.0104017 0 0)
(0.0104244 0 0)
(0.010438 0 0)
(0.0104493 0 0)
(0.0104587 0 0)
)
;

boundaryField
{
    inlet
    {
        type            fixedValue;
        value           uniform (0.005 0 0);
    }
    outlet
    {
        type            zeroGradient;
    }
    yzfaces
    {
        type            empty;
    }
}


// ************************************************************************* //
