/*--------------------------------*- C++ -*----------------------------------*\
| =========                 |                                                 |
| \\      /  F ield         | foam-extend: Open Source CFD                    |
|  \\    /   O peration     | Version:     5.0                                |
|   \\  /    A nd           | Web:         http://www.foam-extend.org         |
|    \\/     M anipulation  |                                                 |
\*---------------------------------------------------------------------------*/
FoamFile
{
    version     2.0;
    format      ascii;
    class       volVectorField;
    location    "8";
    object      U.water;
}
// * * * * * * * * * * * * * * * * * * * * * * * * * * * * * * * * * * * * * //

dimensions      [0 1 -1 0 0 0 0];

internalField   nonuniform List<vector> 
100
(
(1.46629e-06 0 0)
(7.70375e-06 0 0)
(5.37821e-05 0 0)
(0.000102665 0 0)
(9.05419e-05 0 0)
(8.92458e-05 0 0)
(7.57778e-05 0 0)
(8.52483e-05 0 0)
(0.000100951 0 0)
(0.000103339 0 0)
(0.000105242 0 0)
(0.000118389 0 0)
(0.000117817 0 0)
(0.000117171 0 0)
(0.000125273 0 0)
(0.000132236 0 0)
(0.000142808 0 0)
(0.000154162 0 0)
(0.000163619 0 0)
(0.000185836 0 0)
(0.00020728 0 0)
(0.000209888 0 0)
(0.000214327 0 0)
(0.000229103 0 0)
(0.000229607 0 0)
(0.000244512 0 0)
(0.000256025 0 0)
(0.000270404 0 0)
(0.000272433 0 0)
(0.000283412 0 0)
(0.00029582 0 0)
(0.000316584 0 0)
(0.000330138 0 0)
(0.000339828 0 0)
(0.000348128 0 0)
(0.000349594 0 0)
(0.000356477 0 0)
(0.00036852 0 0)
(0.000376629 0 0)
(0.00038811 0 0)
(0.000409363 0 0)
(0.000434845 0 0)
(0.000456803 0 0)
(0.000475688 0 0)
(0.000482112 0 0)
(0.000489711 0 0)
(0.000502836 0 0)
(0.000515434 0 0)
(0.00052977 0 0)
(0.000538191 0 0)
(0.000548656 0 0)
(0.000567139 0 0)
(0.000588449 0 0)
(0.00060827 0 0)
(0.000627184 0 0)
(0.000644601 0 0)
(0.000661349 0 0)
(0.000685857 0 0)
(0.000710657 0 0)
(0.000741293 0 0)
(0.000771486 0 0)
(0.000795948 0 0)
(0.00082717 0 0)
(0.000864886 0 0)
(0.000909625 0 0)
(0.000955868 0 0)
(0.000999489 0 0)
(0.0010486 0 0)
(0.00111183 0 0)
(0.00119261 0 0)
(0.00128488 0 0)
(0.0013869 0 0)
(0.00152246 0 0)
(0.0017174 0 0)
(0.00199859 0 0)
(0.00249579 0 0)
(0.00349077 0 0)
(0.00428723 0 0)
(0.00395902 0 0)
(0.00385236 0 0)
(0.00382033 0 0)
(0.00381345 0 0)
(0.00381013 0 0)
(0.00380188 0 0)
(0.00379293 0 0)
(0.00378429 0 0)
(0.00377479 0 0)
(0.00376492 0 0)
(0.00375092 0 0)
(0.00373377 0 0)
(0.00372386 0 0)
(0.00371867 0 0)
(0.00370893 0 0)
(0.00369807 0 0)
(0.0036911 0 0)
(0.00368685 0 0)
(0.00368025 0 0)
(0.00367149 0 0)
(0.00366773 0 0)
(0.00366432 0 0)
)
;

boundaryField
{
    inlet
    {
        type            fixedValue;
        value           uniform (0 0 0);
    }
    outlet
    {
        type            zeroGradient;
    }
    yzfaces
    {
        type            empty;
    }
}


// ************************************************************************* //
