/*--------------------------------*- C++ -*----------------------------------*\
| =========                 |                                                 |
| \\      /  F ield         | foam-extend: Open Source CFD                    |
|  \\    /   O peration     | Version:     5.0                                |
|   \\  /    A nd           | Web:         http://www.foam-extend.org         |
|    \\/     M anipulation  |                                                 |
\*---------------------------------------------------------------------------*/
FoamFile
{
    version     2.0;
    format      ascii;
    class       volScalarField;
    location    "8.58175";
    object      CO2.water;
}
// * * * * * * * * * * * * * * * * * * * * * * * * * * * * * * * * * * * * * //

dimensions      [0 0 0 0 0 0 0];

internalField   nonuniform List<scalar> 
100
(
6.16105e-05
1.32457e-05
2.348e-06
3.75532e-07
5.62621e-08
8.05306e-09
1.11361e-09
1.49839e-10
1.97125e-11
2.54492e-12
3.23268e-13
4.04855e-14
5.00586e-15
6.11855e-16
7.40132e-17
8.86943e-18
1.05362e-18
1.24129e-19
1.45137e-20
1.68505e-21
1.94304e-22
2.22623e-23
2.53557e-24
2.8712e-25
3.23312e-26
3.62198e-27
4.037e-28
4.47787e-29
4.94408e-30
5.43417e-31
5.94652e-32
6.48055e-33
7.03371e-34
7.60322e-35
8.18869e-36
8.78567e-37
9.39159e-38
1.00052e-38
1.06207e-39
1.12384e-40
1.18533e-41
1.24619e-42
1.30615e-43
1.36474e-44
1.42177e-45
1.47697e-46
1.52991e-47
1.58047e-48
1.62803e-49
1.67287e-50
1.71421e-51
1.75209e-52
1.78615e-53
1.81643e-54
1.84283e-55
1.86493e-56
1.8831e-57
1.89704e-58
1.90677e-59
1.91216e-60
1.91337e-61
1.9105e-62
1.90326e-63
1.89245e-64
1.87752e-65
1.85932e-66
1.83739e-67
1.81228e-68
1.78379e-69
1.75244e-70
1.7183e-71
1.68171e-72
1.64284e-73
1.60219e-74
1.56001e-75
1.51598e-76
1.47078e-77
1.42416e-78
1.37699e-79
1.32879e-80
1.28041e-81
1.23172e-82
1.18324e-83
1.1347e-84
1.08663e-85
1.03877e-86
9.91565e-88
9.4507e-89
8.99449e-90
8.54755e-91
8.11093e-92
7.68501e-93
7.27162e-94
6.87088e-95
6.48336e-96
6.10931e-97
5.74977e-98
5.40388e-99
5.07265e-100
4.75528e-101
)
;

boundaryField
{
    inlet
    {
        type            fixedValue;
        value           uniform 0;
    }
    outlet
    {
        type            zeroGradient;
    }
    yzfaces
    {
        type            empty;
    }
}


// ************************************************************************* //
