/*--------------------------------*- C++ -*----------------------------------*\
| =========                 |                                                 |
| \\      /  F ield         | foam-extend: Open Source CFD                    |
|  \\    /   O peration     | Version:     5.0                                |
|   \\  /    A nd           | Web:         http://www.foam-extend.org         |
|    \\/     M anipulation  |                                                 |
\*---------------------------------------------------------------------------*/
FoamFile
{
    version     2.0;
    format      ascii;
    class       volScalarField;
    location    "3";
    object      alpha.gas;
}
// * * * * * * * * * * * * * * * * * * * * * * * * * * * * * * * * * * * * * //

dimensions      [0 0 0 0 0 0 0];

internalField   nonuniform List<scalar> 
100
(
0.144853
0.128539
0.117995
0.110592
0.104248
0.0989889
0.094501
0.091292
0.0876471
0.085271
0.0826556
0.080077
0.077756
0.0759183
0.0738307
0.0718966
0.070103
0.0685242
0.0670163
0.0655449
0.064159
0.0629824
0.0616628
0.0604661
0.0592907
0.0582022
0.0570026
0.055949
0.0548901
0.0538293
0.0526973
0.0517639
0.050799
0.0497205
0.0487448
0.0477236
0.0467008
0.0456745
0.0446384
0.043608
0.0425355
0.0414726
0.0403845
0.0392404
0.0380764
0.0368686
0.0356044
0.0342612
0.0328611
0.03134
0.0297349
0.0280203
0.0261697
0.0241967
0.0221216
0.020004
0.0179131
0.0159581
0.0142497
0.0128674
0.0118358
0.0111313
0.0106725
0.0103925
0.0102214
0.0101271
0.010069
0.0100372
0.0100223
0.0100052
0.01
0.00999685
0.00999855
0.00999581
0.00999486
0.00999409
0.00999624
0.0100009
0.00999701
0.0100012
0.0100003
0.010003
0.0100007
0.00999641
0.00999883
0.00999365
0.00999731
0.00999704
0.00999508
0.0100023
0.0100043
0.0100012
0.0100011
0.0100039
0.0100024
0.00999723
0.00999695
0.009996
0.00999909
0.010002
)
;

boundaryField
{
    inlet
    {
        type            fixedValue;
        value           uniform 0.2;
    }
    outlet
    {
        type            zeroGradient;
    }
    yzfaces
    {
        type            empty;
    }
}


// ************************************************************************* //
