/*--------------------------------*- C++ -*----------------------------------*\
| =========                 |                                                 |
| \\      /  F ield         | foam-extend: Open Source CFD                    |
|  \\    /   O peration     | Version:     5.0                                |
|   \\  /    A nd           | Web:         http://www.foam-extend.org         |
|    \\/     M anipulation  |                                                 |
\*---------------------------------------------------------------------------*/
FoamFile
{
    version     2.0;
    format      ascii;
    class       volScalarField;
    location    "3";
    object      H2O.gas;
}
// * * * * * * * * * * * * * * * * * * * * * * * * * * * * * * * * * * * * * //

dimensions      [0 0 0 0 0 0 0];

internalField   nonuniform List<scalar> 
100
(
0.000282096
0.000250326
0.000229791
0.000215374
0.000203021
0.000192778
0.000184038
0.000177789
0.00017069
0.000166063
0.000160969
0.000155948
0.000151428
0.000147849
0.000143783
0.000140017
0.000136524
0.000133449
0.000130512
0.000127647
0.000124948
0.000122656
0.000120086
0.000117756
0.000115467
0.000113347
0.000111011
0.000108959
0.000106897
0.000104831
0.000102627
0.000100809
9.89295e-05
9.68292e-05
9.49291e-05
9.29403e-05
9.09485e-05
8.89497e-05
8.69319e-05
0.00521613
0.00763112
0.00996565
0.0122043
0.014296
0.0162555
0.0180241
0.019583
0.0208645
0.0218947
0.0225337
0.0228751
0.0228343
0.0223996
0.0215635
0.0203928
0.018943
0.0173113
0.0156494
0.014098
0.0127998
0.0118121
0.0111249
0.0106667
0.010391
0.0102197
0.0101288
0.0100642
0.0100329
0.0100233
0.0100063
0.00999773
0.010002
0.00999529
0.00999419
0.00999584
0.00999087
0.00998997
0.010002
0.00999612
0.00999964
0.00999917
0.0100043
0.0100026
0.0100036
0.0100001
0.00999475
0.00999849
0.00999271
0.00999612
0.0100026
0.0100025
0.0100019
0.0100012
0.0100002
0.0100018
0.00999867
0.00999786
0.00999989
0.00999501
0.00999892
)
;

boundaryField
{
    inlet
    {
        type            fixedValue;
        value           uniform 0;
    }
    outlet
    {
        type            zeroGradient;
    }
    yzfaces
    {
        type            empty;
    }
}


// ************************************************************************* //
