/*--------------------------------*- C++ -*----------------------------------*\
| =========                 |                                                 |
| \\      /  F ield         | foam-extend: Open Source CFD                    |
|  \\    /   O peration     | Version:     5.0                                |
|   \\  /    A nd           | Web:         http://www.foam-extend.org         |
|    \\/     M anipulation  |                                                 |
\*---------------------------------------------------------------------------*/
FoamFile
{
    version     2.0;
    format      ascii;
    class       volScalarField;
    location    "3";
    object      Na.water;
}
// * * * * * * * * * * * * * * * * * * * * * * * * * * * * * * * * * * * * * //

dimensions      [0 0 0 0 0 0 0];

internalField   nonuniform List<scalar> 
100
(
0.0063591
0.00817888
0.00938594
0.0102657
0.0109728
0.0115824
0.0120733
0.0125337
0.0128537
0.0131969
0.0134814
0.0137273
0.0140113
0.0142472
0.0144736
0.0146862
0.0148827
0.0150797
0.0152438
0.0154153
0.0155796
0.0157329
0.0158638
0.0160137
0.0161487
0.0162772
0.016399
0.0165333
0.0166668
0.0167868
0.0169052
0.0170226
0.0171488
0.0172619
0.0173729
0.0174909
0.0176022
0.0177208
0.0178442
0.0179647
0.018094
0.0182158
0.0183367
0.0194441
0.0196036
0.0197673
0.019907
0.0200711
0.020249
0.0204393
0.0206116
0.020827
0.0210566
0.0212857
0.0215336
0.0218194
0.022063
0.0223031
0.0225071
0.0226779
0.0228029
0.0228864
0.0229451
0.0229835
0.0230018
0.023031
0.0230371
0.0230441
0.023028
0.0230174
0.0230085
0.0230042
0.0229951
0.022992
0.0229998
0.0230103
0.0229857
0.0229875
0.022994
0.0229929
0.0229964
0.0230241
0.022996
0.0230024
0.022998
0.022984
0.0229842
0.0229982
0.0230103
0.0230287
0.0230167
0.0230194
0.0230081
0.023005
0.0229921
0.0229899
0.0229701
0.0229569
0.0229437
0.0229597
)
;

boundaryField
{
    inlet
    {
        type            fixedValue;
        value           uniform 0;
    }
    outlet
    {
        type            zeroGradient;
    }
    yzfaces
    {
        type            empty;
    }
}


// ************************************************************************* //
