/*--------------------------------*- C++ -*----------------------------------*\
| =========                 |                                                 |
| \\      /  F ield         | foam-extend: Open Source CFD                    |
|  \\    /   O peration     | Version:     5.0                                |
|   \\  /    A nd           | Web:         http://www.foam-extend.org         |
|    \\/     M anipulation  |                                                 |
\*---------------------------------------------------------------------------*/
FoamFile
{
    version     2.0;
    format      ascii;
    class       volScalarField;
    location    "3";
    object      Ns;
}
// * * * * * * * * * * * * * * * * * * * * * * * * * * * * * * * * * * * * * //

dimensions      [0 -3 0 0 1 0 0];

internalField   nonuniform List<scalar> 
100
(
65.8618
104.64
68.7294
97.234
134.761
105.326
102.084
136.469
84.3796
130.016
126.068
87.5244
103.055
122.406
96.2348
119.976
98.5207
100.653
127.651
114.998
103.018
107.924
98.0229
112.524
115.732
107.329
93.0592
119.375
116.229
128.01
111.463
112.055
119.284
107.95
112.586
110.235
111.003
110.126
110.821
174.976
178.171
180.115
177.07
172.57
172.196
171.761
171.456
165.166
174.522
180.054
172.394
175.614
173.577
176.978
171.611
174.454
174.645
176.865
172.581
169.812
173.099
170.512
172.794
168.995
169.715
172.244
167.89
169.137
178.208
173.399
176.844
174.239
171.554
173.54
173.375
173.097
175.425
177.25
174.076
172.603
173.397
173.046
170.473
175.028
172.997
174.332
174.428
171.638
170.305
176.31
173.486
173.121
169.669
171.441
175.969
171.164
173.33
174.084
170.057
174.173
)
;

boundaryField
{
    inlet
    {
        type            fixedValue;
        value           uniform 0;
    }
    outlet
    {
        type            zeroGradient;
    }
    yzfaces
    {
        type            empty;
    }
}


// ************************************************************************* //
