/*--------------------------------*- C++ -*----------------------------------*\
| =========                 |                                                 |
| \\      /  F ield         | foam-extend: Open Source CFD                    |
|  \\    /   O peration     | Version:     5.0                                |
|   \\  /    A nd           | Web:         http://www.foam-extend.org         |
|    \\/     M anipulation  |                                                 |
\*---------------------------------------------------------------------------*/
FoamFile
{
    version     2.0;
    format      ascii;
    class       surfaceScalarField;
    location    "3";
    object      phi;
}
// * * * * * * * * * * * * * * * * * * * * * * * * * * * * * * * * * * * * * //

dimensions      [0 3 -1 0 0 0 0];

internalField   nonuniform List<scalar> 
99
(
1.22521e-06
1.22402e-06
1.22532e-06
1.21563e-06
1.22126e-06
1.21795e-06
1.21888e-06
1.22414e-06
1.22685e-06
1.21874e-06
1.21732e-06
1.21105e-06
1.21955e-06
1.21775e-06
1.21843e-06
1.22167e-06
1.22157e-06
1.22173e-06
1.22191e-06
1.22582e-06
1.22742e-06
1.23074e-06
1.22666e-06
1.22828e-06
1.225e-06
1.22472e-06
1.21961e-06
1.21874e-06
1.22016e-06
1.21987e-06
1.21963e-06
1.21815e-06
1.21739e-06
1.21565e-06
1.21376e-06
1.21345e-06
1.21088e-06
1.21113e-06
1.21285e-06
1.21204e-06
1.21355e-06
1.21191e-06
1.21182e-06
1.20999e-06
1.20881e-06
1.20661e-06
1.20608e-06
1.20681e-06
1.20536e-06
1.20578e-06
1.20799e-06
1.20873e-06
1.20918e-06
1.20837e-06
1.20848e-06
1.20887e-06
1.20984e-06
1.21015e-06
1.21171e-06
1.21122e-06
1.21045e-06
1.2108e-06
1.20909e-06
1.21059e-06
1.21111e-06
1.21042e-06
1.20975e-06
1.20728e-06
1.20586e-06
1.20604e-06
1.20502e-06
1.20461e-06
1.20546e-06
1.20638e-06
1.20572e-06
1.20534e-06
1.20437e-06
1.20518e-06
1.20425e-06
1.20619e-06
1.20821e-06
1.20709e-06
1.20779e-06
1.20722e-06
1.20535e-06
1.2058e-06
1.20452e-06
1.20523e-06
1.20669e-06
1.20742e-06
1.20802e-06
1.20968e-06
1.20961e-06
1.21058e-06
1.20981e-06
1.21077e-06
1.20779e-06
1.20878e-06
1.20864e-06
)
;

boundaryField
{
    inlet
    {
        type            calculated;
        value           uniform -1.225e-06;
    }
    outlet
    {
        type            calculated;
        value           uniform 1.21094e-06;
    }
    yzfaces
    {
        type            empty;
    }
}


// ************************************************************************* //
