/*--------------------------------*- C++ -*----------------------------------*\
| =========                 |                                                 |
| \\      /  F ield         | foam-extend: Open Source CFD                    |
|  \\    /   O peration     | Version:     5.0                                |
|   \\  /    A nd           | Web:         http://www.foam-extend.org         |
|    \\/     M anipulation  |                                                 |
\*---------------------------------------------------------------------------*/
FoamFile
{
    version     2.0;
    format      ascii;
    class       surfaceScalarField;
    location    "3";
    object      phi;
}
// * * * * * * * * * * * * * * * * * * * * * * * * * * * * * * * * * * * * * //

dimensions      [0 3 -1 0 0 0 0];

internalField   nonuniform List<scalar> 
99
(
1.22466e-06
1.22273e-06
1.2199e-06
1.2052e-06
1.20063e-06
1.2078e-06
1.21262e-06
1.20839e-06
1.21076e-06
1.20826e-06
1.20377e-06
1.20679e-06
1.21502e-06
1.21174e-06
1.21259e-06
1.21349e-06
1.21377e-06
1.21158e-06
1.21497e-06
1.21425e-06
1.21686e-06
1.21469e-06
1.21355e-06
1.21544e-06
1.21519e-06
1.21034e-06
1.21178e-06
1.20949e-06
1.2089e-06
1.2042e-06
1.20845e-06
1.20642e-06
1.20488e-06
1.20721e-06
1.20728e-06
1.20853e-06
1.20701e-06
1.20738e-06
1.2056e-06
1.20588e-06
1.20741e-06
1.208e-06
1.20681e-06
1.20752e-06
1.20662e-06
1.20703e-06
1.20518e-06
1.20697e-06
1.2049e-06
1.20759e-06
1.20742e-06
1.20799e-06
1.20625e-06
1.20711e-06
1.20674e-06
1.2069e-06
1.20607e-06
1.20472e-06
1.20553e-06
1.20691e-06
1.20649e-06
1.20652e-06
1.20728e-06
1.20783e-06
1.2076e-06
1.20658e-06
1.20876e-06
1.20947e-06
1.20862e-06
1.20784e-06
1.20932e-06
1.20758e-06
1.20912e-06
1.20908e-06
1.20886e-06
1.20941e-06
1.21198e-06
1.21083e-06
1.21136e-06
1.21156e-06
1.21286e-06
1.21219e-06
1.21076e-06
1.209e-06
1.20814e-06
1.20799e-06
1.20715e-06
1.20839e-06
1.20745e-06
1.20712e-06
1.20704e-06
1.20622e-06
1.20581e-06
1.20727e-06
1.20771e-06
1.20751e-06
1.20709e-06
1.20621e-06
1.20798e-06
)
;

boundaryField
{
    inlet
    {
        type            calculated;
        value           uniform -1.225e-06;
    }
    outlet
    {
        type            calculated;
        value           uniform 1.20878e-06;
    }
    yzfaces
    {
        type            empty;
    }
}


// ************************************************************************* //
