/*--------------------------------*- C++ -*----------------------------------*\
| =========                 |                                                 |
| \\      /  F ield         | foam-extend: Open Source CFD                    |
|  \\    /   O peration     | Version:     5.0                                |
|   \\  /    A nd           | Web:         http://www.foam-extend.org         |
|    \\/     M anipulation  |                                                 |
\*---------------------------------------------------------------------------*/
FoamFile
{
    version     2.0;
    format      ascii;
    class       volVectorField;
    location    "3";
    object      U.gas;
}
// * * * * * * * * * * * * * * * * * * * * * * * * * * * * * * * * * * * * * //

dimensions      [0 1 -1 0 0 0 0];

internalField   nonuniform List<vector> 
100
(
(0.00687439 0 0)
(0.00767276 0 0)
(0.00826391 0 0)
(0.00867075 0 0)
(0.00903549 0 0)
(0.00942597 0 0)
(0.00981624 0 0)
(0.0100633 0 0)
(0.0103647 0 0)
(0.0105441 0 0)
(0.0107436 0 0)
(0.010961 0 0)
(0.0112108 0 0)
(0.0113847 0 0)
(0.0115659 0 0)
(0.0117405 0 0)
(0.0118998 0 0)
(0.0120187 0 0)
(0.0121498 0 0)
(0.0122862 0 0)
(0.0124056 0 0)
(0.0124894 0 0)
(0.0125839 0 0)
(0.0126709 0 0)
(0.0127625 0 0)
(0.0128031 0 0)
(0.0128704 0 0)
(0.0129189 0 0)
(0.0129653 0 0)
(0.012994 0 0)
(0.0130556 0 0)
(0.0130889 0 0)
(0.0131094 0 0)
(0.0131627 0 0)
(0.0131894 0 0)
(0.0132214 0 0)
(0.0132335 0 0)
(0.013235 0 0)
(0.0132287 0 0)
(0.0132072 0 0)
(0.0132007 0 0)
(0.0131761 0 0)
(0.0131302 0 0)
(0.0130779 0 0)
(0.0130047 0 0)
(0.0129153 0 0)
(0.0127992 0 0)
(0.0126658 0 0)
(0.0124955 0 0)
(0.0122996 0 0)
(0.012056 0 0)
(0.0117478 0 0)
(0.0113653 0 0)
(0.0108937 0 0)
(0.0103326 0 0)
(0.00966476 0 0)
(0.00890985 0 0)
(0.00809004 0 0)
(0.00727307 0 0)
(0.0065299 0 0)
(0.00590585 0 0)
(0.0054295 0 0)
(0.00510459 0 0)
(0.00489364 0 0)
(0.00476404 0 0)
(0.0046826 0 0)
(0.00464128 0 0)
(0.00461963 0 0)
(0.00460486 0 0)
(0.00459565 0 0)
(0.00458936 0 0)
(0.00458607 0 0)
(0.00458335 0 0)
(0.00458733 0 0)
(0.00458562 0 0)
(0.00458536 0 0)
(0.00459101 0 0)
(0.00459518 0 0)
(0.0045965 0 0)
(0.00459592 0 0)
(0.00460049 0 0)
(0.00460122 0 0)
(0.00459912 0 0)
(0.00459181 0 0)
(0.00458432 0 0)
(0.00458351 0 0)
(0.0045796 0 0)
(0.00458252 0 0)
(0.00458315 0 0)
(0.00457948 0 0)
(0.00458132 0 0)
(0.00458087 0 0)
(0.00457771 0 0)
(0.00457945 0 0)
(0.0045837 0 0)
(0.00458276 0 0)
(0.0045796 0 0)
(0.00457728 0 0)
(0.00457853 0 0)
(0.00458449 0 0)
)
;

boundaryField
{
    inlet
    {
        type            fixedValue;
        value           uniform (0.005 0 0);
    }
    outlet
    {
        type            zeroGradient;
    }
    yzfaces
    {
        type            empty;
    }
}


// ************************************************************************* //
