/*--------------------------------*- C++ -*----------------------------------*\
| =========                 |                                                 |
| \\      /  F ield         | foam-extend: Open Source CFD                    |
|  \\    /   O peration     | Version:     5.0                                |
|   \\  /    A nd           | Web:         http://www.foam-extend.org         |
|    \\/     M anipulation  |                                                 |
\*---------------------------------------------------------------------------*/
FoamFile
{
    version     2.0;
    format      ascii;
    class       volScalarField;
    location    "6";
    object      alpha.gas;
}
// * * * * * * * * * * * * * * * * * * * * * * * * * * * * * * * * * * * * * //

dimensions      [0 0 0 0 0 0 0];

internalField   nonuniform List<scalar> 
100
(
0.163036
0.134008
0.120178
0.0999396
0.102661
0.102137
0.106053
0.102099
0.0996936
0.10029
0.10251
0.102951
0.0976845
0.0907647
0.0930518
0.0870352
0.0799718
0.0838682
0.0803766
0.0809689
0.0787095
0.078267
0.0794081
0.0789312
0.0767707
0.0737472
0.0750833
0.0728646
0.0733585
0.069938
0.0678343
0.0672612
0.0692627
0.0683499
0.0738282
0.0697342
0.0687165
0.0668592
0.0647041
0.0657719
0.0639454
0.0607866
0.0589528
0.0559986
0.0582107
0.0571048
0.0534477
0.0524745
0.0522611
0.0484713
0.0454902
0.0448258
0.0416413
0.0350303
0.019212
0.0220909
0.023295
0.0239963
0.0244427
0.0247318
0.0249341
0.0250757
0.0251988
0.0253072
0.025401
0.0255044
0.025612
0.0257241
0.0258326
0.0259322
0.0260219
0.0261113
0.0261859
0.0262493
0.0262958
0.026322
0.0263515
0.0263598
0.0263583
0.0263169
0.0262688
0.0261885
0.0260694
0.0259018
0.0256847
0.0254102
0.0250788
0.0246674
0.0241658
0.0235633
0.0228258
0.0219673
0.0209596
0.0198153
0.0185473
0.0171965
0.0158225
0.0145114
0.0133347
0.0123542
)
;

boundaryField
{
    inlet
    {
        type            fixedValue;
        value           uniform 0.2;
    }
    outlet
    {
        type            zeroGradient;
    }
    yzfaces
    {
        type            empty;
    }
}


// ************************************************************************* //
