/*--------------------------------*- C++ -*----------------------------------*\
| =========                 |                                                 |
| \\      /  F ield         | foam-extend: Open Source CFD                    |
|  \\    /   O peration     | Version:     5.0                                |
|   \\  /    A nd           | Web:         http://www.foam-extend.org         |
|    \\/     M anipulation  |                                                 |
\*---------------------------------------------------------------------------*/
FoamFile
{
    version     2.0;
    format      ascii;
    class       volScalarField;
    location    "6";
    object      CO2.water;
}
// * * * * * * * * * * * * * * * * * * * * * * * * * * * * * * * * * * * * * //

dimensions      [0 0 0 0 0 0 0];

internalField   nonuniform List<scalar> 
100
(
0.000970838
0.00173325
0.0020965
0.00262804
0.00255656
0.00257033
0.00246748
0.00257133
0.0026345
0.00261883
0.00256054
0.00254896
0.00268727
0.00286901
0.00280894
0.00296697
0.00315248
0.00305015
0.00314185
0.0031263
0.00318564
0.00319726
0.00316729
0.00317982
0.00323656
0.00331597
0.00328088
0.00333915
0.00332618
0.00341602
0.00347127
0.00348632
0.00343376
0.00345773
0.00331385
0.00342137
0.0034481
0.00349688
0.00355348
0.00352544
0.00357341
0.00365638
0.00370454
0.00378213
0.00372403
0.00375308
0.00384913
0.00387469
0.00388029
0.00397983
0.00405813
0.00407558
0.00415922
0.00433285
0.00474831
0.00172108
0.000624314
0.000226154
8.18653e-05
2.97762e-05
1.084e-05
3.95058e-06
1.43981e-06
5.24159e-07
1.90171e-07
6.89309e-08
2.49835e-08
9.04741e-09
3.2875e-09
1.202e-09
4.44085e-10
1.6646e-10
6.33868e-11
2.46215e-11
9.74966e-12
3.93599e-12
1.61422e-12
6.72194e-13
2.83349e-13
1.20675e-13
5.17473e-14
2.23939e-14
9.71757e-15
4.25167e-15
1.8603e-15
8.19434e-16
3.60768e-16
1.60234e-16
7.16862e-17
3.23586e-17
1.48352e-17
6.83579e-18
3.19149e-18
1.50653e-18
7.19951e-19
3.47104e-19
1.69254e-19
8.30383e-20
4.09714e-20
2.36569e-20
)
;

boundaryField
{
    inlet
    {
        type            fixedValue;
        value           uniform 0;
    }
    outlet
    {
        type            zeroGradient;
    }
    yzfaces
    {
        type            empty;
    }
}


// ************************************************************************* //
