/*--------------------------------*- C++ -*----------------------------------*\
| =========                 |                                                 |
| \\      /  F ield         | foam-extend: Open Source CFD                    |
|  \\    /   O peration     | Version:     5.0                                |
|   \\  /    A nd           | Web:         http://www.foam-extend.org         |
|    \\/     M anipulation  |                                                 |
\*---------------------------------------------------------------------------*/
FoamFile
{
    version     2.0;
    format      ascii;
    class       volScalarField;
    location    "6";
    object      CO2.gas;
}
// * * * * * * * * * * * * * * * * * * * * * * * * * * * * * * * * * * * * * //

dimensions      [0 0 0 0 0 0 0];

internalField   nonuniform List<scalar> 
100
(
0.162719
0.133747
0.119944
0.099745
0.102461
0.101938
0.105846
0.1019
0.0994995
0.100095
0.10231
0.10275
0.0974942
0.090588
0.0928706
0.0868657
0.0798161
0.0837049
0.08022
0.0808112
0.0785562
0.0781146
0.0792535
0.0787775
0.0766211
0.0736036
0.074937
0.0727227
0.0732156
0.0698018
0.0677022
0.0671302
0.0691278
0.0682168
0.0736844
0.0695984
0.0685827
0.066729
0.0645781
0.0656438
0.0638208
0.0606682
0.058838
0.0558895
0.0580973
0.0569935
0.0533436
0.0523723
0.0521593
0.0483769
0.0454016
0.0447385
0.0415602
0.034962
0.0191746
0.0215466
0.0222698
0.0224341
0.022248
0.0219082
0.0213845
0.0207316
0.0200114
0.01922
0.0183788
0.017493
0.0165861
0.015629
0.0146469
0.0136509
0.0126407
0.0116425
0.0106562
0.00968453
0.00873892
0.007824
0.00694876
0.00612342
0.00535445
0.00463186
0.00397594
0.00337575
0.00283454
0.00235214
0.0019267
0.0015548
0.00123622
0.000964703
0.000736989
0.00054984
0.000398654
0.000279585
0.000188587
0.000121295
7.37543e-05
4.20074e-05
2.21916e-05
1.07773e-05
4.7918e-06
1.94201e-06
)
;

boundaryField
{
    inlet
    {
        type            fixedValue;
        value           uniform 0.2;
    }
    outlet
    {
        type            zeroGradient;
    }
    yzfaces
    {
        type            empty;
    }
}


// ************************************************************************* //
