/*--------------------------------*- C++ -*----------------------------------*\
| =========                 |                                                 |
| \\      /  F ield         | foam-extend: Open Source CFD                    |
|  \\    /   O peration     | Version:     5.0                                |
|   \\  /    A nd           | Web:         http://www.foam-extend.org         |
|    \\/     M anipulation  |                                                 |
\*---------------------------------------------------------------------------*/
FoamFile
{
    version     2.0;
    format      ascii;
    class       volScalarField;
    location    "6";
    object      H2O.gas;
}
// * * * * * * * * * * * * * * * * * * * * * * * * * * * * * * * * * * * * * //

dimensions      [0 0 0 0 0 0 0];

internalField   nonuniform List<scalar> 
100
(
0.000317508
0.000260977
0.000234043
0.00019463
0.00019993
0.000198909
0.000206535
0.000198835
0.00019415
0.000195312
0.000199635
0.000200493
0.000190238
0.000176762
0.000181216
0.000169499
0.000155743
0.000163331
0.000156531
0.000157685
0.000153284
0.000152423
0.000154645
0.000153716
0.000149509
0.00014362
0.000146222
0.000141902
0.000142863
0.000136202
0.000132105
0.000130989
0.000134887
0.000133109
0.000143778
0.000135805
0.000133823
0.000130206
0.000126009
0.000128089
0.000124532
0.00011838
0.000114809
0.000109056
0.000113364
0.00011121
0.000104088
0.000102193
0.000101777
9.43964e-05
8.85908e-05
8.7297e-05
8.10953e-05
6.82204e-05
3.74148e-05
0.000531368
0.0010258
0.00156807
0.0021676
0.00283616
0.00356483
0.00435091
0.00519614
0.0060948
0.00704316
0.00803702
0.00908044
0.0101377
0.0112131
0.0123061
0.0133926
0.0144796
0.015548
0.0165825
0.0175818
0.018539
0.0194329
0.0202571
0.021029
0.0216869
0.022294
0.0228082
0.0232216
0.0235411
0.0237427
0.0238312
0.0238237
0.0236939
0.0234222
0.0230107
0.022421
0.0216797
0.0207757
0.0197034
0.0184783
0.0171499
0.0158015
0.0144968
0.0133278
0.0123496
)
;

boundaryField
{
    inlet
    {
        type            fixedValue;
        value           uniform 0;
    }
    outlet
    {
        type            zeroGradient;
    }
    yzfaces
    {
        type            empty;
    }
}


// ************************************************************************* //
