/*--------------------------------*- C++ -*----------------------------------*\
| =========                 |                                                 |
| \\      /  F ield         | foam-extend: Open Source CFD                    |
|  \\    /   O peration     | Version:     5.0                                |
|   \\  /    A nd           | Web:         http://www.foam-extend.org         |
|    \\/     M anipulation  |                                                 |
\*---------------------------------------------------------------------------*/
FoamFile
{
    version     2.0;
    format      ascii;
    class       surfaceScalarField;
    location    "6";
    object      phi;
}
// * * * * * * * * * * * * * * * * * * * * * * * * * * * * * * * * * * * * * //

dimensions      [0 3 -1 0 0 0 0];

internalField   nonuniform List<scalar> 
99
(
1.226e-06
1.23039e-06
1.23683e-06
1.23488e-06
1.23248e-06
1.2286e-06
1.23165e-06
1.23377e-06
1.23063e-06
1.22984e-06
1.2364e-06
1.23236e-06
1.22881e-06
1.23246e-06
1.23242e-06
1.23141e-06
1.23363e-06
1.23216e-06
1.23239e-06
1.23493e-06
1.23419e-06
1.23152e-06
1.23353e-06
1.23369e-06
1.23593e-06
1.23425e-06
1.23491e-06
1.23505e-06
1.23123e-06
1.23065e-06
1.22965e-06
1.23144e-06
1.23326e-06
1.23185e-06
1.23741e-06
1.23593e-06
1.23608e-06
1.2362e-06
1.23368e-06
1.23436e-06
1.23206e-06
1.22837e-06
1.22674e-06
1.2244e-06
1.22619e-06
1.22437e-06
1.22317e-06
1.22017e-06
1.22151e-06
1.22164e-06
1.21869e-06
1.21892e-06
1.22057e-06
1.22094e-06
1.22081e-06
1.22103e-06
1.22122e-06
1.22102e-06
1.22015e-06
1.22047e-06
1.21991e-06
1.21949e-06
1.22066e-06
1.21972e-06
1.22188e-06
1.22202e-06
1.2218e-06
1.22054e-06
1.21999e-06
1.22082e-06
1.22109e-06
1.22169e-06
1.22287e-06
1.22357e-06
1.22278e-06
1.22326e-06
1.22134e-06
1.22123e-06
1.21932e-06
1.22015e-06
1.22006e-06
1.21887e-06
1.21763e-06
1.21832e-06
1.21694e-06
1.21932e-06
1.2182e-06
1.21805e-06
1.21953e-06
1.21992e-06
1.22139e-06
1.2212e-06
1.22136e-06
1.22122e-06
1.22172e-06
1.2217e-06
1.22064e-06
1.2213e-06
1.2203e-06
)
;

boundaryField
{
    inlet
    {
        type            calculated;
        value           uniform -1.225e-06;
    }
    outlet
    {
        type            calculated;
        value           uniform 1.22015e-06;
    }
    yzfaces
    {
        type            empty;
    }
}


// ************************************************************************* //
