/*--------------------------------*- C++ -*----------------------------------*\
| =========                 |                                                 |
| \\      /  F ield         | foam-extend: Open Source CFD                    |
|  \\    /   O peration     | Version:     5.0                                |
|   \\  /    A nd           | Web:         http://www.foam-extend.org         |
|    \\/     M anipulation  |                                                 |
\*---------------------------------------------------------------------------*/
FoamFile
{
    version     2.0;
    format      ascii;
    class       volVectorField;
    location    "6";
    object      U.gas;
}
// * * * * * * * * * * * * * * * * * * * * * * * * * * * * * * * * * * * * * //

dimensions      [0 1 -1 0 0 0 0];

internalField   nonuniform List<vector> 
100
(
(0.00613451 0 0)
(0.00743008 0 0)
(0.00834523 0 0)
(0.00962609 0 0)
(0.00926269 0 0)
(0.00932294 0 0)
(0.00912472 0 0)
(0.00949481 0 0)
(0.0095356 0 0)
(0.00950435 0 0)
(0.00937234 0 0)
(0.00922212 0 0)
(0.00962864 0 0)
(0.0101907 0 0)
(0.0100702 0 0)
(0.0108034 0 0)
(0.0111743 0 0)
(0.0108528 0 0)
(0.011134 0 0)
(0.0111902 0 0)
(0.0112079 0 0)
(0.0112712 0 0)
(0.0112477 0 0)
(0.0113568 0 0)
(0.0115339 0 0)
(0.0116953 0 0)
(0.0116543 0 0)
(0.0118912 0 0)
(0.0116535 0 0)
(0.012164 0 0)
(0.0120729 0 0)
(0.0124107 0 0)
(0.0121806 0 0)
(0.0120337 0 0)
(0.0117939 0 0)
(0.0121341 0 0)
(0.0122571 0 0)
(0.0123326 0 0)
(0.0124393 0 0)
(0.0124502 0 0)
(0.0125588 0 0)
(0.0127312 0 0)
(0.0128674 0 0)
(0.0131467 0 0)
(0.0127941 0 0)
(0.0129675 0 0)
(0.0133346 0 0)
(0.0131735 0 0)
(0.0133302 0 0)
(0.0135214 0 0)
(0.0134663 0 0)
(0.0136092 0 0)
(0.0137119 0 0)
(0.0141323 0 0)
(0.0151546 0 0)
(0.00872794 0 0)
(0.00957865 0 0)
(0.00998598 0 0)
(0.0102102 0 0)
(0.0103487 0 0)
(0.0104366 0 0)
(0.0104968 0 0)
(0.0105413 0 0)
(0.0105766 0 0)
(0.0106157 0 0)
(0.0106515 0 0)
(0.0106779 0 0)
(0.0107012 0 0)
(0.010725 0 0)
(0.0107565 0 0)
(0.010791 0 0)
(0.0108203 0 0)
(0.0108508 0 0)
(0.0108788 0 0)
(0.0108967 0 0)
(0.0109092 0 0)
(0.010911 0 0)
(0.010912 0 0)
(0.0109054 0 0)
(0.0109035 0 0)
(0.0108953 0 0)
(0.0108779 0 0)
(0.0108513 0 0)
(0.0108195 0 0)
(0.0107749 0 0)
(0.0107234 0 0)
(0.0106518 0 0)
(0.0105585 0 0)
(0.0104552 0 0)
(0.0103199 0 0)
(0.0101477 0 0)
(0.00992794 0 0)
(0.00965126 0 0)
(0.00930265 0 0)
(0.00889102 0 0)
(0.00841178 0 0)
(0.00786728 0 0)
(0.00728899 0 0)
(0.00671394 0 0)
(0.00618422 0 0)
)
;

boundaryField
{
    inlet
    {
        type            fixedValue;
        value           uniform (0.005 0 0);
    }
    outlet
    {
        type            zeroGradient;
    }
    yzfaces
    {
        type            empty;
    }
}


// ************************************************************************* //
