/*--------------------------------*- C++ -*----------------------------------*\
| =========                 |                                                 |
| \\      /  F ield         | foam-extend: Open Source CFD                    |
|  \\    /   O peration     | Version:     5.0                                |
|   \\  /    A nd           | Web:         http://www.foam-extend.org         |
|    \\/     M anipulation  |                                                 |
\*---------------------------------------------------------------------------*/
FoamFile
{
    version     2.0;
    format      ascii;
    class       volVectorField;
    location    "6";
    object      U.water;
}
// * * * * * * * * * * * * * * * * * * * * * * * * * * * * * * * * * * * * * //

dimensions      [0 1 -1 0 0 0 0];

internalField   nonuniform List<vector> 
100
(
(3.97166e-05 0 0)
(0.000126255 0 0)
(0.000247318 0 0)
(0.000400205 0 0)
(0.000519468 0 0)
(0.000495463 0 0)
(0.000492623 0 0)
(0.000490142 0 0)
(0.000532356 0 0)
(0.000541167 0 0)
(0.0005336 0 0)
(0.000506013 0 0)
(0.00050708 0 0)
(0.000594984 0 0)
(0.000667438 0 0)
(0.000715299 0 0)
(0.000852673 0 0)
(0.000907338 0 0)
(0.000893307 0 0)
(0.000938141 0 0)
(0.000956621 0 0)
(0.000967671 0 0)
(0.000981384 0 0)
(0.000991071 0 0)
(0.00102522 0 0)
(0.00107568 0 0)
(0.00111171 0 0)
(0.0011393 0 0)
(0.00116296 0 0)
(0.00118549 0 0)
(0.00127568 0 0)
(0.00132795 0 0)
(0.00138401 0 0)
(0.00134229 0 0)
(0.0012729 0 0)
(0.00123592 0 0)
(0.00129519 0 0)
(0.00134781 0 0)
(0.00139313 0 0)
(0.00143604 0 0)
(0.00146949 0 0)
(0.00152787 0 0)
(0.00161488 0 0)
(0.0017306 0 0)
(0.00180983 0 0)
(0.00179957 0 0)
(0.00188699 0 0)
(0.00200809 0 0)
(0.00208324 0 0)
(0.00221415 0 0)
(0.00235683 0 0)
(0.00250194 0 0)
(0.00272198 0 0)
(0.00310545 0 0)
(0.0038722 0 0)
(0.00451838 0 0)
(0.00437849 0 0)
(0.00430222 0 0)
(0.00425405 0 0)
(0.00422339 0 0)
(0.00420326 0 0)
(0.0041873 0 0)
(0.00417819 0 0)
(0.00416967 0 0)
(0.00416339 0 0)
(0.00415971 0 0)
(0.00415165 0 0)
(0.00414054 0 0)
(0.00412867 0 0)
(0.00412085 0 0)
(0.00411486 0 0)
(0.00410906 0 0)
(0.00410577 0 0)
(0.00410351 0 0)
(0.00409878 0 0)
(0.00409512 0 0)
(0.00409029 0 0)
(0.00408504 0 0)
(0.00408136 0 0)
(0.00408076 0 0)
(0.00408561 0 0)
(0.00408835 0 0)
(0.00409131 0 0)
(0.00410126 0 0)
(0.00411458 0 0)
(0.00413488 0 0)
(0.00416056 0 0)
(0.00418596 0 0)
(0.00422141 0 0)
(0.00426511 0 0)
(0.0043168 0 0)
(0.00437497 0 0)
(0.00443853 0 0)
(0.00451003 0 0)
(0.00458639 0 0)
(0.00466435 0 0)
(0.0047367 0 0)
(0.0048032 0 0)
(0.00485921 0 0)
(0.00490126 0 0)
)
;

boundaryField
{
    inlet
    {
        type            fixedValue;
        value           uniform (0 0 0);
    }
    outlet
    {
        type            zeroGradient;
    }
    yzfaces
    {
        type            empty;
    }
}


// ************************************************************************* //
