/*--------------------------------*- C++ -*----------------------------------*\
| =========                 |                                                 |
| \\      /  F ield         | foam-extend: Open Source CFD                    |
|  \\    /   O peration     | Version:     5.0                                |
|   \\  /    A nd           | Web:         http://www.foam-extend.org         |
|    \\/     M anipulation  |                                                 |
\*---------------------------------------------------------------------------*/
FoamFile
{
    version     2.0;
    format      ascii;
    class       volScalarField;
    location    "1.53138650765";
    object      alpha.gas;
}
// * * * * * * * * * * * * * * * * * * * * * * * * * * * * * * * * * * * * * //

dimensions      [0 0 0 0 0 0 0];

internalField   nonuniform List<scalar> 
100
(
0.125958
0.10821
0.0973704
0.0895134
0.0834631
0.0781461
0.0735326
0.0694234
0.0655771
0.0621029
0.0584793
0.0547293
0.0511746
0.0481531
0.0364313
0.0341992
0.0344793
0.0351657
0.0355114
0.0353975
0.0348631
0.0339995
0.0328327
0.0314354
0.0298591
0.028086
0.0261359
0.0240351
0.021812
0.019537
0.0173346
0.0153254
0.0136421
0.0123492
0.0114383
0.0108474
0.0104856
0.0102738
0.0101524
0.0100858
0.0100448
0.0100214
0.010013
0.0100067
0.0100032
0.0100021
0.010002
0.00999905
0.00999657
0.00999684
0.00999718
0.00999727
0.0100002
0.0100004
0.0100023
0.0100026
0.0100026
0.0100009
0.0100006
0.0100003
0.00999688
0.00999759
0.0100001
0.0100011
0.0100019
0.00999992
0.0100012
0.0100002
0.0100012
0.0100007
0.0100015
0.0100044
0.0100031
0.0100015
0.0100005
0.0100017
0.0100003
0.00999971
0.00999891
0.00999827
0.00999941
0.0100002
0.00999952
0.010001
0.0100026
0.0100019
0.0100025
0.0100022
0.0100008
0.0100017
0.0099999
0.00999945
0.0099967
0.00999702
0.0099973
0.00999767
0.00999917
0.0099998
0.0099991
0.0100012
)
;

boundaryField
{
    inlet
    {
        type            fixedValue;
        value           uniform 0.2;
    }
    outlet
    {
        type            zeroGradient;
    }
    yzfaces
    {
        type            empty;
    }
}


// ************************************************************************* //
