/*--------------------------------*- C++ -*----------------------------------*\
| =========                 |                                                 |
| \\      /  F ield         | foam-extend: Open Source CFD                    |
|  \\    /   O peration     | Version:     5.0                                |
|   \\  /    A nd           | Web:         http://www.foam-extend.org         |
|    \\/     M anipulation  |                                                 |
\*---------------------------------------------------------------------------*/
FoamFile
{
    version     2.0;
    format      ascii;
    class       volScalarField;
    location    "1.53138650765";
    object      Cl.water;
}
// * * * * * * * * * * * * * * * * * * * * * * * * * * * * * * * * * * * * * //

dimensions      [0 0 0 0 0 0 0];

internalField   nonuniform List<scalar> 
100
(
0
0.00509738
0.00894523
0.00647537
0.00701403
0.00949578
0.0072761
0.00772753
0.0102622
0.0129815
0.00753356
0.00942166
0.0132592
0.0160983
0.00385275
0.0137338
0.0181041
0.0194622
0.0197816
0.0198876
0.0199732
0.0200858
0.0202254
0.020397
0.0206077
0.0208183
0.0210607
0.021285
0.0215436
0.0218207
0.0220899
0.0223337
0.0225421
0.022712
0.0228279
0.0228833
0.0229428
0.0229592
0.022977
0.0229714
0.022999
0.0229957
0.0229805
0.0230005
0.0229782
0.0230046
0.0230088
0.0230103
0.0230019
0.0229804
0.0229879
0.022984
0.0229893
0.0229982
0.023002
0.0229876
0.0230161
0.0230051
0.0230258
0.0229896
0.0229966
0.0229755
0.022976
0.0229709
0.0229813
0.0230114
0.0230037
0.0229827
0.0229749
0.0229814
0.0229949
0.0230067
0.0230165
0.0230221
0.0230185
0.0230125
0.0230072
0.0230039
0.0230042
0.0230266
0.0230312
0.0230135
0.0230137
0.0230008
0.023004
0.0229932
0.0230084
0.0230126
0.0230074
0.0230003
0.0230016
0.022985
0.022977
0.022978
0.0229633
0.0229535
0.0229572
0.0229699
0.0229626
0.0229726
)
;

boundaryField
{
    inlet
    {
        type            fixedValue;
        value           uniform 0;
    }
    outlet
    {
        type            zeroGradient;
    }
    yzfaces
    {
        type            empty;
    }
}


// ************************************************************************* //
