/*--------------------------------*- C++ -*----------------------------------*\
| =========                 |                                                 |
| \\      /  F ield         | foam-extend: Open Source CFD                    |
|  \\    /   O peration     | Version:     5.0                                |
|   \\  /    A nd           | Web:         http://www.foam-extend.org         |
|    \\/     M anipulation  |                                                 |
\*---------------------------------------------------------------------------*/
FoamFile
{
    version     2.0;
    format      ascii;
    class       volScalarField;
    location    "1.53138650765";
    object      CO2.water;
}
// * * * * * * * * * * * * * * * * * * * * * * * * * * * * * * * * * * * * * //

dimensions      [0 0 0 0 0 0 0];

internalField   nonuniform List<scalar> 
100
(
0.00194517
0.00130756
0.000759605
0.00149567
0.00153894
0.00113938
0.00173296
0.00174593
0.00128826
0.000795294
0.00207504
0.00176122
0.00102491
0.000493797
0.0034404
0.00137089
0.000415306
0.000108976
2.63988e-05
6.27747e-06
1.53188e-06
3.90117e-07
1.01658e-07
2.21604e-08
2.91642e-09
0
0
0
0
0
0
0
0
0
0
0
0
0
0
0
0
0
0
0
0
0
0
0
0
0
0
0
0
0
0
0
0
0
0
0
0
0
0
0
0
0
0
0
0
0
0
0
0
0
0
0
0
8.87786e-31
1.05498e-30
6.9155e-31
3.7071e-31
1.81606e-31
8.59383e-32
3.97321e-32
1.83068e-32
8.28734e-33
3.765e-33
1.70032e-33
7.68769e-34
3.42769e-34
1.53809e-34
6.75637e-35
2.96605e-35
1.28563e-35
5.51148e-36
2.3331e-36
9.68886e-37
3.92439e-37
1.54444e-37
2.75999e-38
)
;

boundaryField
{
    inlet
    {
        type            fixedValue;
        value           uniform 0;
    }
    outlet
    {
        type            zeroGradient;
    }
    yzfaces
    {
        type            empty;
    }
}


// ************************************************************************* //
