/*--------------------------------*- C++ -*----------------------------------*\
| =========                 |                                                 |
| \\      /  F ield         | foam-extend: Open Source CFD                    |
|  \\    /   O peration     | Version:     5.0                                |
|   \\  /    A nd           | Web:         http://www.foam-extend.org         |
|    \\/     M anipulation  |                                                 |
\*---------------------------------------------------------------------------*/
FoamFile
{
    version     2.0;
    format      ascii;
    class       volScalarField;
    location    "1.53138650765";
    object      H2O.gas;
}
// * * * * * * * * * * * * * * * * * * * * * * * * * * * * * * * * * * * * * //

dimensions      [0 0 0 0 0 0 0];

internalField   nonuniform List<scalar> 
100
(
7.3064e-10
8.57444e-08
5.74886e-07
2.05654e-06
5.59214e-06
1.31477e-05
2.6996e-05
5.08185e-05
9.10924e-05
0.000161788
0.000250718
0.000385263
0.000626305
0.00104475
0.000881877
0.00190839
0.00330485
0.00492246
0.00668495
0.00856873
0.010516
0.0124621
0.0143131
0.0159787
0.0173938
0.018407
0.0189565
0.0189643
0.0184563
0.0174847
0.0161941
0.0147502
0.0133784
0.0122439
0.0114032
0.010831
0.0104865
0.0102725
0.010153
0.0100804
0.0100488
0.0100213
0.0100035
0.0100078
0.0099971
0.0100041
0.0100076
0.0100076
0.0100022
0.00998956
0.0099917
0.00998891
0.00999233
0.00999621
0.00999598
0.00999021
0.0100024
0.00999648
0.0100061
0.00999403
0.00999431
0.0099873
0.00998917
0.00998941
0.0099958
0.0100069
0.0100031
0.00999593
0.00999389
0.0100003
0.0100036
0.0100088
0.0100093
0.0100119
0.0100113
0.0100085
0.0100041
0.0100022
0.0100003
0.010008
0.0100122
0.0100048
0.0100029
0.00999849
0.0100019
0.00999539
0.0100017
0.0100009
0.00999778
0.00999651
0.0100007
0.0099952
0.00999055
0.0099905
0.00998353
0.00997969
0.00998333
0.0099885
0.00998547
0.00998884
)
;

boundaryField
{
    inlet
    {
        type            fixedValue;
        value           uniform 0;
    }
    outlet
    {
        type            zeroGradient;
    }
    yzfaces
    {
        type            empty;
    }
}


// ************************************************************************* //
