/*--------------------------------*- C++ -*----------------------------------*\
| =========                 |                                                 |
| \\      /  F ield         | foam-extend: Open Source CFD                    |
|  \\    /   O peration     | Version:     5.0                                |
|   \\  /    A nd           | Web:         http://www.foam-extend.org         |
|    \\/     M anipulation  |                                                 |
\*---------------------------------------------------------------------------*/
FoamFile
{
    version     2.0;
    format      ascii;
    class       volScalarField;
    location    "1.53138650765";
    object      Na.water;
}
// * * * * * * * * * * * * * * * * * * * * * * * * * * * * * * * * * * * * * //

dimensions      [0 0 0 0 0 0 0];

internalField   nonuniform List<scalar> 
100
(
0
0.00509887
0.00894786
0.00647495
0.00701611
0.00950129
0.00727786
0.00772405
0.0102595
0.0129828
0.00752943
0.0094201
0.0132571
0.0160961
0.00385138
0.0137306
0.0181104
0.0194701
0.0197881
0.019895
0.0199762
0.0200872
0.0202189
0.0203915
0.0206049
0.0208234
0.0210645
0.021294
0.0215529
0.0218322
0.0220989
0.0223341
0.0225412
0.022708
0.0228222
0.0228816
0.0229411
0.0229597
0.0229708
0.0229677
0.0229947
0.0229797
0.0229662
0.0229938
0.0229733
0.0229931
0.0230042
0.0230033
0.0229924
0.0229713
0.0229853
0.0229816
0.0229909
0.0229996
0.0229984
0.0229831
0.023008
0.0229993
0.02302
0.0229864
0.0229991
0.0229783
0.022977
0.0229713
0.0229815
0.023014
0.0230047
0.0229857
0.0229836
0.0229954
0.0229949
0.0230039
0.0230059
0.0230143
0.0230141
0.0230111
0.023004
0.0229951
0.0229971
0.0230178
0.0230289
0.0230162
0.0230174
0.0230051
0.0230134
0.0229959
0.0230025
0.0229981
0.0229907
0.0229841
0.0230009
0.0229912
0.0229863
0.0229878
0.0229686
0.0229569
0.0229651
0.0229819
0.0229731
0.0229855
)
;

boundaryField
{
    inlet
    {
        type            fixedValue;
        value           uniform 0;
    }
    outlet
    {
        type            zeroGradient;
    }
    yzfaces
    {
        type            empty;
    }
}


// ************************************************************************* //
