/*--------------------------------*- C++ -*----------------------------------*\
| =========                 |                                                 |
| \\      /  F ield         | foam-extend: Open Source CFD                    |
|  \\    /   O peration     | Version:     5.0                                |
|   \\  /    A nd           | Web:         http://www.foam-extend.org         |
|    \\/     M anipulation  |                                                 |
\*---------------------------------------------------------------------------*/
FoamFile
{
    version     2.0;
    format      ascii;
    class       surfaceScalarField;
    location    "1.53138650765";
    object      phi;
}
// * * * * * * * * * * * * * * * * * * * * * * * * * * * * * * * * * * * * * //

dimensions      [0 3 -1 0 0 0 0];

internalField   nonuniform List<scalar> 
99
(
1.22114e-06
1.22867e-06
1.23041e-06
1.23786e-06
1.22781e-06
1.22749e-06
1.22577e-06
1.22926e-06
1.22796e-06
1.22903e-06
1.22451e-06
1.21939e-06
1.22366e-06
1.22246e-06
1.21873e-06
1.2215e-06
1.22388e-06
1.22099e-06
1.21869e-06
1.21861e-06
1.21831e-06
1.2174e-06
1.21619e-06
1.21841e-06
1.21901e-06
1.21716e-06
1.21775e-06
1.21647e-06
1.21609e-06
1.21698e-06
1.21625e-06
1.21694e-06
1.21639e-06
1.21682e-06
1.21686e-06
1.2163e-06
1.21626e-06
1.2152e-06
1.21479e-06
1.21542e-06
1.21371e-06
1.21353e-06
1.21458e-06
1.21524e-06
1.21595e-06
1.21902e-06
1.21824e-06
1.21908e-06
1.21682e-06
1.2177e-06
1.21801e-06
1.21537e-06
1.21498e-06
1.21387e-06
1.21272e-06
1.21318e-06
1.21495e-06
1.21491e-06
1.21475e-06
1.21563e-06
1.21444e-06
1.21521e-06
1.21545e-06
1.21521e-06
1.21563e-06
1.2144e-06
1.21406e-06
1.21381e-06
1.21633e-06
1.21647e-06
1.21624e-06
1.21782e-06
1.2194e-06
1.22127e-06
1.21924e-06
1.21838e-06
1.21912e-06
1.21881e-06
1.21996e-06
1.22076e-06
1.21885e-06
1.22128e-06
1.22075e-06
1.22163e-06
1.21788e-06
1.21898e-06
1.21902e-06
1.21824e-06
1.21551e-06
1.21678e-06
1.21413e-06
1.21445e-06
1.21421e-06
1.21382e-06
1.2123e-06
1.213e-06
1.21254e-06
1.21424e-06
1.21562e-06
)
;

boundaryField
{
    inlet
    {
        type            calculated;
        value           uniform -1.225e-06;
    }
    outlet
    {
        type            calculated;
        value           uniform 1.21871e-06;
    }
    yzfaces
    {
        type            empty;
    }
}


// ************************************************************************* //
