/*--------------------------------*- C++ -*----------------------------------*\
| =========                 |                                                 |
| \\      /  F ield         | foam-extend: Open Source CFD                    |
|  \\    /   O peration     | Version:     5.0                                |
|   \\  /    A nd           | Web:         http://www.foam-extend.org         |
|    \\/     M anipulation  |                                                 |
\*---------------------------------------------------------------------------*/
FoamFile
{
    version     2.0;
    format      ascii;
    class       volScalarField;
    location    "1.53138650765";
    object      S.gas;
}
// * * * * * * * * * * * * * * * * * * * * * * * * * * * * * * * * * * * * * //

dimensions      [0 0 0 0 0 0 0];

internalField   nonuniform List<scalar> 
100
(
0.629792
0.541049
0.486852
0.447567
0.417316
0.39073
0.367663
0.347117
0.327886
0.310515
0.292397
0.273646
0.255873
0.240766
0.182157
0.170996
0.172397
0.175829
0.177557
0.176988
0.174316
0.169998
0.164164
0.157177
0.149296
0.14043
0.130679
0.120175
0.10906
0.0976852
0.0866729
0.0766269
0.0682105
0.0617461
0.0571917
0.0542369
0.0524278
0.0513692
0.0507619
0.0504292
0.0502241
0.0501071
0.050065
0.0500333
0.050016
0.0500106
0.05001
0.0499953
0.0499828
0.0499842
0.0499859
0.0499864
0.0500009
0.0500022
0.0500114
0.0500128
0.0500132
0.0500045
0.0500028
0.0500015
0.0499844
0.049988
0.0500007
0.0500054
0.0500095
0.0499996
0.0500062
0.0500012
0.0500061
0.0500035
0.0500077
0.0500222
0.0500155
0.0500076
0.0500023
0.0500085
0.0500014
0.0499986
0.0499946
0.0499914
0.0499971
0.050001
0.0499976
0.0500052
0.0500132
0.0500097
0.0500127
0.0500109
0.0500042
0.0500084
0.0499995
0.0499972
0.0499835
0.0499851
0.0499865
0.0499884
0.0499958
0.049999
0.0499955
0.0500061
)
;

boundaryField
{
    inlet
    {
        type            calculated;
        value           uniform 1;
    }
    outlet
    {
        type            calculated;
        value           uniform 0.0500061;
    }
    yzfaces
    {
        type            empty;
    }
}


// ************************************************************************* //
