/*--------------------------------*- C++ -*----------------------------------*\
| =========                 |                                                 |
| \\      /  F ield         | foam-extend: Open Source CFD                    |
|  \\    /   O peration     | Version:     5.0                                |
|   \\  /    A nd           | Web:         http://www.foam-extend.org         |
|    \\/     M anipulation  |                                                 |
\*---------------------------------------------------------------------------*/
FoamFile
{
    version     2.0;
    format      ascii;
    class       volVectorField;
    location    "1.53138650765";
    object      U.gas;
}
// * * * * * * * * * * * * * * * * * * * * * * * * * * * * * * * * * * * * * //

dimensions      [0 1 -1 0 0 0 0];

internalField   nonuniform List<vector> 
100
(
(0.00785027 0 0)
(0.00896959 0 0)
(0.00979991 0 0)
(0.010473 0 0)
(0.0109777 0 0)
(0.0114068 0 0)
(0.0118121 0 0)
(0.0121877 0 0)
(0.01254 0 0)
(0.0128251 0 0)
(0.0131142 0 0)
(0.0133469 0 0)
(0.0135378 0 0)
(0.0136267 0 0)
(0.0151143 0 0)
(0.0130205 0 0)
(0.0124654 0 0)
(0.0124559 0 0)
(0.0125563 0 0)
(0.0126398 0 0)
(0.012674 0 0)
(0.0126374 0 0)
(0.0125409 0 0)
(0.0123926 0 0)
(0.0121819 0 0)
(0.0118798 0 0)
(0.0114848 0 0)
(0.0109899 0 0)
(0.0103757 0 0)
(0.00964952 0 0)
(0.00881759 0 0)
(0.00793475 0 0)
(0.00707199 0 0)
(0.006312 0 0)
(0.00571597 0 0)
(0.00528903 0 0)
(0.00500984 0 0)
(0.00483878 0 0)
(0.0047377 0 0)
(0.00468114 0 0)
(0.00464816 0 0)
(0.00462601 0 0)
(0.00461761 0 0)
(0.00461648 0 0)
(0.00461575 0 0)
(0.00462154 0 0)
(0.00462597 0 0)
(0.00462629 0 0)
(0.00462187 0 0)
(0.00461845 0 0)
(0.00462035 0 0)
(0.00461574 0 0)
(0.00461023 0 0)
(0.00460801 0 0)
(0.00460363 0 0)
(0.0046046 0 0)
(0.00460862 0 0)
(0.00461091 0 0)
(0.00461011 0 0)
(0.00461144 0 0)
(0.00461048 0 0)
(0.00460846 0 0)
(0.0046111 0 0)
(0.00461132 0 0)
(0.00461191 0 0)
(0.00461144 0 0)
(0.00460749 0 0)
(0.00460751 0 0)
(0.00461175 0 0)
(0.00461606 0 0)
(0.00461525 0 0)
(0.00461894 0 0)
(0.0046265 0 0)
(0.00463207 0 0)
(0.00463141 0 0)
(0.00462558 0 0)
(0.00462548 0 0)
(0.00462574 0 0)
(0.00462706 0 0)
(0.0046305 0 0)
(0.00462835 0 0)
(0.00463003 0 0)
(0.00463395 0 0)
(0.00463415 0 0)
(0.00462951 0 0)
(0.00462472 0 0)
(0.0046263 0 0)
(0.00462564 0 0)
(0.00461858 0 0)
(0.00461475 0 0)
(0.0046132 0 0)
(0.00460857 0 0)
(0.00460855 0 0)
(0.00460576 0 0)
(0.00460239 0 0)
(0.00460107 0 0)
(0.00460142 0 0)
(0.00460472 0 0)
(0.00461067 0 0)
(0.00461863 0 0)
)
;

boundaryField
{
    inlet
    {
        type            fixedValue;
        value           uniform (0.005 0 0);
    }
    outlet
    {
        type            zeroGradient;
    }
    yzfaces
    {
        type            empty;
    }
}


// ************************************************************************* //
