/*--------------------------------*- C++ -*----------------------------------*\
| =========                 |                                                 |
| \\      /  F ield         | foam-extend: Open Source CFD                    |
|  \\    /   O peration     | Version:     5.0                                |
|   \\  /    A nd           | Web:         http://www.foam-extend.org         |
|    \\/     M anipulation  |                                                 |
\*---------------------------------------------------------------------------*/
FoamFile
{
    version     2.0;
    format      ascii;
    class       volVectorField;
    location    "1.53138650765";
    object      U.water;
}
// * * * * * * * * * * * * * * * * * * * * * * * * * * * * * * * * * * * * * //

dimensions      [0 1 -1 0 0 0 0];

internalField   nonuniform List<vector> 
100
(
(0.000129876 0 0)
(0.000319464 0 0)
(0.000482162 0 0)
(0.000633387 0 0)
(0.000773702 0 0)
(0.00090901 0 0)
(0.00104971 0 0)
(0.00119425 0 0)
(0.00134358 0 0)
(0.00149658 0 0)
(0.00165723 0 0)
(0.00183826 0 0)
(0.00204516 0 0)
(0.0022539 0 0)
(0.00272528 0 0)
(0.00332161 0 0)
(0.00343353 0 0)
(0.00339666 0 0)
(0.00334306 0 0)
(0.0033256 0 0)
(0.00334758 0 0)
(0.00340059 0 0)
(0.00347886 0 0)
(0.00358409 0 0)
(0.00370943 0 0)
(0.00384319 0 0)
(0.00398976 0 0)
(0.00414524 0 0)
(0.00430199 0 0)
(0.00445833 0 0)
(0.00460023 0 0)
(0.0047193 0 0)
(0.0048118 0 0)
(0.00487713 0 0)
(0.00492125 0 0)
(0.00494709 0 0)
(0.00496188 0 0)
(0.00496883 0 0)
(0.00497101 0 0)
(0.00497442 0 0)
(0.00497376 0 0)
(0.00497083 0 0)
(0.00497314 0 0)
(0.00497685 0 0)
(0.00497981 0 0)
(0.00498762 0 0)
(0.00499232 0 0)
(0.00499243 0 0)
(0.00498961 0 0)
(0.00498682 0 0)
(0.00498928 0 0)
(0.00498451 0 0)
(0.00497828 0 0)
(0.00497518 0 0)
(0.00497057 0 0)
(0.00496905 0 0)
(0.00497364 0 0)
(0.00497722 0 0)
(0.00497683 0 0)
(0.0049783 0 0)
(0.00497768 0 0)
(0.00497689 0 0)
(0.00497893 0 0)
(0.00497892 0 0)
(0.00497928 0 0)
(0.00497756 0 0)
(0.0049744 0 0)
(0.00497312 0 0)
(0.00497778 0 0)
(0.00498327 0 0)
(0.00498311 0 0)
(0.0049858 0 0)
(0.00499221 0 0)
(0.00499934 0 0)
(0.00499901 0 0)
(0.00499311 0 0)
(0.00499286 0 0)
(0.00499376 0 0)
(0.00499549 0 0)
(0.00499951 0 0)
(0.00499724 0 0)
(0.00499826 0 0)
(0.00500214 0 0)
(0.00500288 0 0)
(0.00499696 0 0)
(0.00499153 0 0)
(0.0049939 0 0)
(0.00499235 0 0)
(0.00498519 0 0)
(0.00498223 0 0)
(0.00497933 0 0)
(0.00497459 0 0)
(0.00497476 0 0)
(0.00497355 0 0)
(0.00496964 0 0)
(0.00496793 0 0)
(0.00496842 0 0)
(0.0049709 0 0)
(0.00497722 0 0)
(0.00498641 0 0)
)
;

boundaryField
{
    inlet
    {
        type            fixedValue;
        value           uniform (0 0 0);
    }
    outlet
    {
        type            zeroGradient;
    }
    yzfaces
    {
        type            empty;
    }
}


// ************************************************************************* //
