/*--------------------------------*- C++ -*----------------------------------*\
| =========                 |                                                 |
| \\      /  F ield         | foam-extend: Open Source CFD                    |
|  \\    /   O peration     | Version:     5.0                                |
|   \\  /    A nd           | Web:         http://www.foam-extend.org         |
|    \\/     M anipulation  |                                                 |
\*---------------------------------------------------------------------------*/
FoamFile
{
    version     2.0;
    format      ascii;
    class       volScalarField;
    location    "4";
    object      alpha.water;
}
// * * * * * * * * * * * * * * * * * * * * * * * * * * * * * * * * * * * * * //

dimensions      [0 0 0 0 0 0 0];

internalField   nonuniform List<scalar> 
100
(
0.00164378
0.00264254
0.00359849
0.00443652
0.00511465
0.00590358
0.00670478
0.00741925
0.00808136
0.00877807
0.00949181
0.0101133
0.0107583
0.0114057
0.0120175
0.0126523
0.0132261
0.0138187
0.0143892
0.0149795
0.0155544
0.0161337
0.0166938
0.0172914
0.0178802
0.0185029
0.0191954
0.0198518
0.0204518
0.02102
0.0215633
0.0220975
0.0225972
0.0230576
0.0235045
0.0239258
0.0243025
0.0246408
0.0248868
0.0249751
0.0249751
0.0250004
0.0251387
0.0253803
0.0256236
0.025916
0.0262253
0.0265866
0.0269608
0.0273181
0.027706
0.0281051
0.0285131
0.0289564
0.0294092
0.0299014
0.0304383
0.0309248
0.0313662
0.0318015
0.0322085
0.0326084
0.0329879
0.033366
0.0337018
0.0340653
0.0344142
0.0347699
0.0351101
0.0354323
0.0357812
0.0361018
0.0363596
0.0366057
0.0367892
0.0369177
0.0370747
0.0372634
0.0374774
0.0377154
0.0380001
0.0382851
0.0386246
0.0389691
0.0393031
0.0396092
0.039903
0.040201
0.0404794
0.0407723
0.0410641
0.041355
0.0416036
0.0418183
0.0419885
0.042135
0.0422142
0.0422844
0.0424025
0.0425674
)
;

boundaryField
{
    inlet
    {
        type            fixedValue;
        value           uniform 0;
    }
    outlet
    {
        type            zeroGradient;
    }
    yzfaces
    {
        type            empty;
    }
}


// ************************************************************************* //
