/*--------------------------------*- C++ -*----------------------------------*\
| =========                 |                                                 |
| \\      /  F ield         | foam-extend: Open Source CFD                    |
|  \\    /   O peration     | Version:     5.0                                |
|   \\  /    A nd           | Web:         http://www.foam-extend.org         |
|    \\/     M anipulation  |                                                 |
\*---------------------------------------------------------------------------*/
FoamFile
{
    version     2.0;
    format      ascii;
    class       volScalarField;
    location    "4";
    object      CO2.water;
}
// * * * * * * * * * * * * * * * * * * * * * * * * * * * * * * * * * * * * * //

dimensions      [0 0 0 0 0 0 0];

internalField   nonuniform List<scalar> 
100
(
4.3173e-05
6.9405e-05
9.45127e-05
0.000116523
0.000134334
0.000155055
0.000176098
0.000194863
0.000212253
0.000230552
0.000249298
0.000265621
0.000282561
0.000299567
0.000315633
0.000332307
0.000347379
0.000362942
0.000377926
0.000393431
0.00040853
0.000423745
0.000438455
0.000454152
0.000469615
0.00048597
0.00050416
0.000521398
0.000537156
0.000552081
0.00056635
0.000580381
0.000593506
0.000605598
0.000617336
0.0006284
0.000638293
0.000647178
0.000653639
0.00065596
0.000655959
0.000656623
0.000660256
0.000666601
0.000672992
0.000680671
0.000688796
0.000698284
0.000708114
0.000717496
0.000727686
0.000738166
0.000748882
0.000760527
0.000772418
0.000785347
0.000799447
0.000812225
0.000823819
0.000835252
0.000845943
0.000856445
0.000866411
0.000876343
0.000885162
0.00089471
0.000903873
0.000913215
0.00092215
0.000930614
0.000939778
0.000948198
0.000954969
0.000961431
0.000966251
0.000969626
0.000973751
0.000978705
0.000984326
0.000990578
0.000998054
0.00100554
0.00101446
0.0010235
0.00103228
0.00104032
0.00104803
0.00105586
0.00106317
0.00107086
0.00107853
0.00108617
0.0010927
0.00109834
0.00110281
0.00110666
0.00110874
0.00111058
0.00111368
0.00111801
)
;

boundaryField
{
    inlet
    {
        type            fixedValue;
        value           uniform 0;
    }
    outlet
    {
        type            zeroGradient;
    }
    yzfaces
    {
        type            empty;
    }
}


// ************************************************************************* //
