/*--------------------------------*- C++ -*----------------------------------*\
| =========                 |                                                 |
| \\      /  F ield         | foam-extend: Open Source CFD                    |
|  \\    /   O peration     | Version:     5.0                                |
|   \\  /    A nd           | Web:         http://www.foam-extend.org         |
|    \\/     M anipulation  |                                                 |
\*---------------------------------------------------------------------------*/
FoamFile
{
    version     2.0;
    format      ascii;
    class       volScalarField;
    location    "4";
    object      H2O.water;
}
// * * * * * * * * * * * * * * * * * * * * * * * * * * * * * * * * * * * * * //

dimensions      [0 0 0 0 0 0 0];

internalField   nonuniform List<scalar> 
100
(
0.0016006
0.00257313
0.00350398
0.00432
0.00498031
0.00574852
0.00652868
0.00722439
0.0078691
0.00854752
0.00924251
0.00984766
0.0104757
0.0111062
0.0117018
0.01232
0.0128788
0.0134558
0.0140113
0.0145861
0.0151459
0.01571
0.0162553
0.0168373
0.0174106
0.0180169
0.0186913
0.0193304
0.0199146
0.0204679
0.0209969
0.0215171
0.0220037
0.022452
0.0228872
0.0232974
0.0236642
0.0239936
0.0242331
0.0243192
0.0243191
0.0243437
0.0244784
0.0247137
0.0249506
0.0252353
0.0255365
0.0258883
0.0262527
0.0266006
0.0269784
0.0273669
0.0277642
0.0281959
0.0286368
0.0291161
0.0296388
0.0301125
0.0305424
0.0309663
0.0313626
0.031752
0.0321215
0.0324897
0.0328166
0.0331706
0.0335103
0.0338567
0.0341879
0.0345017
0.0348415
0.0351536
0.0354047
0.0356443
0.0358229
0.035948
0.036101
0.0362847
0.0364931
0.0367248
0.037002
0.0372795
0.0376102
0.0379455
0.0382708
0.0385689
0.038855
0.0391451
0.0394162
0.0397014
0.0399856
0.0402688
0.0405109
0.04072
0.0408857
0.0410283
0.0411054
0.0411739
0.0412888
0.0414494
)
;

boundaryField
{
    inlet
    {
        type            fixedValue;
        value           uniform 0;
    }
    outlet
    {
        type            zeroGradient;
    }
    yzfaces
    {
        type            empty;
    }
}


// ************************************************************************* //
