/*--------------------------------*- C++ -*----------------------------------*\
| =========                 |                                                 |
| \\      /  F ield         | foam-extend: Open Source CFD                    |
|  \\    /   O peration     | Version:     5.0                                |
|   \\  /    A nd           | Web:         http://www.foam-extend.org         |
|    \\/     M anipulation  |                                                 |
\*---------------------------------------------------------------------------*/
FoamFile
{
    version     2.0;
    format      ascii;
    class       volScalarField;
    location    "4";
    object      H2O.gas;
}
// * * * * * * * * * * * * * * * * * * * * * * * * * * * * * * * * * * * * * //

dimensions      [0 0 0 0 0 0 0];

internalField   nonuniform List<scalar> 
100
(
0.000386293
0.000384348
0.000382486
0.000380854
0.000379534
0.000377997
0.000376437
0.000375045
0.000373756
0.000372399
0.000371009
0.000369799
0.000368543
0.000367282
0.000366091
0.000364854
0.000363737
0.000362583
0.000361472
0.000360322
0.000359202
0.000358074
0.000356983
0.00035582
0.000354673
0.00035346
0.000352112
0.000350833
0.000349665
0.000348558
0.0003475
0.00034646
0.000345487
0.00034459
0.00034372
0.000342899
0.000342166
0.000341507
0.000341028
0.000340856
0.000340856
0.000340807
0.000340537
0.000340067
0.000339593
0.000339024
0.000338421
0.000337718
0.000336989
0.000336293
0.000335537
0.00033476
0.000333966
0.000333102
0.000332221
0.000331262
0.000330217
0.000329269
0.000328409
0.000327562
0.000326769
0.00032599
0.000325251
0.000324515
0.000323861
0.000323153
0.000322474
0.000321781
0.000321118
0.000320491
0.000319811
0.000319187
0.000318685
0.000318206
0.000317848
0.000317598
0.000317292
0.000316925
0.000316508
0.000316045
0.00031549
0.000314935
0.000314274
0.000313603
0.000312953
0.000312356
0.000311784
0.000311204
0.000310662
0.000310091
0.000309523
0.000308957
0.000308472
0.000308054
0.000307723
0.000307438
0.000307283
0.000307146
0.000306917
0.000306595
)
;

boundaryField
{
    inlet
    {
        type            fixedValue;
        value           uniform 0;
    }
    outlet
    {
        type            zeroGradient;
    }
    yzfaces
    {
        type            empty;
    }
}


// ************************************************************************* //
