/*--------------------------------*- C++ -*----------------------------------*\
| =========                 |                                                 |
| \\      /  F ield         | foam-extend: Open Source CFD                    |
|  \\    /   O peration     | Version:     5.0                                |
|   \\  /    A nd           | Web:         http://www.foam-extend.org         |
|    \\/     M anipulation  |                                                 |
\*---------------------------------------------------------------------------*/
FoamFile
{
    version     2.0;
    format      ascii;
    class       surfaceScalarField;
    location    "4";
    object      phi.water;
}
// * * * * * * * * * * * * * * * * * * * * * * * * * * * * * * * * * * * * * //

dimensions      [0 3 -1 0 0 0 0];

internalField   nonuniform List<scalar> 
99
(
2.2301e-07
3.99926e-07
5.81628e-07
7.50118e-07
8.70301e-07
1.02167e-06
1.18587e-06
1.33282e-06
1.46367e-06
1.60528e-06
1.7622e-06
1.89143e-06
2.02896e-06
2.17278e-06
2.30553e-06
2.45274e-06
2.5801e-06
2.71752e-06
2.84716e-06
2.98744e-06
3.12228e-06
3.26339e-06
3.39523e-06
3.54304e-06
3.68515e-06
3.83538e-06
4.01577e-06
4.19128e-06
4.35166e-06
4.50468e-06
4.65245e-06
4.80159e-06
4.94223e-06
5.07133e-06
5.20008e-06
5.32399e-06
5.43624e-06
5.54393e-06
5.63346e-06
5.66917e-06
5.66698e-06
5.66103e-06
5.69039e-06
5.7598e-06
5.82538e-06
5.90862e-06
5.99466e-06
6.10022e-06
6.21583e-06
6.32007e-06
6.43666e-06
6.55925e-06
6.68223e-06
6.82088e-06
6.96019e-06
7.11156e-06
7.29294e-06
7.45889e-06
7.60678e-06
7.75599e-06
7.89482e-06
8.03441e-06
8.16509e-06
8.30214e-06
8.41614e-06
8.54748e-06
8.67153e-06
8.79979e-06
8.92518e-06
9.03869e-06
9.17089e-06
9.29699e-06
9.39432e-06
9.49522e-06
9.57174e-06
9.61628e-06
9.67124e-06
9.73951e-06
9.81665e-06
9.90083e-06
1.00099e-05
1.01121e-05
1.02433e-05
1.03793e-05
1.05162e-05
1.06387e-05
1.07562e-05
1.08782e-05
1.09905e-05
1.11102e-05
1.12307e-05
1.13579e-05
1.14675e-05
1.15634e-05
1.16378e-05
1.17107e-05
1.17442e-05
1.17667e-05
1.18105e-05
)
;

boundaryField
{
    inlet
    {
        type            fixedValue;
        value           uniform 0;
    }
    outlet
    {
        type            calculated;
        value           uniform 1.19055e-05;
    }
    yzfaces
    {
        type            empty;
    }
}


// ************************************************************************* //
