/*--------------------------------*- C++ -*----------------------------------*\
| =========                 |                                                 |
| \\      /  F ield         | foam-extend: Open Source CFD                    |
|  \\    /   O peration     | Version:     5.0                                |
|   \\  /    A nd           | Web:         http://www.foam-extend.org         |
|    \\/     M anipulation  |                                                 |
\*---------------------------------------------------------------------------*/
FoamFile
{
    version     2.0;
    format      ascii;
    class       surfaceScalarField;
    location    "4";
    object      phi.gas;
}
// * * * * * * * * * * * * * * * * * * * * * * * * * * * * * * * * * * * * * //

dimensions      [0 3 -1 0 0 0 0];

internalField   nonuniform List<scalar> 
99
(
0.000619068
0.000622294
0.000625107
0.000627537
0.0006299
0.000632574
0.000634977
0.00063712
0.000639325
0.000641709
0.000643927
0.000646049
0.000648145
0.000650331
0.00065257
0.000654698
0.000656645
0.000658699
0.000660696
0.000662908
0.000664865
0.000666918
0.000669023
0.000671188
0.00067328
0.000675829
0.000678324
0.000680652
0.000682815
0.000684833
0.000687017
0.000689057
0.000690762
0.000692446
0.000694205
0.000695743
0.000697227
0.000698372
0.000699084
0.000699235
0.000699395
0.000699609
0.000700457
0.000701278
0.000702277
0.000703303
0.000704642
0.000705988
0.000707534
0.000708933
0.000710359
0.00071203
0.000713729
0.000715624
0.000717562
0.000719554
0.000721774
0.0007238
0.000725676
0.000727481
0.000729254
0.000730903
0.000732536
0.000734113
0.000735637
0.000737312
0.000738927
0.000740316
0.000741805
0.000743253
0.000744813
0.000746104
0.000747241
0.000748244
0.000748957
0.0007496
0.000750336
0.000751235
0.000752169
0.000753275
0.000754539
0.000755875
0.000757398
0.000758897
0.000760421
0.000761717
0.000763108
0.00076434
0.000765737
0.00076706
0.000768478
0.000769758
0.000770917
0.000771793
0.000772513
0.000773128
0.000773415
0.000773828
0.000774486
)
;

boundaryField
{
    inlet
    {
        type            fixedValue;
        value           uniform -0.0006125;
    }
    outlet
    {
        type            calculated;
        value           uniform 0.000775053;
    }
    yzfaces
    {
        type            empty;
    }
}


// ************************************************************************* //
