/*--------------------------------*- C++ -*----------------------------------*\
| =========                 |                                                 |
| \\      /  F ield         | foam-extend: Open Source CFD                    |
|  \\    /   O peration     | Version:     5.0                                |
|   \\  /    A nd           | Web:         http://www.foam-extend.org         |
|    \\/     M anipulation  |                                                 |
\*---------------------------------------------------------------------------*/
FoamFile
{
    version     2.0;
    format      ascii;
    class       volVectorField;
    location    "4";
    object      U.water;
}
// * * * * * * * * * * * * * * * * * * * * * * * * * * * * * * * * * * * * * //

dimensions      [0 1 -1 0 0 0 0];

internalField   nonuniform List<vector> 
100
(
(0.000118674 0 0)
(0.000266582 0 0)
(0.000406597 0 0)
(0.000544546 0 0)
(0.000668475 0 0)
(0.000776763 0 0)
(0.000901916 0 0)
(0.00102905 0 0)
(0.00114493 0 0)
(0.00125557 0 0)
(0.00137339 0 0)
(0.0014938 0 0)
(0.00160198 0 0)
(0.0017153 0 0)
(0.00183012 0 0)
(0.00194121 0 0)
(0.0020561 0 0)
(0.00216259 0 0)
(0.00227307 0 0)
(0.0023819 0 0)
(0.00249495 0 0)
(0.00260664 0 0)
(0.00272024 0 0)
(0.00283259 0 0)
(0.00295263 0 0)
(0.00307347 0 0)
(0.00320424 0 0)
(0.00334858 0 0)
(0.00348656 0 0)
(0.00361459 0 0)
(0.00373773 0 0)
(0.00385778 0 0)
(0.003976 0 0)
(0.00408722 0 0)
(0.00419181 0 0)
(0.00429392 0 0)
(0.00439038 0 0)
(0.00447752 0 0)
(0.00455484 0 0)
(0.00460906 0 0)
(0.00462811 0 0)
(0.00462892 0 0)
(0.00463802 0 0)
(0.00467378 0 0)
(0.0047313 0 0)
(0.00479079 0 0)
(0.00486149 0 0)
(0.0049378 0 0)
(0.00502649 0 0)
(0.00511851 0 0)
(0.00520791 0 0)
(0.0053053 0 0)
(0.00540661 0 0)
(0.00551226 0 0)
(0.00562735 0 0)
(0.00574637 0 0)
(0.00587757 0 0)
(0.00601933 0 0)
(0.00614921 0 0)
(0.00626941 0 0)
(0.00638789 0 0)
(0.00650074 0 0)
(0.00661198 0 0)
(0.00671932 0 0)
(0.0068254 0 0)
(0.00692339 0 0)
(0.00702866 0 0)
(0.00713062 0 0)
(0.00723406 0 0)
(0.00733387 0 0)
(0.00743129 0 0)
(0.00753476 0 0)
(0.00762848 0 0)
(0.00770667 0 0)
(0.00777948 0 0)
(0.00783338 0 0)
(0.00787424 0 0)
(0.00792424 0 0)
(0.00798363 0 0)
(0.00805084 0 0)
(0.00812729 0 0)
(0.00821639 0 0)
(0.00830902 0 0)
(0.00841718 0 0)
(0.00852752 0 0)
(0.00863425 0 0)
(0.00873317 0 0)
(0.00882958 0 0)
(0.00892693 0 0)
(0.00902079 0 0)
(0.00911888 0 0)
(0.00921756 0 0)
(0.00931437 0 0)
(0.00939767 0 0)
(0.00946855 0 0)
(0.00952614 0 0)
(0.00957283 0 0)
(0.00959906 0 0)
(0.00962601 0 0)
(0.00967037 0 0)
)
;

boundaryField
{
    inlet
    {
        type            fixedValue;
        value           uniform (0 0 0);
    }
    outlet
    {
        type            zeroGradient;
    }
    yzfaces
    {
        type            empty;
    }
}


// ************************************************************************* //
