/*--------------------------------*- C++ -*----------------------------------*\
| =========                 |                                                 |
| \\      /  F ield         | foam-extend: Open Source CFD                    |
|  \\    /   O peration     | Version:     5.0                                |
|   \\  /    A nd           | Web:         http://www.foam-extend.org         |
|    \\/     M anipulation  |                                                 |
\*---------------------------------------------------------------------------*/
FoamFile
{
    version     2.0;
    format      ascii;
    class       volScalarField;
    location    "8.62122";
    object      CO2.water;
}
// * * * * * * * * * * * * * * * * * * * * * * * * * * * * * * * * * * * * * //

dimensions      [0 0 0 0 0 0 0];

internalField   nonuniform List<scalar> 
100
(
6.14373e-05
1.34119e-05
2.41631e-06
3.92952e-07
5.98662e-08
8.71375e-09
1.22535e-09
1.67666e-10
2.2431e-11
2.94491e-12
3.80417e-13
4.84499e-14
6.09218e-15
7.57275e-16
9.31576e-17
1.13527e-17
1.37149e-18
1.64324e-19
1.95398e-20
2.30711e-21
2.70562e-22
3.15248e-23
3.65161e-24
4.20521e-25
4.81582e-26
5.48662e-27
6.21913e-28
7.01529e-29
7.87735e-30
8.80532e-31
9.79923e-32
1.08607e-32
1.19875e-33
1.31787e-34
1.44348e-35
1.57508e-36
1.71238e-37
1.8553e-38
2.00308e-39
2.15562e-40
2.31202e-41
2.47193e-42
2.63498e-43
2.8003e-44
2.96692e-45
3.13424e-46
3.30163e-47
3.46867e-48
3.63416e-49
3.7976e-50
3.9576e-51
4.11354e-52
4.26514e-53
4.41117e-54
4.55137e-55
4.68452e-56
4.81023e-57
4.92793e-58
5.037e-59
5.13712e-60
5.22734e-61
5.30849e-62
5.37883e-63
5.43937e-64
5.48849e-65
5.52705e-66
5.55432e-67
5.57052e-68
5.57589e-69
5.56994e-70
5.55468e-71
5.52757e-72
5.49216e-73
5.44639e-74
5.39191e-75
5.32894e-76
5.25787e-77
5.17837e-78
5.09122e-79
4.99682e-80
4.89598e-81
4.78863e-82
4.67695e-83
4.56022e-84
4.44e-85
4.31616e-86
4.18912e-87
4.05994e-88
3.92851e-89
3.79622e-90
3.66324e-91
3.52987e-92
3.39611e-93
3.26293e-94
3.13056e-95
2.9998e-96
2.87049e-97
2.74314e-98
2.6179e-99
2.49564e-100
)
;

boundaryField
{
    inlet
    {
        type            fixedValue;
        value           uniform 0;
    }
    outlet
    {
        type            zeroGradient;
    }
    yzfaces
    {
        type            empty;
    }
}


// ************************************************************************* //
