/*--------------------------------*- C++ -*----------------------------------*\
| =========                 |                                                 |
| \\      /  F ield         | foam-extend: Open Source CFD                    |
|  \\    /   O peration     | Version:     5.0                                |
|   \\  /    A nd           | Web:         http://www.foam-extend.org         |
|    \\/     M anipulation  |                                                 |
\*---------------------------------------------------------------------------*/
FoamFile
{
    version     2.0;
    format      ascii;
    class       volScalarField;
    location    "4";
    object      alpha.gas;
}
// * * * * * * * * * * * * * * * * * * * * * * * * * * * * * * * * * * * * * //

dimensions      [0 0 0 0 0 0 0];

internalField   nonuniform List<scalar> 
100
(
0.151711
0.136257
0.12721
0.119334
0.11299
0.107741
0.103245
0.0993762
0.0955248
0.092849
0.0901199
0.0877611
0.0857843
0.0838865
0.0820836
0.0802145
0.0787109
0.0770177
0.075206
0.074056
0.0724723
0.0712264
0.069929
0.0687754
0.0674985
0.0664424
0.0654003
0.064329
0.063438
0.0625461
0.0615069
0.0605494
0.0597279
0.0589026
0.0581104
0.0572826
0.0564971
0.0556866
0.0548823
0.0541489
0.0533678
0.0526317
0.0518761
0.0511094
0.050303
0.0496332
0.0489169
0.0481802
0.0473511
0.0465688
0.0456853
0.0448543
0.0440088
0.0431661
0.0423247
0.0415562
0.040716
0.0398257
0.0389321
0.0380108
0.0370787
0.0360576
0.0349864
0.0338672
0.0326462
0.0313697
0.0299709
0.0284512
0.0268287
0.0250841
0.0231947
0.0212248
0.019212
0.0172443
0.015414
0.0138363
0.0125759
0.0116517
0.0110235
0.0106131
0.0103652
0.0102131
0.0101194
0.0100692
0.0100366
0.0100172
0.0100134
0.0100057
0.0100026
0.00999877
0.00999783
0.00999666
0.00999441
0.0099931
0.00999333
0.00999376
0.00999438
0.00999569
0.00999839
0.0100025
)
;

boundaryField
{
    inlet
    {
        type            fixedValue;
        value           uniform 0.2;
    }
    outlet
    {
        type            zeroGradient;
    }
    yzfaces
    {
        type            empty;
    }
}


// ************************************************************************* //
