/*--------------------------------*- C++ -*----------------------------------*\
| =========                 |                                                 |
| \\      /  F ield         | foam-extend: Open Source CFD                    |
|  \\    /   O peration     | Version:     5.0                                |
|   \\  /    A nd           | Web:         http://www.foam-extend.org         |
|    \\/     M anipulation  |                                                 |
\*---------------------------------------------------------------------------*/
FoamFile
{
    version     2.0;
    format      ascii;
    class       volScalarField;
    location    "4";
    object      Cl.water;
}
// * * * * * * * * * * * * * * * * * * * * * * * * * * * * * * * * * * * * * //

dimensions      [0 0 0 0 0 0 0];

internalField   nonuniform List<scalar> 
100
(
0.00554496
0.00732305
0.00836144
0.00926685
0.00999501
0.0105988
0.0111119
0.0115553
0.0120002
0.0123072
0.0126229
0.0128917
0.01312
0.0133356
0.0135407
0.0137546
0.0139302
0.0141232
0.0143325
0.0144691
0.0146501
0.0147893
0.0149382
0.01507
0.0152183
0.0153402
0.0154574
0.0155846
0.0156818
0.0157856
0.015907
0.0160165
0.0161147
0.0162038
0.0162945
0.0163906
0.0164794
0.0165758
0.0166729
0.0167562
0.016847
0.0169307
0.0170171
0.017105
0.0171949
0.0172699
0.0173506
0.0174313
0.0175284
0.0176189
0.017714
0.0178094
0.0179119
0.0180184
0.0181236
0.0181903
0.0182939
0.018411
0.0185057
0.0186104
0.0187078
0.0188319
0.0189535
0.0190747
0.0192273
0.0193579
0.0195259
0.0197068
0.0198867
0.0200787
0.0203009
0.0205212
0.020756
0.0209854
0.0212074
0.0213931
0.0215227
0.021625
0.021706
0.0217592
0.0217821
0.0218061
0.021811
0.0218132
0.021825
0.0218156
0.0218118
0.0218227
0.0218175
0.0218308
0.0218386
0.0218335
0.0218238
0.0218159
0.02182
0.0218147
0.0218149
0.0218099
0.0217979
0.0218136
)
;

boundaryField
{
    inlet
    {
        type            fixedValue;
        value           uniform 0;
    }
    outlet
    {
        type            zeroGradient;
    }
    yzfaces
    {
        type            empty;
    }
}


// ************************************************************************* //
