/*--------------------------------*- C++ -*----------------------------------*\
| =========                 |                                                 |
| \\      /  F ield         | foam-extend: Open Source CFD                    |
|  \\    /   O peration     | Version:     5.0                                |
|   \\  /    A nd           | Web:         http://www.foam-extend.org         |
|    \\/     M anipulation  |                                                 |
\*---------------------------------------------------------------------------*/
FoamFile
{
    version     2.0;
    format      ascii;
    class       volScalarField;
    location    "4";
    object      H2O.gas;
}
// * * * * * * * * * * * * * * * * * * * * * * * * * * * * * * * * * * * * * //

dimensions      [0 0 0 0 0 0 0];

internalField   nonuniform List<scalar> 
100
(
0.000294768
0.000266513
0.000248663
0.000232294
0.000218684
0.000209652
0.000201976
0.000194165
0.000187599
0.000181499
0.000176364
0.000171103
0.000167488
0.00016399
0.00016028
0.000156311
0.000153171
0.000150265
0.000147295
0.000144365
0.000141577
0.00013902
0.000137
0.000134574
0.000131992
0.000129718
0.000127782
0.000125563
0.00012352
0.000121682
0.000120084
0.000118544
0.000116835
0.000115091
0.00011334
0.00011168
0.000110105
0.000108633
0.000106979
0.000105472
0.000103732
0.000102392
0.000100983
9.96075e-05
9.81181e-05
9.65908e-05
9.51491e-05
9.36794e-05
9.23016e-05
9.06317e-05
8.91539e-05
8.74761e-05
8.58415e-05
8.41933e-05
8.26271e-05
8.09747e-05
7.92664e-05
0.00711815
0.0102224
0.0130388
0.0155379
0.0177067
0.0195589
0.0210809
0.022254
0.0230195
0.0234321
0.0234815
0.0231286
0.0224045
0.0213327
0.0199794
0.0183928
0.0167411
0.0151099
0.0136533
0.0124627
0.0115821
0.0109821
0.0105867
0.0103444
0.0101944
0.010111
0.0100525
0.0100283
0.0100036
0.00999712
0.00999189
0.00998412
0.00998267
0.00999683
0.00999141
0.0099964
0.0100016
0.0100051
0.0100073
0.0100006
0.0099893
0.00999548
0.00999371
)
;

boundaryField
{
    inlet
    {
        type            fixedValue;
        value           uniform 0;
    }
    outlet
    {
        type            zeroGradient;
    }
    yzfaces
    {
        type            empty;
    }
}


// ************************************************************************* //
