/*--------------------------------*- C++ -*----------------------------------*\
| =========                 |                                                 |
| \\      /  F ield         | foam-extend: Open Source CFD                    |
|  \\    /   O peration     | Version:     5.0                                |
|   \\  /    A nd           | Web:         http://www.foam-extend.org         |
|    \\/     M anipulation  |                                                 |
\*---------------------------------------------------------------------------*/
FoamFile
{
    version     2.0;
    format      ascii;
    class       volScalarField;
    location    "4";
    object      Na.water;
}
// * * * * * * * * * * * * * * * * * * * * * * * * * * * * * * * * * * * * * //

dimensions      [0 0 0 0 0 0 0];

internalField   nonuniform List<scalar> 
100
(
0.00558542
0.00725365
0.00830528
0.00927024
0.0100709
0.010603
0.011059
0.0115162
0.0119032
0.0122613
0.0125673
0.0128796
0.0130885
0.013295
0.0135123
0.0137467
0.0139339
0.0141059
0.0142842
0.0144516
0.014615
0.0147605
0.0148861
0.0150329
0.0151879
0.0153198
0.0154371
0.0155658
0.015687
0.0157933
0.0158885
0.0159773
0.0160759
0.0161834
0.0162876
0.0163841
0.0164754
0.0165624
0.0166541
0.0167458
0.0168485
0.0169292
0.0170125
0.0170947
0.017177
0.0172717
0.0173526
0.017441
0.0175221
0.0176176
0.017712
0.0178124
0.0179055
0.0179995
0.0180955
0.0181864
0.0182852
0.0193345
0.0194922
0.0196171
0.0197243
0.0198361
0.0199797
0.0201283
0.0202952
0.0204411
0.0206082
0.0208161
0.0210132
0.0212238
0.0214526
0.0216879
0.0219087
0.0221645
0.022385
0.0225586
0.0226878
0.0227866
0.0228757
0.0229151
0.0229588
0.0229678
0.0229839
0.0229652
0.0229793
0.0229617
0.0229663
0.0229686
0.0229525
0.0229552
0.02299
0.0229775
0.0229873
0.0229981
0.02301
0.0230137
0.0230075
0.0229788
0.0229921
0.0229808
)
;

boundaryField
{
    inlet
    {
        type            fixedValue;
        value           uniform 0;
    }
    outlet
    {
        type            zeroGradient;
    }
    yzfaces
    {
        type            empty;
    }
}


// ************************************************************************* //
