/*--------------------------------*- C++ -*----------------------------------*\
| =========                 |                                                 |
| \\      /  F ield         | foam-extend: Open Source CFD                    |
|  \\    /   O peration     | Version:     5.0                                |
|   \\  /    A nd           | Web:         http://www.foam-extend.org         |
|    \\/     M anipulation  |                                                 |
\*---------------------------------------------------------------------------*/
FoamFile
{
    version     2.0;
    format      ascii;
    class       surfaceScalarField;
    location    "4";
    object      phi.water;
}
// * * * * * * * * * * * * * * * * * * * * * * * * * * * * * * * * * * * * * //

dimensions      [0 3 -1 0 0 0 0];

internalField   nonuniform List<scalar> 
99
(
1.25133e-07
2.21658e-07
2.89849e-07
3.65298e-07
4.38598e-07
5.08504e-07
5.76153e-07
6.42941e-07
7.19471e-07
7.73613e-07
8.3106e-07
9.02614e-07
9.48979e-07
1.00419e-06
1.06041e-06
1.12162e-06
1.16528e-06
1.22074e-06
1.29705e-06
1.33276e-06
1.40267e-06
1.45703e-06
1.51407e-06
1.5651e-06
1.62474e-06
1.67331e-06
1.72686e-06
1.78338e-06
1.8297e-06
1.8732e-06
1.93231e-06
1.98613e-06
2.03409e-06
2.08504e-06
2.1309e-06
2.18376e-06
2.22883e-06
2.28231e-06
2.33441e-06
2.37798e-06
2.44109e-06
2.49826e-06
2.55296e-06
2.61386e-06
2.68279e-06
2.72509e-06
2.7744e-06
2.81945e-06
2.88655e-06
2.93969e-06
3.01989e-06
3.09048e-06
3.16532e-06
3.24428e-06
3.32348e-06
3.38213e-06
3.45703e-06
3.5431e-06
3.62632e-06
3.71274e-06
3.80292e-06
3.90421e-06
4.01179e-06
4.12428e-06
4.25251e-06
4.37134e-06
4.50768e-06
4.66429e-06
4.82101e-06
4.98019e-06
5.15097e-06
5.31745e-06
5.47458e-06
5.61616e-06
5.7367e-06
5.83541e-06
5.89048e-06
5.92974e-06
5.95521e-06
5.97581e-06
5.98387e-06
5.99159e-06
5.99772e-06
5.99779e-06
6.00736e-06
6.00489e-06
6.00969e-06
6.01506e-06
6.01012e-06
5.99726e-06
6.00322e-06
5.99412e-06
5.9962e-06
5.99857e-06
5.99949e-06
6e-06
5.99969e-06
6.00568e-06
5.99982e-06
)
;

boundaryField
{
    inlet
    {
        type            fixedValue;
        value           uniform 0;
    }
    outlet
    {
        type            calculated;
        value           uniform 5.99808e-06;
    }
    yzfaces
    {
        type            empty;
    }
}


// ************************************************************************* //
