/*--------------------------------*- C++ -*----------------------------------*\
| =========                 |                                                 |
| \\      /  F ield         | foam-extend: Open Source CFD                    |
|  \\    /   O peration     | Version:     5.0                                |
|   \\  /    A nd           | Web:         http://www.foam-extend.org         |
|    \\/     M anipulation  |                                                 |
\*---------------------------------------------------------------------------*/
FoamFile
{
    version     2.0;
    format      ascii;
    class       volVectorField;
    location    "4";
    object      U.gas;
}
// * * * * * * * * * * * * * * * * * * * * * * * * * * * * * * * * * * * * * //

dimensions      [0 1 -1 0 0 0 0];

internalField   nonuniform List<vector> 
100
(
(0.0065653 0 0)
(0.00728274 0 0)
(0.007749 0 0)
(0.00815122 0 0)
(0.00849412 0 0)
(0.00879916 0 0)
(0.0090714 0 0)
(0.0093284 0 0)
(0.00962599 0 0)
(0.00980195 0 0)
(0.00997053 0 0)
(0.0101916 0 0)
(0.0103903 0 0)
(0.0105293 0 0)
(0.010703 0 0)
(0.0108978 0 0)
(0.0110193 0 0)
(0.0111378 0 0)
(0.0113169 0 0)
(0.0114042 0 0)
(0.0115461 0 0)
(0.0116658 0 0)
(0.0117975 0 0)
(0.0118942 0 0)
(0.011997 0 0)
(0.012064 0 0)
(0.0121468 0 0)
(0.0122415 0 0)
(0.0123034 0 0)
(0.012359 0 0)
(0.0124363 0 0)
(0.0125003 0 0)
(0.0125442 0 0)
(0.0126001 0 0)
(0.0126423 0 0)
(0.01269 0 0)
(0.0127246 0 0)
(0.0127628 0 0)
(0.0127996 0 0)
(0.0128076 0 0)
(0.0128535 0 0)
(0.0129059 0 0)
(0.0129491 0 0)
(0.012994 0 0)
(0.0130546 0 0)
(0.0130605 0 0)
(0.01305 0 0)
(0.0130223 0 0)
(0.013017 0 0)
(0.0129949 0 0)
(0.0129975 0 0)
(0.0129942 0 0)
(0.0129896 0 0)
(0.0129864 0 0)
(0.0129805 0 0)
(0.0129341 0 0)
(0.0128888 0 0)
(0.0128504 0 0)
(0.0128035 0 0)
(0.0127426 0 0)
(0.0126678 0 0)
(0.0125975 0 0)
(0.0125059 0 0)
(0.0123926 0 0)
(0.0122647 0 0)
(0.0120899 0 0)
(0.0118746 0 0)
(0.0116217 0 0)
(0.0113115 0 0)
(0.0109235 0 0)
(0.0104585 0 0)
(0.00989392 0 0)
(0.00923764 0 0)
(0.00850538 0 0)
(0.00773352 0 0)
(0.00697326 0 0)
(0.00628537 0 0)
(0.00571188 0 0)
(0.00528721 0 0)
(0.00500107 0 0)
(0.00481595 0 0)
(0.00470325 0 0)
(0.00463518 0 0)
(0.00459123 0 0)
(0.0045701 0 0)
(0.00455877 0 0)
(0.00455026 0 0)
(0.00455153 0 0)
(0.00454937 0 0)
(0.00454313 0 0)
(0.00453991 0 0)
(0.00453784 0 0)
(0.00453329 0 0)
(0.00453217 0 0)
(0.00453234 0 0)
(0.0045336 0 0)
(0.00453424 0 0)
(0.00453508 0 0)
(0.00453406 0 0)
(0.0045331 0 0)
)
;

boundaryField
{
    inlet
    {
        type            fixedValue;
        value           uniform (0.005 0 0);
    }
    outlet
    {
        type            zeroGradient;
    }
    yzfaces
    {
        type            empty;
    }
}


// ************************************************************************* //
