/*--------------------------------*- C++ -*----------------------------------*\
| =========                 |                                                 |
| \\      /  F ield         | foam-extend: Open Source CFD                    |
|  \\    /   O peration     | Version:     5.0                                |
|   \\  /    A nd           | Web:         http://www.foam-extend.org         |
|    \\/     M anipulation  |                                                 |
\*---------------------------------------------------------------------------*/
FoamFile
{
    version     2.0;
    format      ascii;
    class       volVectorField;
    location    "4";
    object      U.water;
}
// * * * * * * * * * * * * * * * * * * * * * * * * * * * * * * * * * * * * * //

dimensions      [0 1 -1 0 0 0 0];

internalField   nonuniform List<vector> 
100
(
(5.91764e-05 0 0)
(0.0001417 0 0)
(0.000209832 0 0)
(0.000268076 0 0)
(0.000328526 0 0)
(0.000386974 0 0)
(0.000443026 0 0)
(0.000498053 0 0)
(0.000554589 0 0)
(0.000609611 0 0)
(0.000654267 0 0)
(0.000706246 0 0)
(0.000755332 0 0)
(0.000797027 0 0)
(0.000842074 0 0)
(0.000889669 0 0)
(0.000934702 0 0)
(0.000974771 0 0)
(0.0010265 0 0)
(0.00107483 0 0)
(0.00111582 0 0)
(0.00116672 0 0)
(0.0012121 0 0)
(0.00125711 0 0)
(0.00130145 0 0)
(0.00134637 0 0)
(0.00138809 0 0)
(0.00143214 0 0)
(0.00147503 0 0)
(0.00151252 0 0)
(0.00155342 0 0)
(0.00159899 0 0)
(0.00164087 0 0)
(0.00168112 0 0)
(0.00172096 0 0)
(0.0017612 0 0)
(0.00180158 0 0)
(0.0018418 0 0)
(0.00188503 0 0)
(0.00192413 0 0)
(0.00196599 0 0)
(0.00201506 0 0)
(0.00206129 0 0)
(0.00210825 0 0)
(0.00216058 0 0)
(0.0022081 0 0)
(0.0022468 0 0)
(0.00228538 0 0)
(0.00233026 0 0)
(0.00237981 0 0)
(0.00243255 0 0)
(0.00249371 0 0)
(0.0025529 0 0)
(0.00261491 0 0)
(0.00267963 0 0)
(0.00273828 0 0)
(0.00279266 0 0)
(0.00285695 0 0)
(0.00292622 0 0)
(0.00299578 0 0)
(0.00306803 0 0)
(0.00314536 0 0)
(0.00323044 0 0)
(0.00332052 0 0)
(0.00341866 0 0)
(0.00352084 0 0)
(0.00362483 0 0)
(0.00374333 0 0)
(0.00387192 0 0)
(0.00400173 0 0)
(0.00413596 0 0)
(0.00427359 0 0)
(0.00440544 0 0)
(0.00452623 0 0)
(0.00463111 0 0)
(0.00471996 0 0)
(0.00478421 0 0)
(0.00482396 0 0)
(0.00484987 0 0)
(0.00486813 0 0)
(0.00488053 0 0)
(0.00488732 0 0)
(0.00489316 0 0)
(0.00489537 0 0)
(0.00489881 0 0)
(0.00490217 0 0)
(0.00490325 0 0)
(0.00490749 0 0)
(0.00490892 0 0)
(0.0049035 0 0)
(0.00490166 0 0)
(0.00489933 0 0)
(0.00489471 0 0)
(0.00489577 0 0)
(0.00489724 0 0)
(0.00489798 0 0)
(0.00489792 0 0)
(0.0048988 0 0)
(0.00489703 0 0)
(0.00489367 0 0)
)
;

boundaryField
{
    inlet
    {
        type            fixedValue;
        value           uniform (0 0 0);
    }
    outlet
    {
        type            zeroGradient;
    }
    yzfaces
    {
        type            empty;
    }
}


// ************************************************************************* //
