/*--------------------------------*- C++ -*----------------------------------*\
| =========                 |                                                 |
| \\      /  F ield         | foam-extend: Open Source CFD                    |
|  \\    /   O peration     | Version:     5.0                                |
|   \\  /    A nd           | Web:         http://www.foam-extend.org         |
|    \\/     M anipulation  |                                                 |
\*---------------------------------------------------------------------------*/
FoamFile
{
    version     2.0;
    format      ascii;
    class       volVectorField;
    location    "4";
    object      U.water;
}
// * * * * * * * * * * * * * * * * * * * * * * * * * * * * * * * * * * * * * //

dimensions      [0 1 -1 0 0 0 0];

internalField   nonuniform List<vector> 
100
(
(6.03697e-05 0 0)
(0.000141521 0 0)
(0.000207012 0 0)
(0.000267915 0 0)
(0.000336091 0 0)
(0.000400166 0 0)
(0.000452377 0 0)
(0.000506271 0 0)
(0.000563242 0 0)
(0.000615828 0 0)
(0.000667821 0 0)
(0.000720975 0 0)
(0.000771673 0 0)
(0.000813085 0 0)
(0.000858806 0 0)
(0.000912539 0 0)
(0.000967407 0 0)
(0.00101189 0 0)
(0.00105534 0 0)
(0.00110161 0 0)
(0.0011506 0 0)
(0.00119788 0 0)
(0.00123797 0 0)
(0.00127757 0 0)
(0.00132471 0 0)
(0.00137617 0 0)
(0.00141991 0 0)
(0.00146047 0 0)
(0.00150749 0 0)
(0.00155398 0 0)
(0.00159621 0 0)
(0.00163282 0 0)
(0.00167228 0 0)
(0.00171652 0 0)
(0.0017634 0 0)
(0.00181334 0 0)
(0.00185933 0 0)
(0.00189814 0 0)
(0.00194126 0 0)
(0.00198838 0 0)
(0.00204115 0 0)
(0.00209308 0 0)
(0.00213377 0 0)
(0.0021767 0 0)
(0.00222003 0 0)
(0.00227129 0 0)
(0.00232212 0 0)
(0.00237301 0 0)
(0.00242067 0 0)
(0.00247319 0 0)
(0.00253154 0 0)
(0.00258623 0 0)
(0.00265051 0 0)
(0.00271341 0 0)
(0.00277434 0 0)
(0.00283326 0 0)
(0.00289907 0 0)
(0.0029719 0 0)
(0.00304685 0 0)
(0.00312143 0 0)
(0.00319484 0 0)
(0.00326818 0 0)
(0.00335079 0 0)
(0.00344457 0 0)
(0.00354141 0 0)
(0.00364784 0 0)
(0.00376365 0 0)
(0.00388566 0 0)
(0.0040147 0 0)
(0.00414908 0 0)
(0.00429427 0 0)
(0.00444115 0 0)
(0.00457725 0 0)
(0.00470221 0 0)
(0.00480801 0 0)
(0.00489014 0 0)
(0.00495278 0 0)
(0.00499656 0 0)
(0.00502192 0 0)
(0.00503902 0 0)
(0.00504652 0 0)
(0.00504288 0 0)
(0.00504274 0 0)
(0.00504753 0 0)
(0.0050466 0 0)
(0.005044 0 0)
(0.00504327 0 0)
(0.00503919 0 0)
(0.00503885 0 0)
(0.00504368 0 0)
(0.00504931 0 0)
(0.00505439 0 0)
(0.00505704 0 0)
(0.00505946 0 0)
(0.00506185 0 0)
(0.00506095 0 0)
(0.00505751 0 0)
(0.00505701 0 0)
(0.00505858 0 0)
(0.00506385 0 0)
)
;

boundaryField
{
    inlet
    {
        type            fixedValue;
        value           uniform (0 0 0);
    }
    outlet
    {
        type            zeroGradient;
    }
    yzfaces
    {
        type            empty;
    }
}


// ************************************************************************* //
