/*--------------------------------*- C++ -*----------------------------------*\
| =========                 |                                                 |
| \\      /  F ield         | foam-extend: Open Source CFD                    |
|  \\    /   O peration     | Version:     5.0                                |
|   \\  /    A nd           | Web:         http://www.foam-extend.org         |
|    \\/     M anipulation  |                                                 |
\*---------------------------------------------------------------------------*/
FoamFile
{
    version     2.0;
    format      ascii;
    class       volScalarField;
    location    "20";
    object      alpha.gas;
}
// * * * * * * * * * * * * * * * * * * * * * * * * * * * * * * * * * * * * * //

dimensions      [0 0 0 0 0 0 0];

internalField   nonuniform List<scalar> 
100
(
0.181067
0.164068
0.163445
0.159826
0.152946
0.149502
0.15182
0.152161
0.15332
0.153229
0.150987
0.146749
0.143329
0.137881
0.133219
0.130306
0.127166
0.12442
0.124289
0.123919
0.123847
0.123965
0.124203
0.124178
0.12437
0.123442
0.122355
0.120928
0.117655
0.114388
0.111788
0.110504
0.109891
0.10812
0.106702
0.105438
0.104367
0.102756
0.101317
0.100119
0.0988758
0.0981765
0.0971364
0.0963718
0.0958173
0.0950425
0.0938403
0.0928931
0.0921588
0.0915906
0.090472
0.0894663
0.0886175
0.0877753
0.0871669
0.0866021
0.0865335
0.0863031
0.0861265
0.0860209
0.0856876
0.0857226
0.0857324
0.0857198
0.0857152
0.0855159
0.085525
0.0853987
0.0853885
0.0851681
0.0851504
0.0850503
0.0848807
0.0846482
0.084322
0.0838496
0.0834359
0.0830496
0.0827897
0.082491
0.0817965
0.0808797
0.0802715
0.0799157
0.079239
0.0787446
0.0783987
0.0777085
0.0771436
0.0767153
0.076317
0.075967
0.0757229
0.0752461
0.0750021
0.0747265
0.0744811
0.0742677
0.0739967
0.0736234
)
;

boundaryField
{
    inlet
    {
        type            fixedValue;
        value           uniform 0.2;
    }
    outlet
    {
        type            zeroGradient;
    }
    yzfaces
    {
        type            empty;
    }
}


// ************************************************************************* //
