/*--------------------------------*- C++ -*----------------------------------*\
| =========                 |                                                 |
| \\      /  F ield         | foam-extend: Open Source CFD                    |
|  \\    /   O peration     | Version:     5.0                                |
|   \\  /    A nd           | Web:         http://www.foam-extend.org         |
|    \\/     M anipulation  |                                                 |
\*---------------------------------------------------------------------------*/
FoamFile
{
    version     2.0;
    format      ascii;
    class       volScalarField;
    location    "20";
    object      alpha.gas;
}
// * * * * * * * * * * * * * * * * * * * * * * * * * * * * * * * * * * * * * //

dimensions      [0 0 0 0 0 0 0];

internalField   nonuniform List<scalar> 
100
(
0.180633
0.164731
0.16295
0.159403
0.152432
0.15043
0.151778
0.152795
0.153243
0.153181
0.151068
0.14612
0.142991
0.137475
0.133197
0.129548
0.126515
0.124635
0.124248
0.12396
0.124309
0.124367
0.124041
0.124823
0.124899
0.123681
0.122169
0.120224
0.117579
0.114663
0.112327
0.111054
0.109903
0.108452
0.106938
0.105781
0.104206
0.102555
0.100926
0.099842
0.0990847
0.0981358
0.0972444
0.0964003
0.0956532
0.0945647
0.093968
0.0930361
0.0920018
0.0914094
0.0903481
0.0894989
0.0883929
0.0876917
0.0870869
0.0863163
0.0860202
0.085918
0.0859493
0.0858205
0.0857587
0.0856731
0.0857747
0.0857892
0.085582
0.0853531
0.085106
0.085207
0.0852445
0.0850824
0.0849578
0.0848238
0.0846558
0.0845704
0.0840847
0.0839666
0.0835408
0.0830918
0.082789
0.0823373
0.0816933
0.0814576
0.0807685
0.0803317
0.0797463
0.0789632
0.0784991
0.0777505
0.0773021
0.0769613
0.0764377
0.0760657
0.0758181
0.0755564
0.0753387
0.0750761
0.0747891
0.0745843
0.0742305
0.0738246
)
;

boundaryField
{
    inlet
    {
        type            fixedValue;
        value           uniform 0.2;
    }
    outlet
    {
        type            zeroGradient;
    }
    yzfaces
    {
        type            empty;
    }
}


// ************************************************************************* //
