/*--------------------------------*- C++ -*----------------------------------*\
| =========                 |                                                 |
| \\      /  F ield         | foam-extend: Open Source CFD                    |
|  \\    /   O peration     | Version:     5.0                                |
|   \\  /    A nd           | Web:         http://www.foam-extend.org         |
|    \\/     M anipulation  |                                                 |
\*---------------------------------------------------------------------------*/
FoamFile
{
    version     2.0;
    format      ascii;
    class       volScalarField;
    location    "20";
    object      Cl.water;
}
// * * * * * * * * * * * * * * * * * * * * * * * * * * * * * * * * * * * * * //

dimensions      [0 0 0 0 0 0 0];

internalField   nonuniform List<scalar> 
100
(
0.00345838
0.00395165
0.00668405
0.0079643
0.00893288
0.0114769
0.0126688
0.0130032
0.0130596
0.0132666
0.0133441
0.0133829
0.0138396
0.0140953
0.0147784
0.015141
0.0155275
0.0160085
0.0164582
0.016508
0.0167646
0.016692
0.0166825
0.0169512
0.016966
0.0169971
0.0170106
0.0171449
0.0172537
0.0176743
0.0179484
0.0181553
0.0183259
0.0185403
0.0185806
0.0186497
0.0187806
0.0189891
0.0191369
0.0193971
0.0196238
0.0199643
0.0200816
0.0202484
0.0203943
0.0205635
0.0206123
0.0207844
0.0210422
0.0212587
0.0213838
0.0215686
0.0217643
0.022019
0.0221797
0.0223466
0.0225574
0.0228075
0.0227529
0.0227228
0.0228886
0.0229158
0.023019
0.0230429
0.0228684
0.0229058
0.0229361
0.0230203
0.0230719
0.0230707
0.0230903
0.0231408
0.0231793
0.0232675
0.0233357
0.0235088
0.0234775
0.023538
0.0236406
0.0236768
0.0237005
0.0238106
0.0238919
0.0240964
0.0241598
0.0242245
0.0243918
0.0244259
0.0245406
0.0245946
0.02464
0.0247879
0.0248676
0.0249641
0.02505
0.0251402
0.0251927
0.0252818
0.0253452
0.0252912
)
;

boundaryField
{
    inlet
    {
        type            fixedValue;
        value           uniform 0;
    }
    outlet
    {
        type            zeroGradient;
    }
    yzfaces
    {
        type            empty;
    }
}


// ************************************************************************* //
