/*--------------------------------*- C++ -*----------------------------------*\
| =========                 |                                                 |
| \\      /  F ield         | foam-extend: Open Source CFD                    |
|  \\    /   O peration     | Version:     5.0                                |
|   \\  /    A nd           | Web:         http://www.foam-extend.org         |
|    \\/     M anipulation  |                                                 |
\*---------------------------------------------------------------------------*/
FoamFile
{
    version     2.0;
    format      ascii;
    class       volScalarField;
    location    "20";
    object      Cl.water;
}
// * * * * * * * * * * * * * * * * * * * * * * * * * * * * * * * * * * * * * //

dimensions      [0 0 0 0 0 0 0];

internalField   nonuniform List<scalar> 
100
(
0.0035943
0.00391459
0.00689287
0.00804239
0.00901327
0.0111789
0.0128021
0.0128451
0.0133567
0.0133909
0.013563
0.013369
0.0135742
0.0138003
0.0143041
0.0149518
0.015546
0.0159832
0.0165451
0.0164827
0.0164773
0.0167043
0.016754
0.0165569
0.0168498
0.0167353
0.0167578
0.0169585
0.0169335
0.0171979
0.0176135
0.0180472
0.0184122
0.0183412
0.018563
0.0187965
0.0188555
0.0189937
0.0191719
0.0194145
0.0196235
0.0198506
0.0199826
0.0203029
0.0206269
0.0206018
0.0206038
0.0208496
0.0210139
0.0212172
0.0213335
0.0216313
0.0219673
0.0220925
0.0223177
0.0226114
0.022818
0.0229102
0.0229517
0.0230864
0.0229259
0.0228406
0.0229003
0.022912
0.022968
0.0230631
0.0231084
0.0231049
0.0231082
0.0230046
0.0230732
0.0231857
0.0233611
0.023506
0.0235105
0.0234953
0.0236239
0.023726
0.0237852
0.0238622
0.0238297
0.0238615
0.0239725
0.0241589
0.0242261
0.0244462
0.0246032
0.0245422
0.02459
0.0246484
0.0247121
0.0247993
0.0248822
0.0248983
0.025025
0.0251715
0.0252021
0.0253374
0.0253786
0.0253395
)
;

boundaryField
{
    inlet
    {
        type            fixedValue;
        value           uniform 0;
    }
    outlet
    {
        type            zeroGradient;
    }
    yzfaces
    {
        type            empty;
    }
}


// ************************************************************************* //
