/*--------------------------------*- C++ -*----------------------------------*\
| =========                 |                                                 |
| \\      /  F ield         | foam-extend: Open Source CFD                    |
|  \\    /   O peration     | Version:     5.0                                |
|   \\  /    A nd           | Web:         http://www.foam-extend.org         |
|    \\/     M anipulation  |                                                 |
\*---------------------------------------------------------------------------*/
FoamFile
{
    version     2.0;
    format      ascii;
    class       volScalarField;
    location    "20";
    object      CO2.gas;
}
// * * * * * * * * * * * * * * * * * * * * * * * * * * * * * * * * * * * * * //

dimensions      [0 0 0 0 0 0 0];

internalField   nonuniform List<scalar> 
100
(
0.180282
0.16441
0.162633
0.159093
0.152135
0.150137
0.151482
0.152497
0.152944
0.152882
0.150774
0.145835
0.142712
0.137207
0.132938
0.129295
0.126269
0.124392
0.124006
0.123719
0.124067
0.124124
0.123799
0.12458
0.124655
0.12344
0.121931
0.11999
0.117351
0.11444
0.112109
0.110837
0.109689
0.108241
0.106729
0.105575
0.104003
0.102356
0.10073
0.0996475
0.0988917
0.0979447
0.097055
0.0962125
0.0954669
0.0943805
0.093785
0.0928549
0.0918226
0.0912314
0.0901722
0.0893246
0.0882207
0.0875209
0.0869173
0.0861482
0.0858527
0.0857506
0.0857819
0.0856533
0.0855917
0.0855062
0.0856076
0.0856221
0.0854153
0.0851869
0.0849403
0.085041
0.0850785
0.0849167
0.0847923
0.0846586
0.0844909
0.0844057
0.083921
0.0838031
0.0833781
0.08293
0.0826278
0.082177
0.0815342
0.0812989
0.0806112
0.0801752
0.079591
0.0788094
0.0783462
0.0775991
0.0771515
0.0768115
0.0762888
0.0759176
0.0756704
0.0754093
0.075192
0.0749299
0.0746435
0.074439
0.074086
0.0736809
)
;

boundaryField
{
    inlet
    {
        type            fixedValue;
        value           uniform 0.2;
    }
    outlet
    {
        type            zeroGradient;
    }
    yzfaces
    {
        type            empty;
    }
}


// ************************************************************************* //
