/*--------------------------------*- C++ -*----------------------------------*\
| =========                 |                                                 |
| \\      /  F ield         | foam-extend: Open Source CFD                    |
|  \\    /   O peration     | Version:     5.0                                |
|   \\  /    A nd           | Web:         http://www.foam-extend.org         |
|    \\/     M anipulation  |                                                 |
\*---------------------------------------------------------------------------*/
FoamFile
{
    version     2.0;
    format      ascii;
    class       volScalarField;
    location    "20";
    object      CO2.gas;
}
// * * * * * * * * * * * * * * * * * * * * * * * * * * * * * * * * * * * * * //

dimensions      [0 0 0 0 0 0 0];

internalField   nonuniform List<scalar> 
100
(
0.180715
0.163749
0.163126
0.159515
0.152648
0.149211
0.151524
0.151865
0.153022
0.152931
0.150693
0.146463
0.14305
0.137612
0.13296
0.130052
0.126918
0.124178
0.124047
0.123678
0.123605
0.123723
0.123961
0.123936
0.124128
0.123201
0.122116
0.120693
0.117426
0.114165
0.11157
0.110288
0.109677
0.107909
0.106494
0.105232
0.104163
0.102556
0.101119
0.0999236
0.0986832
0.0979853
0.0969472
0.0961841
0.0956307
0.0948574
0.0936576
0.0927122
0.0919793
0.0914122
0.0902958
0.0892921
0.0884449
0.0876044
0.0869971
0.0864334
0.086365
0.086135
0.0859588
0.0858533
0.0855208
0.0855556
0.0855655
0.0855529
0.0855482
0.0853494
0.0853584
0.0852324
0.0852222
0.0850022
0.0849846
0.0848846
0.0847154
0.0844834
0.0841577
0.0836863
0.0832734
0.0828879
0.0826285
0.0823303
0.0816372
0.0807222
0.0801152
0.07976
0.0790847
0.0785912
0.078246
0.0775572
0.0769934
0.0765659
0.0761684
0.0758191
0.0755755
0.0750995
0.0748561
0.074581
0.0743361
0.074123
0.0738526
0.07348
)
;

boundaryField
{
    inlet
    {
        type            fixedValue;
        value           uniform 0.2;
    }
    outlet
    {
        type            zeroGradient;
    }
    yzfaces
    {
        type            empty;
    }
}


// ************************************************************************* //
