/*--------------------------------*- C++ -*----------------------------------*\
| =========                 |                                                 |
| \\      /  F ield         | foam-extend: Open Source CFD                    |
|  \\    /   O peration     | Version:     5.0                                |
|   \\  /    A nd           | Web:         http://www.foam-extend.org         |
|    \\/     M anipulation  |                                                 |
\*---------------------------------------------------------------------------*/
FoamFile
{
    version     2.0;
    format      ascii;
    class       volScalarField;
    location    "20";
    object      CO2.water;
}
// * * * * * * * * * * * * * * * * * * * * * * * * * * * * * * * * * * * * * //

dimensions      [0 0 0 0 0 0 0];

internalField   nonuniform List<scalar> 
100
(
0.000508658
0.000926319
0.000973103
0.00106626
0.00124935
0.00130192
0.00126653
0.00123983
0.00122806
0.00122969
0.00128517
0.00141514
0.00149733
0.0016422
0.00175455
0.0018504
0.00193005
0.00197943
0.00198959
0.00199714
0.00198798
0.00198648
0.00199504
0.0019745
0.0019725
0.00200448
0.00204419
0.00209529
0.00216474
0.00224133
0.00230268
0.00233614
0.00236635
0.00240447
0.00244424
0.00247462
0.00251598
0.00255934
0.00260213
0.0026306
0.00265049
0.00267542
0.00269883
0.002721
0.00274062
0.00276921
0.00278488
0.00280936
0.00283652
0.00285208
0.00287996
0.00290226
0.00293131
0.00294973
0.00296561
0.00298585
0.00299363
0.00299631
0.00299549
0.00299887
0.0030005
0.00300274
0.00300008
0.00299969
0.00300514
0.00301115
0.00301764
0.00301499
0.003014
0.00301826
0.00302153
0.00302505
0.00302946
0.00303171
0.00304446
0.00304756
0.00305875
0.00307054
0.00307849
0.00309036
0.00310727
0.00311346
0.00313156
0.00314303
0.00315841
0.00317898
0.00319117
0.00321083
0.0032226
0.00323155
0.00324531
0.00325508
0.00326158
0.00326845
0.00327417
0.00328107
0.00328861
0.00329399
0.00330328
0.00331394
)
;

boundaryField
{
    inlet
    {
        type            fixedValue;
        value           uniform 0;
    }
    outlet
    {
        type            zeroGradient;
    }
    yzfaces
    {
        type            empty;
    }
}


// ************************************************************************* //
