/*--------------------------------*- C++ -*----------------------------------*\
| =========                 |                                                 |
| \\      /  F ield         | foam-extend: Open Source CFD                    |
|  \\    /   O peration     | Version:     5.0                                |
|   \\  /    A nd           | Web:         http://www.foam-extend.org         |
|    \\/     M anipulation  |                                                 |
\*---------------------------------------------------------------------------*/
FoamFile
{
    version     2.0;
    format      ascii;
    class       volScalarField;
    location    "20";
    object      CO2.water;
}
// * * * * * * * * * * * * * * * * * * * * * * * * * * * * * * * * * * * * * //

dimensions      [0 0 0 0 0 0 0];

internalField   nonuniform List<scalar> 
100
(
0.00049726
0.000943736
0.000960109
0.00105515
0.00123584
0.0013263
0.00126543
0.00125646
0.00122602
0.00122841
0.00128732
0.00139862
0.00148843
0.00163153
0.00175397
0.00183048
0.00191296
0.00198508
0.00198852
0.00199822
0.00200013
0.00199703
0.00199078
0.00199143
0.00198638
0.00201076
0.00203932
0.00207678
0.00216276
0.00224856
0.00231685
0.00235058
0.00236666
0.00241319
0.00245044
0.00248363
0.00251176
0.00255406
0.00259187
0.00262334
0.00265598
0.00267435
0.00270167
0.00272175
0.00273631
0.00275666
0.00278824
0.00281311
0.0028324
0.00284732
0.0028767
0.00290312
0.00292541
0.00294753
0.00296351
0.00297834
0.00298015
0.0029862
0.00299083
0.00299361
0.00300236
0.00300144
0.00300118
0.00300152
0.00300164
0.00300687
0.00300663
0.00300995
0.00301022
0.00301601
0.00301647
0.0030191
0.00302356
0.00302966
0.00303823
0.00305064
0.0030615
0.00307165
0.00307847
0.00308632
0.00310456
0.00312864
0.00314461
0.00315396
0.00317173
0.00318472
0.0031938
0.00321193
0.00322677
0.00323801
0.00324848
0.00325767
0.00326408
0.0032766
0.00328301
0.00329025
0.0032967
0.0033023
0.00330942
0.00331922
)
;

boundaryField
{
    inlet
    {
        type            fixedValue;
        value           uniform 0;
    }
    outlet
    {
        type            zeroGradient;
    }
    yzfaces
    {
        type            empty;
    }
}


// ************************************************************************* //
