/*--------------------------------*- C++ -*----------------------------------*\
| =========                 |                                                 |
| \\      /  F ield         | foam-extend: Open Source CFD                    |
|  \\    /   O peration     | Version:     5.0                                |
|   \\  /    A nd           | Web:         http://www.foam-extend.org         |
|    \\/     M anipulation  |                                                 |
\*---------------------------------------------------------------------------*/
FoamFile
{
    version     2.0;
    format      ascii;
    class       volScalarField;
    location    "20";
    object      H2O.gas;
}
// * * * * * * * * * * * * * * * * * * * * * * * * * * * * * * * * * * * * * //

dimensions      [0 0 0 0 0 0 0];

internalField   nonuniform List<scalar> 
100
(
0.000352623
0.000319518
0.000318304
0.000311257
0.000297859
0.000291151
0.000295664
0.00029633
0.000298587
0.00029841
0.000294042
0.000285789
0.00027913
0.000268519
0.000259441
0.000253767
0.000247651
0.000242304
0.000242049
0.00024133
0.000241188
0.000241418
0.000241881
0.000241833
0.000242207
0.000240399
0.000238282
0.000235504
0.000229129
0.000222767
0.000217703
0.000215202
0.00021401
0.000210561
0.000207798
0.000205337
0.000203251
0.000200115
0.000197311
0.000194978
0.000192558
0.000191196
0.00018917
0.000187681
0.000186601
0.000185092
0.000182751
0.000180907
0.000179477
0.00017837
0.000176192
0.000174233
0.00017258
0.00017094
0.000169755
0.000168655
0.000168522
0.000168073
0.000167729
0.000167523
0.000166874
0.000166942
0.000166961
0.000166937
0.000166928
0.00016654
0.000166557
0.000166312
0.000166292
0.000165862
0.000165828
0.000165633
0.000165303
0.00016485
0.000164215
0.000163295
0.000162489
0.000161737
0.000161231
0.000160649
0.000159296
0.000157511
0.000156326
0.000155633
0.000154316
0.000153353
0.000152679
0.000151335
0.000150235
0.000149401
0.000148625
0.000147944
0.000147468
0.00014654
0.000146064
0.000145528
0.00014505
0.000144634
0.000144106
0.000143379
)
;

boundaryField
{
    inlet
    {
        type            fixedValue;
        value           uniform 0;
    }
    outlet
    {
        type            zeroGradient;
    }
    yzfaces
    {
        type            empty;
    }
}


// ************************************************************************* //
