/*--------------------------------*- C++ -*----------------------------------*\
| =========                 |                                                 |
| \\      /  F ield         | foam-extend: Open Source CFD                    |
|  \\    /   O peration     | Version:     5.0                                |
|   \\  /    A nd           | Web:         http://www.foam-extend.org         |
|    \\/     M anipulation  |                                                 |
\*---------------------------------------------------------------------------*/
FoamFile
{
    version     2.0;
    format      ascii;
    class       volScalarField;
    location    "20";
    object      H2O.water;
}
// * * * * * * * * * * * * * * * * * * * * * * * * * * * * * * * * * * * * * //

dimensions      [0 0 0 0 0 0 0];

internalField   nonuniform List<scalar> 
100
(
0.0112472
0.0271591
0.0218047
0.0230273
0.0277838
0.0268077
0.0213072
0.020881
0.0187355
0.0187554
0.0205968
0.025111
0.0280306
0.0328813
0.0364133
0.037949
0.0398235
0.0416356
0.0406431
0.041124
0.0412061
0.0406324
0.0403082
0.0407373
0.0399718
0.041097
0.0421072
0.0430943
0.0463282
0.0489676
0.050659
0.0510402
0.0509144
0.0527735
0.0537273
0.0544984
0.0554159
0.0567065
0.0577425
0.0584232
0.0592227
0.0594509
0.0602138
0.0603266
0.0602321
0.0610296
0.0621682
0.0626003
0.0629811
0.0631387
0.0639804
0.06436
0.0645163
0.0650729
0.0652206
0.0651794
0.0648493
0.0649047
0.0649889
0.0648264
0.0654712
0.0656074
0.0654646
0.0654483
0.0653506
0.0653513
0.0652485
0.0653916
0.0653937
0.0658037
0.0656992
0.0655818
0.0653838
0.0653055
0.0656195
0.0661052
0.066261
0.0664306
0.0665793
0.0667077
0.0674453
0.0682691
0.0686447
0.0686267
0.0691575
0.0692021
0.0692359
0.0700147
0.0704518
0.0707514
0.070999
0.0711769
0.0712443
0.0716712
0.0716475
0.0716268
0.0718076
0.0717496
0.0719253
0.0723659
)
;

boundaryField
{
    inlet
    {
        type            fixedValue;
        value           uniform 0;
    }
    outlet
    {
        type            zeroGradient;
    }
    yzfaces
    {
        type            empty;
    }
}


// ************************************************************************* //
