/*--------------------------------*- C++ -*----------------------------------*\
| =========                 |                                                 |
| \\      /  F ield         | foam-extend: Open Source CFD                    |
|  \\    /   O peration     | Version:     5.0                                |
|   \\  /    A nd           | Web:         http://www.foam-extend.org         |
|    \\/     M anipulation  |                                                 |
\*---------------------------------------------------------------------------*/
FoamFile
{
    version     2.0;
    format      ascii;
    class       volScalarField;
    location    "20";
    object      H2O.water;
}
// * * * * * * * * * * * * * * * * * * * * * * * * * * * * * * * * * * * * * //

dimensions      [0 0 0 0 0 0 0];

internalField   nonuniform List<scalar> 
100
(
0.0119426
0.026436
0.0227073
0.0236022
0.0284516
0.0253078
0.0216012
0.0199393
0.0193858
0.0190394
0.0209494
0.0256889
0.0278241
0.0326924
0.0354973
0.0383311
0.0404972
0.0413679
0.0408577
0.0410381
0.040166
0.0402596
0.0405963
0.039296
0.0391967
0.0403048
0.0417439
0.043368
0.0457349
0.0477411
0.0494662
0.0502822
0.051066
0.0520583
0.0534694
0.0544617
0.0557436
0.0569232
0.0582145
0.0587378
0.0590064
0.0592552
0.0598877
0.0603701
0.0608097
0.0615403
0.0620237
0.0625953
0.0630994
0.0632529
0.0640352
0.0644964
0.0651756
0.0653475
0.0656159
0.0660306
0.0658833
0.0654816
0.0655506
0.0657375
0.0654844
0.0655083
0.0651874
0.0651247
0.065687
0.0658435
0.0660253
0.0657406
0.0656058
0.0657803
0.0658573
0.0658816
0.065956
0.0658615
0.0661992
0.0659753
0.0664493
0.0667638
0.0668593
0.067235
0.0678088
0.0678278
0.0683207
0.0683351
0.0687825
0.0694026
0.0695238
0.070188
0.0703889
0.0705951
0.0710032
0.0710844
0.0711646
0.0712278
0.0712696
0.0713485
0.0715295
0.0715474
0.0717628
0.072251
)
;

boundaryField
{
    inlet
    {
        type            fixedValue;
        value           uniform 0;
    }
    outlet
    {
        type            zeroGradient;
    }
    yzfaces
    {
        type            empty;
    }
}


// ************************************************************************* //
