/*--------------------------------*- C++ -*----------------------------------*\
| =========                 |                                                 |
| \\      /  F ield         | foam-extend: Open Source CFD                    |
|  \\    /   O peration     | Version:     5.0                                |
|   \\  /    A nd           | Web:         http://www.foam-extend.org         |
|    \\/     M anipulation  |                                                 |
\*---------------------------------------------------------------------------*/
FoamFile
{
    version     2.0;
    format      ascii;
    class       volScalarField;
    location    "20";
    object      H2O.gas;
}
// * * * * * * * * * * * * * * * * * * * * * * * * * * * * * * * * * * * * * //

dimensions      [0 0 0 0 0 0 0];

internalField   nonuniform List<scalar> 
100
(
0.000351778
0.000320809
0.00031734
0.000310433
0.000296857
0.000292959
0.000295583
0.000297563
0.000298436
0.000298315
0.000294201
0.000284564
0.00027847
0.000267728
0.000259397
0.00025229
0.000246384
0.000242723
0.000241969
0.000241409
0.000242089
0.0002422
0.000241565
0.000243088
0.000243236
0.000240865
0.000237921
0.000234132
0.000228983
0.000223304
0.000218754
0.000216274
0.000214033
0.000211207
0.000208258
0.000206006
0.000202939
0.000199723
0.000196551
0.000194439
0.000192965
0.000191117
0.000189381
0.000187737
0.000186282
0.000184162
0.000183
0.000181185
0.000179171
0.000178017
0.00017595
0.000174297
0.000172143
0.000170777
0.000169599
0.000168099
0.000167522
0.000167323
0.000167384
0.000167133
0.000167013
0.000166846
0.000167044
0.000167072
0.000166668
0.000166223
0.000165742
0.000165938
0.000166011
0.000165696
0.000165453
0.000165192
0.000164865
0.000164698
0.000163753
0.000163523
0.000162693
0.000161819
0.000161229
0.00016035
0.000159095
0.000158636
0.000157294
0.000156444
0.000155304
0.000153779
0.000152875
0.000151417
0.000150544
0.00014988
0.00014886
0.000148136
0.000147653
0.000147144
0.00014672
0.000146209
0.00014565
0.000145251
0.000144562
0.000143771
)
;

boundaryField
{
    inlet
    {
        type            fixedValue;
        value           uniform 0;
    }
    outlet
    {
        type            zeroGradient;
    }
    yzfaces
    {
        type            empty;
    }
}


// ************************************************************************* //
