/*--------------------------------*- C++ -*----------------------------------*\
| =========                 |                                                 |
| \\      /  F ield         | foam-extend: Open Source CFD                    |
|  \\    /   O peration     | Version:     5.0                                |
|   \\  /    A nd           | Web:         http://www.foam-extend.org         |
|    \\/     M anipulation  |                                                 |
\*---------------------------------------------------------------------------*/
FoamFile
{
    version     2.0;
    format      ascii;
    class       volScalarField;
    location    "20";
    object      Na.water;
}
// * * * * * * * * * * * * * * * * * * * * * * * * * * * * * * * * * * * * * //

dimensions      [0 0 0 0 0 0 0];

internalField   nonuniform List<scalar> 
100
(
0.00345709
0.00395478
0.00668562
0.00796407
0.00893424
0.011483
0.0126855
0.0130231
0.0130839
0.0132837
0.0133532
0.0133932
0.0138484
0.0140955
0.0147726
0.0151298
0.0155302
0.0160094
0.0164466
0.0164963
0.016772
0.0166954
0.0166855
0.0169556
0.0169662
0.0170125
0.0170323
0.017168
0.0172672
0.0176799
0.0179553
0.0181728
0.0183385
0.0185449
0.0185681
0.0186329
0.0187535
0.0189731
0.0191203
0.0193925
0.0196347
0.0199692
0.0200874
0.0202603
0.0204022
0.0205623
0.0206111
0.0207748
0.0210201
0.0212269
0.0213528
0.0215338
0.0217359
0.0219921
0.0221519
0.0223207
0.0225454
0.0227967
0.0227517
0.0227203
0.0228678
0.0229002
0.0230188
0.0230435
0.0228574
0.0228864
0.0229149
0.0230172
0.0230639
0.0230484
0.0230731
0.0231288
0.0231794
0.0232689
0.023336
0.0235016
0.0234736
0.0235359
0.0236326
0.0236606
0.0236901
0.0237905
0.0238873
0.0240938
0.024153
0.0242307
0.0243942
0.0244248
0.0245459
0.0246175
0.0246738
0.0248069
0.0248881
0.0249832
0.0250675
0.0251542
0.0252001
0.0252925
0.0253582
0.0253193
)
;

boundaryField
{
    inlet
    {
        type            fixedValue;
        value           uniform 0;
    }
    outlet
    {
        type            zeroGradient;
    }
    yzfaces
    {
        type            empty;
    }
}


// ************************************************************************* //
