/*--------------------------------*- C++ -*----------------------------------*\
| =========                 |                                                 |
| \\      /  F ield         | foam-extend: Open Source CFD                    |
|  \\    /   O peration     | Version:     5.0                                |
|   \\  /    A nd           | Web:         http://www.foam-extend.org         |
|    \\/     M anipulation  |                                                 |
\*---------------------------------------------------------------------------*/
FoamFile
{
    version     2.0;
    format      ascii;
    class       volScalarField;
    location    "20";
    object      Na.water;
}
// * * * * * * * * * * * * * * * * * * * * * * * * * * * * * * * * * * * * * //

dimensions      [0 0 0 0 0 0 0];

internalField   nonuniform List<scalar> 
100
(
0.00359402
0.00391457
0.00689766
0.00804903
0.00902077
0.011185
0.0128056
0.012856
0.0133613
0.0133961
0.0135663
0.0133725
0.0135774
0.013806
0.0143094
0.0149628
0.015552
0.0159763
0.0165345
0.0164757
0.0164699
0.0167015
0.0167443
0.0165365
0.0168219
0.0167151
0.016741
0.0169421
0.0169207
0.0171979
0.0176229
0.0180585
0.0184155
0.0183521
0.0185578
0.0187837
0.0188501
0.0189893
0.0191771
0.0194205
0.019622
0.0198477
0.0199656
0.0202769
0.0205874
0.0205694
0.0205994
0.0208439
0.0210138
0.0212062
0.0213374
0.0216392
0.0219735
0.0221118
0.0223313
0.0226288
0.022819
0.0228958
0.022942
0.0230727
0.0229129
0.022828
0.0229015
0.0229184
0.0229647
0.0230628
0.0231114
0.0230949
0.0230994
0.0230076
0.0230608
0.0231631
0.0233509
0.0235106
0.0235098
0.0234993
0.0236176
0.0237222
0.0237674
0.0238529
0.0238239
0.023861
0.0239667
0.0241449
0.0242056
0.0244223
0.0245684
0.0245226
0.0245878
0.0246468
0.0247234
0.0247991
0.0248865
0.0249078
0.0250424
0.025185
0.0252125
0.0253431
0.02539
0.025352
)
;

boundaryField
{
    inlet
    {
        type            fixedValue;
        value           uniform 0;
    }
    outlet
    {
        type            zeroGradient;
    }
    yzfaces
    {
        type            empty;
    }
}


// ************************************************************************* //
