/*--------------------------------*- C++ -*----------------------------------*\
| =========                 |                                                 |
| \\      /  F ield         | foam-extend: Open Source CFD                    |
|  \\    /   O peration     | Version:     5.0                                |
|   \\  /    A nd           | Web:         http://www.foam-extend.org         |
|    \\/     M anipulation  |                                                 |
\*---------------------------------------------------------------------------*/
FoamFile
{
    version     2.0;
    format      ascii;
    class       surfaceScalarField;
    location    "20";
    object      phi;
}
// * * * * * * * * * * * * * * * * * * * * * * * * * * * * * * * * * * * * * //

dimensions      [0 3 -1 0 0 0 0];

internalField   nonuniform List<scalar> 
99
(
1.22887e-06
1.23951e-06
1.23865e-06
1.22991e-06
1.23926e-06
1.24292e-06
1.24709e-06
1.24025e-06
1.25098e-06
1.24931e-06
1.24054e-06
1.24002e-06
1.21847e-06
1.21392e-06
1.20036e-06
1.19841e-06
1.18519e-06
1.18741e-06
1.19169e-06
1.20591e-06
1.21171e-06
1.2223e-06
1.22489e-06
1.22026e-06
1.22518e-06
1.21121e-06
1.20282e-06
1.20283e-06
1.19657e-06
1.18187e-06
1.18048e-06
1.17471e-06
1.16921e-06
1.16792e-06
1.16211e-06
1.16325e-06
1.16136e-06
1.15994e-06
1.16146e-06
1.16105e-06
1.16426e-06
1.16053e-06
1.16502e-06
1.1602e-06
1.15424e-06
1.15363e-06
1.15116e-06
1.1508e-06
1.15389e-06
1.15556e-06
1.16067e-06
1.15676e-06
1.16196e-06
1.16324e-06
1.16222e-06
1.17025e-06
1.17129e-06
1.16817e-06
1.16287e-06
1.15857e-06
1.15166e-06
1.14624e-06
1.1398e-06
1.13674e-06
1.12768e-06
1.12702e-06
1.13235e-06
1.13135e-06
1.12815e-06
1.12568e-06
1.12742e-06
1.12462e-06
1.12071e-06
1.11118e-06
1.11523e-06
1.11133e-06
1.1108e-06
1.11448e-06
1.11791e-06
1.11178e-06
1.10991e-06
1.11248e-06
1.11166e-06
1.11563e-06
1.11873e-06
1.12832e-06
1.12597e-06
1.12805e-06
1.13424e-06
1.13637e-06
1.13412e-06
1.13691e-06
1.13467e-06
1.13525e-06
1.13295e-06
1.13385e-06
1.13179e-06
1.12905e-06
1.12871e-06
)
;

boundaryField
{
    inlet
    {
        type            calculated;
        value           uniform -1.225e-06;
    }
    outlet
    {
        type            calculated;
        value           uniform 1.12988e-06;
    }
    yzfaces
    {
        type            empty;
    }
}


// ************************************************************************* //
