/*--------------------------------*- C++ -*----------------------------------*\
| =========                 |                                                 |
| \\      /  F ield         | foam-extend: Open Source CFD                    |
|  \\    /   O peration     | Version:     5.0                                |
|   \\  /    A nd           | Web:         http://www.foam-extend.org         |
|    \\/     M anipulation  |                                                 |
\*---------------------------------------------------------------------------*/
FoamFile
{
    version     2.0;
    format      ascii;
    class       surfaceScalarField;
    location    "20";
    object      phi;
}
// * * * * * * * * * * * * * * * * * * * * * * * * * * * * * * * * * * * * * //

dimensions      [0 3 -1 0 0 0 0];

internalField   nonuniform List<scalar> 
99
(
1.22533e-06
1.22524e-06
1.22081e-06
1.21167e-06
1.22103e-06
1.22165e-06
1.202e-06
1.20502e-06
1.19708e-06
1.20572e-06
1.19582e-06
1.19092e-06
1.17734e-06
1.17271e-06
1.16984e-06
1.16418e-06
1.17476e-06
1.17242e-06
1.17707e-06
1.16635e-06
1.1436e-06
1.12893e-06
1.11771e-06
1.10283e-06
1.09381e-06
1.07628e-06
1.07379e-06
1.07024e-06
1.06019e-06
1.05253e-06
1.05631e-06
1.04899e-06
1.04303e-06
1.04367e-06
1.04239e-06
1.04292e-06
1.04671e-06
1.04437e-06
1.03863e-06
1.04305e-06
1.0388e-06
1.04519e-06
1.03791e-06
1.03456e-06
1.03187e-06
1.03817e-06
1.04438e-06
1.04337e-06
1.04116e-06
1.03858e-06
1.03834e-06
1.04234e-06
1.04544e-06
1.04222e-06
1.04289e-06
1.04687e-06
1.04759e-06
1.04238e-06
1.03922e-06
1.03445e-06
1.03411e-06
1.03183e-06
1.0284e-06
1.02318e-06
1.01618e-06
1.01501e-06
1.01011e-06
1.00038e-06
9.98141e-07
9.96448e-07
9.85521e-07
9.79427e-07
9.76232e-07
9.71318e-07
9.70336e-07
9.63211e-07
9.66456e-07
9.72074e-07
9.6916e-07
9.63219e-07
9.63456e-07
9.65342e-07
9.64128e-07
9.6179e-07
9.6174e-07
9.59633e-07
9.56667e-07
9.57317e-07
9.54227e-07
9.56253e-07
9.55761e-07
9.55573e-07
9.56386e-07
9.57345e-07
9.54379e-07
9.56789e-07
9.56583e-07
9.54529e-07
9.57328e-07
)
;

boundaryField
{
    inlet
    {
        type            calculated;
        value           uniform -1.225e-06;
    }
    outlet
    {
        type            calculated;
        value           uniform 9.55404e-07;
    }
    yzfaces
    {
        type            empty;
    }
}


// ************************************************************************* //
