/*--------------------------------*- C++ -*----------------------------------*\
| =========                 |                                                 |
| \\      /  F ield         | foam-extend: Open Source CFD                    |
|  \\    /   O peration     | Version:     5.0                                |
|   \\  /    A nd           | Web:         http://www.foam-extend.org         |
|    \\/     M anipulation  |                                                 |
\*---------------------------------------------------------------------------*/
FoamFile
{
    version     2.0;
    format      ascii;
    class       surfaceScalarField;
    location    "20";
    object      phi.water;
}
// * * * * * * * * * * * * * * * * * * * * * * * * * * * * * * * * * * * * * //

dimensions      [0 3 -1 0 0 0 0];

internalField   nonuniform List<scalar> 
99
(
2.78377e-08
9.31477e-08
9.1415e-08
1.00557e-07
1.35977e-07
1.62059e-07
1.48087e-07
1.4667e-07
1.40416e-07
1.3728e-07
1.44309e-07
1.66913e-07
1.80666e-07
2.14346e-07
2.47577e-07
2.67657e-07
2.92455e-07
3.22516e-07
3.25078e-07
3.31891e-07
3.34635e-07
3.37886e-07
3.3537e-07
3.34544e-07
3.30734e-07
3.36209e-07
3.43737e-07
3.53435e-07
3.85669e-07
4.19398e-07
4.52849e-07
4.69215e-07
4.72019e-07
4.96726e-07
5.1563e-07
5.34759e-07
5.48661e-07
5.72983e-07
5.99151e-07
6.17998e-07
6.4263e-07
6.53265e-07
6.75416e-07
6.86837e-07
6.94315e-07
7.0698e-07
7.31167e-07
7.52194e-07
7.6902e-07
7.82607e-07
8.10949e-07
8.31619e-07
8.56459e-07
8.79035e-07
8.9364e-07
9.17126e-07
9.17649e-07
9.21302e-07
9.21639e-07
9.20398e-07
9.24605e-07
9.19817e-07
9.14344e-07
9.11407e-07
9.05121e-07
9.10344e-07
9.13802e-07
9.15395e-07
9.11729e-07
9.18174e-07
9.17749e-07
9.1938e-07
9.19351e-07
9.1777e-07
9.29522e-07
9.38834e-07
9.50217e-07
9.66214e-07
9.73435e-07
9.7454e-07
9.91833e-07
1.02232e-06
1.04173e-06
1.05369e-06
1.07909e-06
1.10373e-06
1.10903e-06
1.13614e-06
1.16162e-06
1.1766e-06
1.18931e-06
1.20377e-06
1.20938e-06
1.2282e-06
1.23372e-06
1.24485e-06
1.2517e-06
1.25559e-06
1.26552e-06
)
;

boundaryField
{
    inlet
    {
        type            fixedValue;
        value           uniform 0;
    }
    outlet
    {
        type            calculated;
        value           uniform 1.2809e-06;
    }
    yzfaces
    {
        type            empty;
    }
}


// ************************************************************************* //
