/*--------------------------------*- C++ -*----------------------------------*\
| =========                 |                                                 |
| \\      /  F ield         | foam-extend: Open Source CFD                    |
|  \\    /   O peration     | Version:     5.0                                |
|   \\  /    A nd           | Web:         http://www.foam-extend.org         |
|    \\/     M anipulation  |                                                 |
\*---------------------------------------------------------------------------*/
FoamFile
{
    version     2.0;
    format      ascii;
    class       volVectorField;
    location    "20";
    object      U.gas;
}
// * * * * * * * * * * * * * * * * * * * * * * * * * * * * * * * * * * * * * //

dimensions      [0 1 -1 0 0 0 0];

internalField   nonuniform List<vector> 
100
(
(0.00552983 0 0)
(0.00613047 0 0)
(0.00617141 0 0)
(0.00628403 0 0)
(0.00656002 0 0)
(0.00673685 0 0)
(0.00665374 0 0)
(0.00663443 0 0)
(0.00659611 0 0)
(0.00662514 0 0)
(0.0066931 0 0)
(0.00685327 0 0)
(0.00694435 0 0)
(0.00712776 0 0)
(0.00730278 0 0)
(0.00740096 0 0)
(0.0075197 0 0)
(0.00763224 0 0)
(0.00765198 0 0)
(0.00773294 0 0)
(0.007801 0 0)
(0.00784621 0 0)
(0.00787442 0 0)
(0.00787021 0 0)
(0.00785965 0 0)
(0.00788666 0 0)
(0.00787636 0 0)
(0.00793236 0 0)
(0.00811236 0 0)
(0.00824092 0 0)
(0.00834528 0 0)
(0.00839479 0 0)
(0.00838968 0 0)
(0.00848703 0 0)
(0.00855181 0 0)
(0.00861745 0 0)
(0.0086853 0 0)
(0.00878731 0 0)
(0.00888621 0 0)
(0.0089726 0 0)
(0.00907321 0 0)
(0.00911602 0 0)
(0.00919787 0 0)
(0.00925009 0 0)
(0.0092453 0 0)
(0.00927873 0 0)
(0.00936123 0 0)
(0.00941693 0 0)
(0.00948094 0 0)
(0.00954137 0 0)
(0.00966258 0 0)
(0.00974471 0 0)
(0.00981422 0 0)
(0.00990736 0 0)
(0.00995257 0 0)
(0.010027 0 0)
(0.0100627 0 0)
(0.010075 0 0)
(0.0100516 0 0)
(0.0100172 0 0)
(0.00999964 0 0)
(0.00993662 0 0)
(0.00988468 0 0)
(0.00984556 0 0)
(0.00979328 0 0)
(0.00977015 0 0)
(0.00978639 0 0)
(0.0098177 0 0)
(0.00979863 0 0)
(0.00979442 0 0)
(0.00978899 0 0)
(0.00979372 0 0)
(0.00977826 0 0)
(0.00973904 0 0)
(0.00974199 0 0)
(0.0097821 0 0)
(0.00979362 0 0)
(0.00983626 0 0)
(0.00988548 0 0)
(0.0098984 0 0)
(0.00992542 0 0)
(0.0100054 0 0)
(0.0100535 0 0)
(0.01009 0 0)
(0.0101841 0 0)
(0.0102769 0 0)
(0.0103349 0 0)
(0.0103979 0 0)
(0.0104773 0 0)
(0.0105473 0 0)
(0.0105781 0 0)
(0.0106073 0 0)
(0.0106266 0 0)
(0.0106637 0 0)
(0.0106684 0 0)
(0.0106854 0 0)
(0.0106984 0 0)
(0.0106918 0 0)
(0.0107012 0 0)
(0.0107403 0 0)
)
;

boundaryField
{
    inlet
    {
        type            fixedValue;
        value           uniform (0.005 0 0);
    }
    outlet
    {
        type            zeroGradient;
    }
    yzfaces
    {
        type            empty;
    }
}


// ************************************************************************* //
