/*--------------------------------*- C++ -*----------------------------------*\
| =========                 |                                                 |
| \\      /  F ield         | foam-extend: Open Source CFD                    |
|  \\    /   O peration     | Version:     5.0                                |
|   \\  /    A nd           | Web:         http://www.foam-extend.org         |
|    \\/     M anipulation  |                                                 |
\*---------------------------------------------------------------------------*/
FoamFile
{
    version     2.0;
    format      ascii;
    class       volVectorField;
    location    "20";
    object      U.gas;
}
// * * * * * * * * * * * * * * * * * * * * * * * * * * * * * * * * * * * * * //

dimensions      [0 1 -1 0 0 0 0];

internalField   nonuniform List<vector> 
100
(
(0.00553501 0 0)
(0.00606204 0 0)
(0.00611 0 0)
(0.00620796 0 0)
(0.00648408 0 0)
(0.00658916 0 0)
(0.00647923 0 0)
(0.00639434 0 0)
(0.00636388 0 0)
(0.00636867 0 0)
(0.00645229 0 0)
(0.00662176 0 0)
(0.00670409 0 0)
(0.00690564 0 0)
(0.00708618 0 0)
(0.00724123 0 0)
(0.00741249 0 0)
(0.00753621 0 0)
(0.00755982 0 0)
(0.0075556 0 0)
(0.00742687 0 0)
(0.00730463 0 0)
(0.00723956 0 0)
(0.00711196 0 0)
(0.00703396 0 0)
(0.00701374 0 0)
(0.00702635 0 0)
(0.00710799 0 0)
(0.00720486 0 0)
(0.00730413 0 0)
(0.00741767 0 0)
(0.00747245 0 0)
(0.00749062 0 0)
(0.00755636 0 0)
(0.00764266 0 0)
(0.00770662 0 0)
(0.00782088 0 0)
(0.00792879 0 0)
(0.00799993 0 0)
(0.00805872 0 0)
(0.00810531 0 0)
(0.00817667 0 0)
(0.00823033 0 0)
(0.00824336 0 0)
(0.00826749 0 0)
(0.00835752 0 0)
(0.0084422 0 0)
(0.00853009 0 0)
(0.0085893 0 0)
(0.00860512 0 0)
(0.0086723 0 0)
(0.00874351 0 0)
(0.00885523 0 0)
(0.00889918 0 0)
(0.00893032 0 0)
(0.00900824 0 0)
(0.00904208 0 0)
(0.00902646 0 0)
(0.00898659 0 0)
(0.00896395 0 0)
(0.00894399 0 0)
(0.00893916 0 0)
(0.00890468 0 0)
(0.0088673 0 0)
(0.00883273 0 0)
(0.00881502 0 0)
(0.00880594 0 0)
(0.00872806 0 0)
(0.00867423 0 0)
(0.00867299 0 0)
(0.00862581 0 0)
(0.00855983 0 0)
(0.00853177 0 0)
(0.00850182 0 0)
(0.00851511 0 0)
(0.00848015 0 0)
(0.0084972 0 0)
(0.008567 0 0)
(0.00859707 0 0)
(0.00859203 0 0)
(0.0086137 0 0)
(0.00863167 0 0)
(0.00869008 0 0)
(0.00869877 0 0)
(0.00873136 0 0)
(0.00877924 0 0)
(0.00878096 0 0)
(0.00882677 0 0)
(0.00884001 0 0)
(0.00885646 0 0)
(0.00890294 0 0)
(0.00892126 0 0)
(0.0089374 0 0)
(0.00896364 0 0)
(0.00896886 0 0)
(0.00898564 0 0)
(0.00901517 0 0)
(0.0090161 0 0)
(0.00904835 0 0)
(0.00908199 0 0)
)
;

boundaryField
{
    inlet
    {
        type            fixedValue;
        value           uniform (0.005 0 0);
    }
    outlet
    {
        type            zeroGradient;
    }
    yzfaces
    {
        type            empty;
    }
}


// ************************************************************************* //
