/*--------------------------------*- C++ -*----------------------------------*\
| =========                 |                                                 |
| \\      /  F ield         | foam-extend: Open Source CFD                    |
|  \\    /   O peration     | Version:     5.0                                |
|   \\  /    A nd           | Web:         http://www.foam-extend.org         |
|    \\/     M anipulation  |                                                 |
\*---------------------------------------------------------------------------*/
FoamFile
{
    version     2.0;
    format      ascii;
    class       volVectorField;
    location    "20";
    object      U.water;
}
// * * * * * * * * * * * * * * * * * * * * * * * * * * * * * * * * * * * * * //

dimensions      [0 1 -1 0 0 0 0];

internalField   nonuniform List<vector> 
100
(
(1.68489e-05 0 0)
(4.605e-05 0 0)
(7.45369e-05 0 0)
(8.08331e-05 0 0)
(9.5854e-05 0 0)
(0.000117033 0 0)
(0.000121144 0 0)
(0.000115206 0 0)
(0.000111855 0 0)
(0.000110606 0 0)
(0.000112136 0 0)
(0.000122667 0 0)
(0.000140607 0 0)
(0.000157621 0 0)
(0.000183884 0 0)
(0.000206874 0 0)
(0.000229678 0 0)
(0.000248908 0 0)
(0.000259825 0 0)
(0.000261751 0 0)
(0.00025904 0 0)
(0.00025267 0 0)
(0.000250091 0 0)
(0.000247523 0 0)
(0.00024042 0 0)
(0.000239581 0 0)
(0.000246398 0 0)
(0.000257758 0 0)
(0.000271992 0 0)
(0.00029084 0 0)
(0.000314133 0 0)
(0.000331222 0 0)
(0.000340108 0 0)
(0.000351865 0 0)
(0.000367086 0 0)
(0.000381335 0 0)
(0.000395888 0 0)
(0.000414197 0 0)
(0.000432019 0 0)
(0.000449955 0 0)
(0.000461976 0 0)
(0.00047302 0 0)
(0.000485554 0 0)
(0.00049467 0 0)
(0.000504378 0 0)
(0.000517756 0 0)
(0.000534991 0 0)
(0.000547273 0 0)
(0.000561106 0 0)
(0.000573572 0 0)
(0.000585445 0 0)
(0.000603806 0 0)
(0.000621984 0 0)
(0.00063863 0 0)
(0.000649641 0 0)
(0.000663299 0 0)
(0.000676246 0 0)
(0.000679428 0 0)
(0.000677255 0 0)
(0.000675329 0 0)
(0.000676533 0 0)
(0.000676973 0 0)
(0.000675111 0 0)
(0.00067126 0 0)
(0.000668348 0 0)
(0.000668716 0 0)
(0.000671394 0 0)
(0.000670059 0 0)
(0.000664836 0 0)
(0.000663072 0 0)
(0.000661818 0 0)
(0.000659356 0 0)
(0.000658586 0 0)
(0.000657682 0 0)
(0.00066015 0 0)
(0.000664919 0 0)
(0.000667669 0 0)
(0.000679068 0 0)
(0.000687624 0 0)
(0.0006908 0 0)
(0.000699172 0 0)
(0.000709871 0 0)
(0.000718379 0 0)
(0.000729534 0 0)
(0.00073861 0 0)
(0.000751811 0 0)
(0.00076432 0 0)
(0.000776541 0 0)
(0.00078951 0 0)
(0.000797983 0 0)
(0.000808452 0 0)
(0.000819262 0 0)
(0.000827615 0 0)
(0.000834551 0 0)
(0.000839023 0 0)
(0.000844209 0 0)
(0.000852415 0 0)
(0.000857837 0 0)
(0.000864168 0 0)
(0.00087364 0 0)
)
;

boundaryField
{
    inlet
    {
        type            fixedValue;
        value           uniform (0 0 0);
    }
    outlet
    {
        type            zeroGradient;
    }
    yzfaces
    {
        type            empty;
    }
}


// ************************************************************************* //
