/*--------------------------------*- C++ -*----------------------------------*\
| =========                 |                                                 |
| \\      /  F ield         | foam-extend: Open Source CFD                    |
|  \\    /   O peration     | Version:     5.0                                |
|   \\  /    A nd           | Web:         http://www.foam-extend.org         |
|    \\/     M anipulation  |                                                 |
\*---------------------------------------------------------------------------*/
FoamFile
{
    version     2.0;
    format      ascii;
    class       volVectorField;
    location    "20";
    object      U.water;
}
// * * * * * * * * * * * * * * * * * * * * * * * * * * * * * * * * * * * * * //

dimensions      [0 1 -1 0 0 0 0];

internalField   nonuniform List<vector> 
100
(
(1.64308e-05 0 0)
(4.6974e-05 0 0)
(7.68834e-05 0 0)
(8.02557e-05 0 0)
(9.55358e-05 0 0)
(0.000118072 0 0)
(0.000127853 0 0)
(0.000119857 0 0)
(0.000117987 0 0)
(0.00011461 0 0)
(0.000116251 0 0)
(0.000127017 0 0)
(0.000143563 0 0)
(0.000161466 0 0)
(0.000187926 0 0)
(0.000210923 0 0)
(0.000228625 0 0)
(0.000248815 0 0)
(0.000264243 0 0)
(0.000267494 0 0)
(0.000271285 0 0)
(0.000273834 0 0)
(0.000274801 0 0)
(0.000273193 0 0)
(0.0002728 0 0)
(0.000272965 0 0)
(0.000278289 0 0)
(0.000286484 0 0)
(0.000302243 0 0)
(0.000328525 0 0)
(0.000355091 0 0)
(0.000375962 0 0)
(0.000385612 0 0)
(0.00039519 0 0)
(0.000413072 0 0)
(0.000428499 0 0)
(0.000442968 0 0)
(0.000457784 0 0)
(0.000478187 0 0)
(0.000496965 0 0)
(0.000514046 0 0)
(0.000529482 0 0)
(0.000542031 0 0)
(0.000556018 0 0)
(0.000564485 0 0)
(0.000572769 0 0)
(0.000586601 0 0)
(0.000605083 0 0)
(0.000620691 0 0)
(0.000633981 0 0)
(0.000650126 0 0)
(0.000670106 0 0)
(0.00068866 0 0)
(0.000707866 0 0)
(0.000723485 0 0)
(0.000737827 0 0)
(0.000748848 0 0)
(0.000750913 0 0)
(0.000752915 0 0)
(0.000753084 0 0)
(0.000753236 0 0)
(0.000753667 0 0)
(0.000749477 0 0)
(0.000745867 0 0)
(0.00074216 0 0)
(0.000740545 0 0)
(0.000744349 0 0)
(0.000746408 0 0)
(0.00074648 0 0)
(0.000746811 0 0)
(0.00074964 0 0)
(0.000750275 0 0)
(0.000751194 0 0)
(0.000750601 0 0)
(0.000754472 0 0)
(0.000762593 0 0)
(0.000770844 0 0)
(0.000781363 0 0)
(0.000791428 0 0)
(0.000796094 0 0)
(0.000803232 0 0)
(0.000821519 0 0)
(0.000841921 0 0)
(0.000855613 0 0)
(0.000869509 0 0)
(0.000889955 0 0)
(0.000903586 0 0)
(0.000915856 0 0)
(0.000937103 0 0)
(0.000954188 0 0)
(0.000965668 0 0)
(0.000976723 0 0)
(0.000985668 0 0)
(0.000994711 0 0)
(0.00100518 0 0)
(0.00101175 0 0)
(0.00101914 0 0)
(0.0010239 0 0)
(0.00102921 0 0)
(0.00103769 0 0)
)
;

boundaryField
{
    inlet
    {
        type            fixedValue;
        value           uniform (0 0 0);
    }
    outlet
    {
        type            zeroGradient;
    }
    yzfaces
    {
        type            empty;
    }
}


// ************************************************************************* //
