/*--------------------------------*- C++ -*----------------------------------*\
| =========                 |                                                 |
| \\      /  F ield         | foam-extend: Open Source CFD                    |
|  \\    /   O peration     | Version:     5.0                                |
|   \\  /    A nd           | Web:         http://www.foam-extend.org         |
|    \\/     M anipulation  |                                                 |
\*---------------------------------------------------------------------------*/
FoamFile
{
    version     2.0;
    format      ascii;
    class       volScalarField;
    location    "7";
    object      alpha.gas;
}
// * * * * * * * * * * * * * * * * * * * * * * * * * * * * * * * * * * * * * //

dimensions      [0 0 0 0 0 0 0];

internalField   nonuniform List<scalar> 
100
(
0.163858
0.150984
0.141481
0.134682
0.129354
0.124682
0.120315
0.115915
0.111998
0.108868
0.106232
0.103772
0.101702
0.0994975
0.0974717
0.09589
0.0940335
0.0922759
0.0905785
0.0886535
0.0869782
0.0857558
0.0844678
0.0833937
0.08275
0.0819532
0.0808821
0.0798068
0.0784847
0.0772575
0.0761977
0.0752644
0.0743202
0.0733771
0.0723973
0.0714284
0.0706812
0.069906
0.0692633
0.0684197
0.0675114
0.0666273
0.0658281
0.065018
0.0641029
0.0632022
0.062134
0.060865
0.0595819
0.0583309
0.0568927
0.0552138
0.0531105
0.0502868
0.0462499
0.0393642
0.025245
0.0298887
0.0307075
0.0310719
0.031354
0.0316731
0.0319963
0.0323284
0.0326934
0.0330602
0.0334181
0.033766
0.0341183
0.0344299
0.0346918
0.034904
0.035078
0.0351943
0.0352821
0.0353012
0.0352808
0.0352349
0.035164
0.0350627
0.0349553
0.0348483
0.0347369
0.0346057
0.034487
0.0343701
0.0342743
0.0341797
0.0341152
0.0340307
0.0339645
0.0338881
0.0338144
0.033743
0.0336837
0.0336137
0.0335173
0.0334213
0.0333213
0.0331884
)
;

boundaryField
{
    inlet
    {
        type            fixedValue;
        value           uniform 0.2;
    }
    outlet
    {
        type            zeroGradient;
    }
    yzfaces
    {
        type            empty;
    }
}


// ************************************************************************* //
