/*--------------------------------*- C++ -*----------------------------------*\
| =========                 |                                                 |
| \\      /  F ield         | foam-extend: Open Source CFD                    |
|  \\    /   O peration     | Version:     5.0                                |
|   \\  /    A nd           | Web:         http://www.foam-extend.org         |
|    \\/     M anipulation  |                                                 |
\*---------------------------------------------------------------------------*/
FoamFile
{
    version     2.0;
    format      ascii;
    class       volScalarField;
    location    "7";
    object      Cl.water;
}
// * * * * * * * * * * * * * * * * * * * * * * * * * * * * * * * * * * * * * //

dimensions      [0 0 0 0 0 0 0];

internalField   nonuniform List<scalar> 
100
(
0.00413792
0.00558664
0.00666012
0.00740703
0.00805064
0.0086063
0.00905659
0.0095085
0.00999908
0.0104002
0.0107211
0.0110213
0.0112881
0.0115088
0.0117443
0.0119448
0.0121182
0.0123366
0.0125128
0.012707
0.0129374
0.0130762
0.01326
0.0133925
0.0134629
0.0135195
0.0136442
0.0137658
0.013884
0.0140328
0.0141599
0.0142855
0.0143929
0.0145029
0.0146047
0.0147295
0.0148388
0.0149315
0.015018
0.0151029
0.0151969
0.0153117
0.0154052
0.0154821
0.0155829
0.0157013
0.0158048
0.015952
0.0161138
0.0162669
0.0164294
0.0166181
0.0168627
0.0171868
0.0176402
0.0183967
0.0198135
0.0195677
0.0194542
0.0194014
0.0193722
0.0193353
0.0192963
0.0192602
0.0192149
0.019176
0.0191363
0.0190992
0.0190587
0.0190172
0.0189868
0.0189656
0.0189438
0.0189308
0.0189147
0.0189111
0.0189129
0.0189162
0.0189247
0.0189335
0.0189491
0.018959
0.0189742
0.0189928
0.019005
0.0190235
0.0190301
0.019044
0.0190468
0.0190618
0.0190645
0.0190777
0.019084
0.0190939
0.0191005
0.0191078
0.0191199
0.0191316
0.0191427
0.0191511
)
;

boundaryField
{
    inlet
    {
        type            fixedValue;
        value           uniform 0;
    }
    outlet
    {
        type            zeroGradient;
    }
    yzfaces
    {
        type            empty;
    }
}


// ************************************************************************* //
