/*--------------------------------*- C++ -*----------------------------------*\
| =========                 |                                                 |
| \\      /  F ield         | foam-extend: Open Source CFD                    |
|  \\    /   O peration     | Version:     5.0                                |
|   \\  /    A nd           | Web:         http://www.foam-extend.org         |
|    \\/     M anipulation  |                                                 |
\*---------------------------------------------------------------------------*/
FoamFile
{
    version     2.0;
    format      ascii;
    class       volScalarField;
    location    "7";
    object      CO2.water;
}
// * * * * * * * * * * * * * * * * * * * * * * * * * * * * * * * * * * * * * //

dimensions      [0 0 0 0 0 0 0];

internalField   nonuniform List<scalar> 
100
(
0.000946192
0.00127799
0.00152331
0.00169426
0.00184203
0.00196819
0.00207184
0.00217592
0.00228745
0.00237923
0.0024517
0.00252132
0.00258154
0.00263161
0.00268681
0.00273116
0.00277182
0.00282105
0.00286106
0.00290564
0.00295858
0.00299077
0.00303255
0.00306238
0.00307843
0.00309276
0.00312049
0.00314787
0.00317482
0.00320897
0.00323933
0.00326929
0.00329344
0.0033177
0.00334095
0.00336845
0.00339334
0.00341321
0.00343245
0.00345334
0.00347561
0.00350159
0.00352341
0.00354124
0.0035637
0.00358969
0.00361406
0.00364796
0.00368613
0.0037207
0.00375784
0.00380121
0.00385762
0.00393109
0.00403443
0.00420739
0.0045313
0.00116432
0.000341859
0.000104819
3.22594e-05
9.86904e-06
2.99418e-06
9.00169e-07
2.6835e-07
7.94061e-08
2.34364e-08
6.93714e-09
2.07343e-09
6.3048e-10
1.96049e-10
6.25933e-11
2.05057e-11
6.86539e-12
2.3358e-12
8.02142e-13
2.7656e-13
9.51961e-14
3.25784e-14
1.10544e-14
3.7241e-15
1.25479e-15
4.32293e-16
1.59686e-16
6.773e-17
3.44409e-17
2.04471e-17
1.32532e-17
8.88218e-18
5.98477e-18
4.01236e-18
2.6666e-18
1.7585e-18
1.15206e-18
7.50076e-19
4.86062e-19
3.1381e-19
2.02016e-19
1.29736e-19
8.31006e-20
)
;

boundaryField
{
    inlet
    {
        type            fixedValue;
        value           uniform 0;
    }
    outlet
    {
        type            zeroGradient;
    }
    yzfaces
    {
        type            empty;
    }
}


// ************************************************************************* //
