/*--------------------------------*- C++ -*----------------------------------*\
| =========                 |                                                 |
| \\      /  F ield         | foam-extend: Open Source CFD                    |
|  \\    /   O peration     | Version:     5.0                                |
|   \\  /    A nd           | Web:         http://www.foam-extend.org         |
|    \\/     M anipulation  |                                                 |
\*---------------------------------------------------------------------------*/
FoamFile
{
    version     2.0;
    format      ascii;
    class       volScalarField;
    location    "7";
    object      CO2.gas;
}
// * * * * * * * * * * * * * * * * * * * * * * * * * * * * * * * * * * * * * //

dimensions      [0 0 0 0 0 0 0];

internalField   nonuniform List<scalar> 
100
(
0.16331
0.14981
0.140109
0.132845
0.128276
0.123903
0.118973
0.114079
0.11074
0.108097
0.105619
0.103351
0.101504
0.0990385
0.097051
0.0956015
0.0934842
0.0918497
0.0900231
0.0879331
0.0865204
0.0853329
0.0842552
0.0832313
0.0825528
0.0815851
0.0805237
0.0794819
0.0779408
0.0767558
0.0757577
0.0749295
0.0739781
0.0730434
0.0720324
0.0711302
0.0704808
0.0697009
0.0691104
0.068238
0.0672953
0.0664744
0.0656999
0.0648112
0.0638821
0.0630324
0.0619007
0.0606498
0.0594395
0.0582173
0.0567737
0.055083
0.0530071
0.0501889
0.0461599
0.0392875
0.0251959
0.029765
0.0306146
0.0309857
0.0312434
0.0315402
0.0318337
0.0321186
0.0324272
0.0327176
0.0329804
0.0332077
0.0334219
0.0335692
0.0336121
0.0335631
0.0334449
0.0332151
0.0329095
0.0324675
0.0319351
0.0313118
0.0306061
0.0298187
0.0289528
0.0280376
0.0270555
0.0260099
0.0249323
0.0238059
0.0226735
0.0215025
0.0203384
0.0191333
0.0179442
0.0167419
0.01556
0.0143897
0.0132453
0.0121261
0.0110279
0.00997581
0.00896042
0.00799608
)
;

boundaryField
{
    inlet
    {
        type            fixedValue;
        value           uniform 0.2;
    }
    outlet
    {
        type            zeroGradient;
    }
    yzfaces
    {
        type            empty;
    }
}


// ************************************************************************* //
