/*--------------------------------*- C++ -*----------------------------------*\
| =========                 |                                                 |
| \\      /  F ield         | foam-extend: Open Source CFD                    |
|  \\    /   O peration     | Version:     5.0                                |
|   \\  /    A nd           | Web:         http://www.foam-extend.org         |
|    \\/     M anipulation  |                                                 |
\*---------------------------------------------------------------------------*/
FoamFile
{
    version     2.0;
    format      ascii;
    class       volScalarField;
    location    "7";
    object      H2O.gas;
}
// * * * * * * * * * * * * * * * * * * * * * * * * * * * * * * * * * * * * * //

dimensions      [0 0 0 0 0 0 0];

internalField   nonuniform List<scalar> 
100
(
1.90162e-05
6.66941e-05
0.000123826
0.000163447
0.000178378
0.000172234
0.000155543
0.000140294
0.000132422
0.000131241
0.000135498
0.000158706
0.000198063
0.00017162
0.000168891
0.000170141
0.000169917
0.000169478
0.000168026
0.000165186
0.000163277
0.000161667
0.000162333
0.000162407
0.0001608
0.000159133
0.00015693
0.000154993
0.000151958
0.000149598
0.000147548
0.000145842
0.000144074
0.000142214
0.000140133
0.000138311
0.000136939
0.000135687
0.000134608
0.00013294
0.000131015
0.00012964
0.000128198
0.000126229
0.000124338
0.000122604
0.000120461
0.0001181
0.000115845
0.000113598
0.000110778
0.000107512
0.000103431
9.79321e-05
9.00704e-05
7.66606e-05
4.91639e-05
6.46105e-05
7.50424e-05
8.83919e-05
0.000106681
0.000131701
0.0001652
0.00020932
0.0002667
0.000339955
0.000432962
0.000549531
0.000693477
0.000869883
0.00108202
0.00133464
0.00163324
0.00197986
0.00238119
0.00283607
0.00334943
0.00392286
0.00455513
0.00524606
0.00600023
0.0068169
0.00768217
0.008597
0.00956146
0.0105612
0.0116045
0.0126735
0.0137843
0.0148935
0.0160263
0.01714
0.0182523
0.019351
0.0204369
0.0214907
0.0224861
0.0234458
0.024356
0.025195
)
;

boundaryField
{
    inlet
    {
        type            fixedValue;
        value           uniform 0;
    }
    outlet
    {
        type            zeroGradient;
    }
    yzfaces
    {
        type            empty;
    }
}


// ************************************************************************* //
