/*--------------------------------*- C++ -*----------------------------------*\
| =========                 |                                                 |
| \\      /  F ield         | foam-extend: Open Source CFD                    |
|  \\    /   O peration     | Version:     5.0                                |
|   \\  /    A nd           | Web:         http://www.foam-extend.org         |
|    \\/     M anipulation  |                                                 |
\*---------------------------------------------------------------------------*/
FoamFile
{
    version     2.0;
    format      ascii;
    class       volScalarField;
    location    "7";
    object      H2O.water;
}
// * * * * * * * * * * * * * * * * * * * * * * * * * * * * * * * * * * * * * //

dimensions      [0 0 0 0 0 0 0];

internalField   nonuniform List<scalar> 
100
(
0.0268054
0.0362043
0.043157
0.0479983
0.0522052
0.055767
0.058707
0.061654
0.064825
0.06741
0.0694531
0.0714172
0.0731344
0.0745701
0.0760879
0.0773625
0.0785301
0.0799345
0.0810704
0.0823348
0.0838085
0.0847504
0.0859127
0.0867564
0.0872035
0.0876162
0.0884133
0.0892539
0.0899654
0.0909079
0.0917688
0.0925831
0.0932672
0.0939669
0.0946496
0.0954561
0.0961371
0.0967009
0.0972465
0.0978324
0.0984516
0.0992026
0.0998172
0.100314
0.100968
0.101715
0.1024
0.103363
0.104439
0.105406
0.106468
0.107687
0.109285
0.111367
0.114294
0.119194
0.128371
0.129817
0.130051
0.130027
0.129877
0.129659
0.129419
0.129161
0.128882
0.128598
0.128319
0.128047
0.127783
0.127553
0.127345
0.127174
0.127045
0.126955
0.126894
0.126877
0.126891
0.126924
0.126977
0.127058
0.127137
0.127227
0.127308
0.12741
0.127505
0.127587
0.127667
0.127733
0.127793
0.127847
0.127908
0.127956
0.128017
0.12807
0.128116
0.128175
0.128243
0.12832
0.128394
0.128503
)
;

boundaryField
{
    inlet
    {
        type            fixedValue;
        value           uniform 0;
    }
    outlet
    {
        type            zeroGradient;
    }
    yzfaces
    {
        type            empty;
    }
}


// ************************************************************************* //
