/*--------------------------------*- C++ -*----------------------------------*\
| =========                 |                                                 |
| \\      /  F ield         | foam-extend: Open Source CFD                    |
|  \\    /   O peration     | Version:     5.0                                |
|   \\  /    A nd           | Web:         http://www.foam-extend.org         |
|    \\/     M anipulation  |                                                 |
\*---------------------------------------------------------------------------*/
FoamFile
{
    version     2.0;
    format      ascii;
    class       volScalarField;
    location    "7";
    object      Na.water;
}
// * * * * * * * * * * * * * * * * * * * * * * * * * * * * * * * * * * * * * //

dimensions      [0 0 0 0 0 0 0];

internalField   nonuniform List<scalar> 
100
(
0.00413621
0.00558777
0.00666207
0.0074076
0.00805651
0.00860924
0.00906386
0.00951718
0.0100064
0.0104063
0.0107204
0.0110245
0.011286
0.0115018
0.0117444
0.0119429
0.0121188
0.0123321
0.0125094
0.0127017
0.0129345
0.0130788
0.0132582
0.0133862
0.0134536
0.0135175
0.0136432
0.0137697
0.0138841
0.0140333
0.0141591
0.0142843
0.0143913
0.014505
0.0146113
0.0147298
0.0148334
0.0149192
0.0150053
0.0150977
0.0151974
0.0153103
0.0154048
0.0154777
0.0155783
0.0156898
0.0157969
0.0159504
0.016117
0.0162684
0.0164319
0.0166185
0.0168699
0.0171882
0.0176384
0.0183944
0.01981
0.0195621
0.0194459
0.0193948
0.0193643
0.0193231
0.0192856
0.0192496
0.0192092
0.0191659
0.0191262
0.0190873
0.0190405
0.0190004
0.0189769
0.0189568
0.0189336
0.0189195
0.0189089
0.0189108
0.0189151
0.0189248
0.0189344
0.0189455
0.0189587
0.0189653
0.0189805
0.0189917
0.0190034
0.0190197
0.0190285
0.0190435
0.0190445
0.0190606
0.0190634
0.0190784
0.0190849
0.0190932
0.0190993
0.0191039
0.0191195
0.0191271
0.019142
0.0191578
)
;

boundaryField
{
    inlet
    {
        type            fixedValue;
        value           uniform 0;
    }
    outlet
    {
        type            zeroGradient;
    }
    yzfaces
    {
        type            empty;
    }
}


// ************************************************************************* //
