/*--------------------------------*- C++ -*----------------------------------*\
| =========                 |                                                 |
| \\      /  F ield         | foam-extend: Open Source CFD                    |
|  \\    /   O peration     | Version:     5.0                                |
|   \\  /    A nd           | Web:         http://www.foam-extend.org         |
|    \\/     M anipulation  |                                                 |
\*---------------------------------------------------------------------------*/
FoamFile
{
    version     2.0;
    format      ascii;
    class       volScalarField;
    location    "7";
    object      Ns;
}
// * * * * * * * * * * * * * * * * * * * * * * * * * * * * * * * * * * * * * //

dimensions      [0 -3 0 0 1 0 0];

internalField   nonuniform List<scalar> 
100
(
0.22528
0.564995
0.209862
1.2177
0.905
0.26502
3.26736
0.551699
0.154177
0.432682
1.00067
0.743549
0.276955
0.695438
0.49506
1.51795
0.296797
0.396771
0.464081
0.00353546
0.869192
1.59519
0.723765
0.327447
0.26795
0.622021
0.426529
1.28321
0.459412
0.349772
0.00942923
1.7511
0.126671
0.809732
1.02849
0.508762
0.105095
1.3615
0.266252
0.384895
0.452798
0.239087
0.784108
0.450919
0.926915
0.754877
0.0188454
0.177895
0.148741
0.250408
0.24453
0.0303496
0.519583
1.48471
5.27026
16.3684
82.4112
171.561
174.73
171.349
171.928
171.359
173.504
170.385
172.974
171.202
176.691
171.655
171.204
176.201
167.009
177.338
173.496
173.589
177.25
169.316
174.3
174.38
176.421
168.858
171.578
174.506
171.298
169.555
172.54
170.765
168.436
172.863
177.368
170.175
177.02
179.241
167.967
176.848
172.023
173.543
179.274
171.196
173.945
164.269
)
;

boundaryField
{
    inlet
    {
        type            fixedValue;
        value           uniform 0;
    }
    outlet
    {
        type            zeroGradient;
    }
    yzfaces
    {
        type            empty;
    }
}


// ************************************************************************* //
