/*--------------------------------*- C++ -*----------------------------------*\
| =========                 |                                                 |
| \\      /  F ield         | foam-extend: Open Source CFD                    |
|  \\    /   O peration     | Version:     5.0                                |
|   \\  /    A nd           | Web:         http://www.foam-extend.org         |
|    \\/     M anipulation  |                                                 |
\*---------------------------------------------------------------------------*/
FoamFile
{
    version     2.0;
    format      ascii;
    class       surfaceScalarField;
    location    "7";
    object      phi;
}
// * * * * * * * * * * * * * * * * * * * * * * * * * * * * * * * * * * * * * //

dimensions      [0 3 -1 0 0 0 0];

internalField   nonuniform List<scalar> 
99
(
1.23051e-06
1.222e-06
1.22808e-06
1.24444e-06
1.25504e-06
1.25574e-06
1.25791e-06
1.26809e-06
1.26589e-06
1.26837e-06
1.27043e-06
1.27552e-06
1.27594e-06
1.27485e-06
1.27766e-06
1.27668e-06
1.27071e-06
1.27412e-06
1.27202e-06
1.27572e-06
1.28011e-06
1.27516e-06
1.27763e-06
1.27878e-06
1.27176e-06
1.2679e-06
1.2713e-06
1.26121e-06
1.26038e-06
1.26702e-06
1.26838e-06
1.26872e-06
1.2707e-06
1.26639e-06
1.26548e-06
1.26518e-06
1.26464e-06
1.2626e-06
1.26556e-06
1.26294e-06
1.26431e-06
1.26868e-06
1.26964e-06
1.26891e-06
1.2682e-06
1.26647e-06
1.26358e-06
1.26135e-06
1.26428e-06
1.26393e-06
1.26465e-06
1.26551e-06
1.26358e-06
1.2655e-06
1.26344e-06
1.26103e-06
1.24437e-06
1.2603e-06
1.26428e-06
1.26313e-06
1.26488e-06
1.26481e-06
1.26446e-06
1.2644e-06
1.26445e-06
1.26536e-06
1.26639e-06
1.26754e-06
1.26987e-06
1.26758e-06
1.26623e-06
1.26792e-06
1.26695e-06
1.26674e-06
1.26435e-06
1.26441e-06
1.26439e-06
1.2639e-06
1.26455e-06
1.26563e-06
1.26616e-06
1.26469e-06
1.26563e-06
1.26458e-06
1.26362e-06
1.26325e-06
1.26309e-06
1.26398e-06
1.263e-06
1.26358e-06
1.26207e-06
1.26333e-06
1.26304e-06
1.2641e-06
1.26363e-06
1.26328e-06
1.26416e-06
1.26294e-06
1.26559e-06
)
;

boundaryField
{
    inlet
    {
        type            calculated;
        value           uniform -1.225e-06;
    }
    outlet
    {
        type            calculated;
        value           uniform 1.26445e-06;
    }
    yzfaces
    {
        type            empty;
    }
}


// ************************************************************************* //
