/*--------------------------------*- C++ -*----------------------------------*\
| =========                 |                                                 |
| \\      /  F ield         | foam-extend: Open Source CFD                    |
|  \\    /   O peration     | Version:     5.0                                |
|   \\  /    A nd           | Web:         http://www.foam-extend.org         |
|    \\/     M anipulation  |                                                 |
\*---------------------------------------------------------------------------*/
FoamFile
{
    version     2.0;
    format      ascii;
    class       surfaceScalarField;
    location    "7";
    object      phi.water;
}
// * * * * * * * * * * * * * * * * * * * * * * * * * * * * * * * * * * * * * //

dimensions      [0 3 -1 0 0 0 0];

internalField   nonuniform List<scalar> 
99
(
7.99483e-08
1.36129e-07
1.92318e-07
2.4383e-07
2.87905e-07
3.32325e-07
3.78162e-07
4.3332e-07
4.82443e-07
5.27981e-07
5.68541e-07
6.10696e-07
6.47137e-07
6.89821e-07
7.33979e-07
7.6468e-07
8.03604e-07
8.47139e-07
8.87592e-07
9.40032e-07
9.88629e-07
1.0192e-06
1.05904e-06
1.08892e-06
1.10829e-06
1.13029e-06
1.16799e-06
1.19559e-06
1.24311e-06
1.29394e-06
1.33621e-06
1.3719e-06
1.41213e-06
1.44589e-06
1.48717e-06
1.52868e-06
1.55884e-06
1.59306e-06
1.62527e-06
1.66277e-06
1.70953e-06
1.75838e-06
1.79967e-06
1.84445e-06
1.89354e-06
1.94201e-06
1.9981e-06
2.06785e-06
2.15088e-06
2.22523e-06
2.32407e-06
2.43962e-06
2.57596e-06
2.78459e-06
3.0938e-06
3.66366e-06
5.12417e-06
4.81802e-06
4.736e-06
4.69064e-06
4.66826e-06
4.63355e-06
4.59759e-06
4.56294e-06
4.5252e-06
4.4896e-06
4.4566e-06
4.42239e-06
4.39142e-06
4.3503e-06
4.31828e-06
4.30123e-06
4.27825e-06
4.26475e-06
4.24656e-06
4.24434e-06
4.24661e-06
4.24941e-06
4.25884e-06
4.27302e-06
4.28603e-06
4.29149e-06
4.30651e-06
4.31658e-06
4.32568e-06
4.33819e-06
4.34678e-06
4.36001e-06
4.36325e-06
4.37491e-06
4.37617e-06
4.38912e-06
4.39611e-06
4.40716e-06
4.41094e-06
4.41711e-06
4.43077e-06
4.43629e-06
4.45615e-06
)
;

boundaryField
{
    inlet
    {
        type            fixedValue;
        value           uniform 0;
    }
    outlet
    {
        type            calculated;
        value           uniform 4.46765e-06;
    }
    yzfaces
    {
        type            empty;
    }
}


// ************************************************************************* //
