/*--------------------------------*- C++ -*----------------------------------*\
| =========                 |                                                 |
| \\      /  F ield         | foam-extend: Open Source CFD                    |
|  \\    /   O peration     | Version:     5.0                                |
|   \\  /    A nd           | Web:         http://www.foam-extend.org         |
|    \\/     M anipulation  |                                                 |
\*---------------------------------------------------------------------------*/
FoamFile
{
    version     2.0;
    format      ascii;
    class       volVectorField;
    location    "7";
    object      U.gas;
}
// * * * * * * * * * * * * * * * * * * * * * * * * * * * * * * * * * * * * * //

dimensions      [0 1 -1 0 0 0 0];

internalField   nonuniform List<vector> 
100
(
(0.00610814 0 0)
(0.00660122 0 0)
(0.00701338 0 0)
(0.00740769 0 0)
(0.00776913 0 0)
(0.00806728 0 0)
(0.00833696 0 0)
(0.00865728 0 0)
(0.00894436 0 0)
(0.00915854 0 0)
(0.00936116 0 0)
(0.00956889 0 0)
(0.00973982 0 0)
(0.00991402 0 0)
(0.0100792 0 0)
(0.0102096 0 0)
(0.0103381 0 0)
(0.0104726 0 0)
(0.0106212 0 0)
(0.010798 0 0)
(0.0109758 0 0)
(0.0110728 0 0)
(0.0111774 0 0)
(0.0112712 0 0)
(0.011311 0 0)
(0.0113344 0 0)
(0.0114355 0 0)
(0.0115028 0 0)
(0.0115791 0 0)
(0.0117152 0 0)
(0.0118437 0 0)
(0.0119321 0 0)
(0.0120297 0 0)
(0.0121049 0 0)
(0.0121699 0 0)
(0.0122508 0 0)
(0.012306 0 0)
(0.0123642 0 0)
(0.0124192 0 0)
(0.0125045 0 0)
(0.0125805 0 0)
(0.0126855 0 0)
(0.0127738 0 0)
(0.0128507 0 0)
(0.0129241 0 0)
(0.0129834 0 0)
(0.0130555 0 0)
(0.0131433 0 0)
(0.0132461 0 0)
(0.0133426 0 0)
(0.0134685 0 0)
(0.0136036 0 0)
(0.0137466 0 0)
(0.0139672 0 0)
(0.0142665 0 0)
(0.0147255 0 0)
(0.0155667 0 0)
(0.0111478 0 0)
(0.0120598 0 0)
(0.0122823 0 0)
(0.0123648 0 0)
(0.0124228 0 0)
(0.0124807 0 0)
(0.0125364 0 0)
(0.0125891 0 0)
(0.0126543 0 0)
(0.012723 0 0)
(0.0127918 0 0)
(0.0128643 0 0)
(0.0129193 0 0)
(0.0129494 0 0)
(0.0129933 0 0)
(0.0130304 0 0)
(0.0130539 0 0)
(0.0130583 0 0)
(0.0130662 0 0)
(0.0130733 0 0)
(0.0130712 0 0)
(0.0130695 0 0)
(0.0130723 0 0)
(0.0130678 0 0)
(0.0130494 0 0)
(0.0130338 0 0)
(0.0130204 0 0)
(0.0129912 0 0)
(0.0129665 0 0)
(0.0129449 0 0)
(0.0129369 0 0)
(0.0129191 0 0)
(0.012909 0 0)
(0.01289 0 0)
(0.0128813 0 0)
(0.0128739 0 0)
(0.0128662 0 0)
(0.0128583 0 0)
(0.0128466 0 0)
(0.0128408 0 0)
(0.0128246 0 0)
(0.012817 0 0)
(0.0128113 0 0)
)
;

boundaryField
{
    inlet
    {
        type            fixedValue;
        value           uniform (0.005 0 0);
    }
    outlet
    {
        type            zeroGradient;
    }
    yzfaces
    {
        type            empty;
    }
}


// ************************************************************************* //
