/*--------------------------------*- C++ -*----------------------------------*\
| =========                 |                                                 |
| \\      /  F ield         | foam-extend: Open Source CFD                    |
|  \\    /   O peration     | Version:     5.0                                |
|   \\  /    A nd           | Web:         http://www.foam-extend.org         |
|    \\/     M anipulation  |                                                 |
\*---------------------------------------------------------------------------*/
FoamFile
{
    version     2.0;
    format      ascii;
    class       volVectorField;
    location    "7";
    object      U.water;
}
// * * * * * * * * * * * * * * * * * * * * * * * * * * * * * * * * * * * * * //

dimensions      [0 1 -1 0 0 0 0];

internalField   nonuniform List<vector> 
100
(
(3.82288e-05 0 0)
(8.86408e-05 0 0)
(0.000132803 0 0)
(0.000176202 0 0)
(0.000215536 0 0)
(0.000251735 0 0)
(0.000287606 0 0)
(0.000327224 0 0)
(0.000369633 0 0)
(0.000409488 0 0)
(0.000445651 0 0)
(0.000479874 0 0)
(0.000513179 0 0)
(0.000544433 0 0)
(0.000579335 0 0)
(0.000610805 0 0)
(0.000638157 0 0)
(0.000671482 0 0)
(0.000705416 0 0)
(0.000741967 0 0)
(0.000783409 0 0)
(0.000817661 0 0)
(0.000846728 0 0)
(0.000876002 0 0)
(0.000896008 0 0)
(0.000912427 0 0)
(0.000935886 0 0)
(0.000962431 0 0)
(0.00099113 0 0)
(0.00103064 0 0)
(0.00106938 0 0)
(0.00110225 0 0)
(0.00113343 0 0)
(0.00116347 0 0)
(0.0011939 0 0)
(0.00122789 0 0)
(0.00125874 0 0)
(0.00128519 0 0)
(0.00131341 0 0)
(0.00134127 0 0)
(0.00137522 0 0)
(0.00141462 0 0)
(0.00145208 0 0)
(0.00148625 0 0)
(0.00152383 0 0)
(0.0015642 0 0)
(0.00160648 0 0)
(0.0016575 0 0)
(0.00172088 0 0)
(0.00178703 0 0)
(0.00185746 0 0)
(0.00194504 0 0)
(0.00204923 0 0)
(0.00219179 0 0)
(0.00240828 0 0)
(0.00277517 0 0)
(0.0034835 0 0)
(0.00405103 0 0)
(0.00389926 0 0)
(0.00384755 0 0)
(0.00381955 0 0)
(0.00379654 0 0)
(0.00376788 0 0)
(0.00373889 0 0)
(0.0037094 0 0)
(0.00367931 0 0)
(0.00365101 0 0)
(0.00362339 0 0)
(0.00359756 0 0)
(0.00356879 0 0)
(0.00353867 0 0)
(0.00351812 0 0)
(0.003502 0 0)
(0.00348734 0 0)
(0.00347486 0 0)
(0.0034663 0 0)
(0.00346606 0 0)
(0.0034679 0 0)
(0.00347282 0 0)
(0.0034824 0 0)
(0.00349358 0 0)
(0.00350132 0 0)
(0.00350972 0 0)
(0.00351982 0 0)
(0.00352774 0 0)
(0.00353627 0 0)
(0.0035449 0 0)
(0.00355373 0 0)
(0.00356081 0 0)
(0.00356665 0 0)
(0.00357198 0 0)
(0.00357743 0 0)
(0.00358546 0 0)
(0.00359289 0 0)
(0.00359923 0 0)
(0.00360347 0 0)
(0.0036113 0 0)
(0.00361903 0 0)
(0.00362957 0 0)
(0.00364172 0 0)
)
;

boundaryField
{
    inlet
    {
        type            fixedValue;
        value           uniform (0 0 0);
    }
    outlet
    {
        type            zeroGradient;
    }
    yzfaces
    {
        type            empty;
    }
}


// ************************************************************************* //
