/*--------------------------------*- C++ -*----------------------------------*\
| =========                 |                                                 |
| \\      /  F ield         | foam-extend: Open Source CFD                    |
|  \\    /   O peration     | Version:     5.0                                |
|   \\  /    A nd           | Web:         http://www.foam-extend.org         |
|    \\/     M anipulation  |                                                 |
\*---------------------------------------------------------------------------*/
FoamFile
{
    version     2.0;
    format      ascii;
    class       volScalarField;
    location    "7";
    object      CO2.gas;
}
// * * * * * * * * * * * * * * * * * * * * * * * * * * * * * * * * * * * * * //

dimensions      [0 0 0 0 0 0 0];

internalField   nonuniform List<scalar> 
100
(
0.162529
0.150429
0.142576
0.135568
0.128882
0.125123
0.122388
0.118822
0.114749
0.110834
0.107302
0.10443
0.101692
0.0994172
0.0975577
0.0952771
0.0937941
0.0922792
0.0905096
0.0888752
0.0874529
0.0864698
0.0856531
0.0847354
0.0838759
0.0829639
0.0817933
0.0806387
0.0794231
0.0784483
0.0774472
0.0764432
0.0756494
0.0748649
0.0740367
0.0731865
0.0723708
0.0714876
0.0707087
0.0700677
0.0694757
0.0689202
0.068294
0.0677416
0.0669521
0.0662627
0.0656652
0.0651789
0.0646759
0.0640656
0.0634684
0.0628687
0.0623648
0.0618405
0.0612402
0.0606687
0.0601549
0.0596508
0.0592179
0.0587536
0.0583184
0.0577825
0.0572672
0.0567985
0.0563841
0.0559142
0.0554595
0.0550166
0.0546341
0.0542772
0.0538817
0.0535034
0.0531051
0.0527262
0.0523432
0.0519784
0.0516003
0.051287
0.050864
0.0504522
0.0499775
0.049556
0.0491907
0.0487729
0.0482824
0.0477576
0.0472066
0.0467405
0.0462648
0.0457725
0.0452606
0.0447769
0.0442979
0.0438168
0.0433431
0.0428716
0.0423837
0.041883
0.0413759
0.0408405
)
;

boundaryField
{
    inlet
    {
        type            fixedValue;
        value           uniform 0.2;
    }
    outlet
    {
        type            zeroGradient;
    }
    yzfaces
    {
        type            empty;
    }
}


// ************************************************************************* //
