/*--------------------------------*- C++ -*----------------------------------*\
| =========                 |                                                 |
| \\      /  F ield         | foam-extend: Open Source CFD                    |
|  \\    /   O peration     | Version:     5.0                                |
|   \\  /    A nd           | Web:         http://www.foam-extend.org         |
|    \\/     M anipulation  |                                                 |
\*---------------------------------------------------------------------------*/
FoamFile
{
    version     2.0;
    format      ascii;
    class       volScalarField;
    location    "7";
    object      H2O.gas;
}
// * * * * * * * * * * * * * * * * * * * * * * * * * * * * * * * * * * * * * //

dimensions      [0 0 0 0 0 0 0];

internalField   nonuniform List<scalar> 
100
(
0.000317139
0.000293528
0.000278205
0.00026453
0.000251484
0.000244149
0.000238812
0.000231853
0.000223907
0.000216267
0.000209375
0.000203772
0.000198429
0.00019399
0.000190362
0.000185911
0.000183018
0.000180062
0.000176609
0.00017342
0.000170644
0.000168726
0.000167132
0.000165342
0.000163665
0.000161885
0.000159601
0.000157348
0.000154976
0.000153074
0.00015112
0.000149161
0.000147612
0.000146082
0.000144466
0.000142807
0.000141215
0.000139492
0.000137972
0.000136721
0.000135566
0.000134482
0.00013326
0.000132182
0.000130642
0.000129296
0.000128131
0.000127182
0.0001262
0.000125009
0.000123844
0.000122674
0.000121691
0.000120668
0.000119496
0.000118381
0.000117378
0.000116395
0.00011555
0.000114644
0.000113795
0.000112749
0.000111744
0.000110829
0.000110021
0.000109104
0.000108217
0.000107352
0.000106606
0.00010591
0.000105138
0.0001044
0.000103622
0.000102883
0.000102136
0.000101424
0.000100686
0.000100075
9.92494e-05
9.84458e-05
9.75197e-05
9.66971e-05
9.59845e-05
9.51692e-05
9.4212e-05
9.31881e-05
9.21128e-05
9.12033e-05
9.02752e-05
8.93145e-05
8.83157e-05
8.73718e-05
8.64371e-05
8.54984e-05
8.45742e-05
8.3654e-05
8.27022e-05
8.17251e-05
8.07356e-05
7.96909e-05
)
;

boundaryField
{
    inlet
    {
        type            fixedValue;
        value           uniform 0;
    }
    outlet
    {
        type            zeroGradient;
    }
    yzfaces
    {
        type            empty;
    }
}


// ************************************************************************* //
