/*--------------------------------*- C++ -*----------------------------------*\
| =========                 |                                                 |
| \\      /  F ield         | foam-extend: Open Source CFD                    |
|  \\    /   O peration     | Version:     5.0                                |
|   \\  /    A nd           | Web:         http://www.foam-extend.org         |
|    \\/     M anipulation  |                                                 |
\*---------------------------------------------------------------------------*/
FoamFile
{
    version     2.0;
    format      ascii;
    class       volScalarField;
    location    "7";
    object      H2O.gas;
}
// * * * * * * * * * * * * * * * * * * * * * * * * * * * * * * * * * * * * * //

dimensions      [0 0 0 0 0 0 0];

internalField   nonuniform List<scalar> 
100
(
0.000317447
0.00029362
0.000280037
0.000263876
0.000250528
0.000244575
0.000239066
0.000232084
0.000222715
0.000216251
0.000209627
0.000203546
0.000198436
0.000193264
0.000189464
0.000185268
0.000181953
0.00017883
0.000175365
0.000172808
0.000170256
0.000169001
0.000167745
0.000166167
0.000164445
0.000162285
0.000160272
0.000158155
0.000155407
0.000153412
0.000151271
0.000149472
0.000147668
0.000145957
0.000144871
0.000143117
0.000141574
0.00014009
0.000138824
0.000137436
0.000136109
0.00013495
0.000133597
0.000132395
0.00013076
0.000129518
0.000128074
0.000126862
0.000125837
0.000124692
0.000123675
0.000122419
0.000121385
0.000120443
0.000119644
0.000118667
0.000117588
0.00011647
0.000115603
0.000114614
0.000113676
0.000112648
0.000111777
0.000110993
0.000110078
0.000109113
0.000108391
0.000107592
0.000106906
0.000106169
0.000105461
0.000104738
0.000103952
0.000103097
0.000102376
0.000101649
0.00010082
0.000100049
9.93031e-05
9.83926e-05
9.76293e-05
9.68496e-05
9.60716e-05
9.51613e-05
9.42147e-05
9.33289e-05
9.23902e-05
9.13239e-05
9.02965e-05
8.93465e-05
8.83603e-05
8.73796e-05
8.64679e-05
8.54731e-05
8.45104e-05
8.35031e-05
8.25311e-05
8.15728e-05
8.05676e-05
7.95893e-05
)
;

boundaryField
{
    inlet
    {
        type            fixedValue;
        value           uniform 0;
    }
    outlet
    {
        type            zeroGradient;
    }
    yzfaces
    {
        type            empty;
    }
}


// ************************************************************************* //
