/*--------------------------------*- C++ -*----------------------------------*\
| =========                 |                                                 |
| \\      /  F ield         | foam-extend: Open Source CFD                    |
|  \\    /   O peration     | Version:     5.0                                |
|   \\  /    A nd           | Web:         http://www.foam-extend.org         |
|    \\/     M anipulation  |                                                 |
\*---------------------------------------------------------------------------*/
FoamFile
{
    version     2.0;
    format      ascii;
    class       volScalarField;
    location    "7";
    object      Na.water;
}
// * * * * * * * * * * * * * * * * * * * * * * * * * * * * * * * * * * * * * //

dimensions      [0 0 0 0 0 0 0];

internalField   nonuniform List<scalar> 
100
(
0.00725706
0.0102094
0.0122708
0.0138024
0.0149071
0.0159974
0.0168215
0.0171514
0.0175976
0.0181532
0.018671
0.0192261
0.0197788
0.020254
0.0206719
0.0209253
0.0213894
0.0217154
0.0220484
0.0224582
0.0228955
0.0231419
0.0232688
0.0234752
0.0237296
0.0239517
0.0240447
0.0242781
0.0243786
0.0247103
0.0248728
0.0250461
0.025246
0.0254144
0.0256248
0.0257293
0.0259058
0.0260968
0.0262911
0.0265404
0.0266866
0.0268027
0.0268319
0.0270089
0.02708
0.0271762
0.0273051
0.0274352
0.0275562
0.0276185
0.0276869
0.0278212
0.0280571
0.0282002
0.0283102
0.0283946
0.0285063
0.0286395
0.0287522
0.028859
0.0289665
0.0290031
0.029116
0.0292043
0.0293563
0.0294604
0.0295518
0.0296703
0.0297712
0.0298012
0.0298391
0.0299536
0.0300627
0.0301587
0.0302722
0.0303627
0.0304216
0.030491
0.030515
0.0306317
0.0306816
0.0307558
0.0308562
0.0308832
0.0309404
0.0310121
0.0311173
0.0312461
0.0313809
0.0314506
0.0315425
0.0316371
0.031744
0.0318566
0.0319681
0.0320998
0.0322069
0.0322851
0.0323932
0.0324741
)
;

boundaryField
{
    inlet
    {
        type            fixedValue;
        value           uniform 0;
    }
    outlet
    {
        type            zeroGradient;
    }
    yzfaces
    {
        type            empty;
    }
}


// ************************************************************************* //
