/*--------------------------------*- C++ -*----------------------------------*\
| =========                 |                                                 |
| \\      /  F ield         | foam-extend: Open Source CFD                    |
|  \\    /   O peration     | Version:     5.0                                |
|   \\  /    A nd           | Web:         http://www.foam-extend.org         |
|    \\/     M anipulation  |                                                 |
\*---------------------------------------------------------------------------*/
FoamFile
{
    version     2.0;
    format      ascii;
    class       surfaceScalarField;
    location    "7";
    object      phi;
}
// * * * * * * * * * * * * * * * * * * * * * * * * * * * * * * * * * * * * * //

dimensions      [0 3 -1 0 0 0 0];

internalField   nonuniform List<scalar> 
99
(
1.23982e-06
1.2302e-06
1.22643e-06
1.21212e-06
1.2168e-06
1.21905e-06
1.22073e-06
1.21268e-06
1.20086e-06
1.19468e-06
1.19426e-06
1.18748e-06
1.18975e-06
1.19547e-06
1.1984e-06
1.20064e-06
1.19753e-06
1.19412e-06
1.19442e-06
1.198e-06
1.19655e-06
1.20906e-06
1.20561e-06
1.20183e-06
1.20288e-06
1.20257e-06
1.2026e-06
1.19764e-06
1.20572e-06
1.20197e-06
1.20784e-06
1.20995e-06
1.20787e-06
1.21462e-06
1.21179e-06
1.21583e-06
1.21322e-06
1.21345e-06
1.21393e-06
1.21249e-06
1.21488e-06
1.21315e-06
1.21364e-06
1.21045e-06
1.20857e-06
1.20746e-06
1.21119e-06
1.21479e-06
1.21153e-06
1.2137e-06
1.21386e-06
1.21863e-06
1.2171e-06
1.21669e-06
1.21754e-06
1.21791e-06
1.21745e-06
1.21579e-06
1.21636e-06
1.21783e-06
1.21671e-06
1.21793e-06
1.22032e-06
1.21672e-06
1.21901e-06
1.22443e-06
1.22394e-06
1.22331e-06
1.22323e-06
1.22502e-06
1.22056e-06
1.21556e-06
1.213e-06
1.21347e-06
1.20957e-06
1.20703e-06
1.20792e-06
1.2096e-06
1.20975e-06
1.21091e-06
1.20871e-06
1.20922e-06
1.20676e-06
1.2083e-06
1.20772e-06
1.20684e-06
1.20661e-06
1.20737e-06
1.20861e-06
1.20528e-06
1.20551e-06
1.20515e-06
1.20232e-06
1.2025e-06
1.20325e-06
1.20417e-06
1.20138e-06
1.20076e-06
1.1999e-06
)
;

boundaryField
{
    inlet
    {
        type            calculated;
        value           uniform -1.225e-06;
    }
    outlet
    {
        type            calculated;
        value           uniform 1.20054e-06;
    }
    yzfaces
    {
        type            empty;
    }
}


// ************************************************************************* //
