/*--------------------------------*- C++ -*----------------------------------*\
| =========                 |                                                 |
| \\      /  F ield         | foam-extend: Open Source CFD                    |
|  \\    /   O peration     | Version:     5.0                                |
|   \\  /    A nd           | Web:         http://www.foam-extend.org         |
|    \\/     M anipulation  |                                                 |
\*---------------------------------------------------------------------------*/
FoamFile
{
    version     2.0;
    format      ascii;
    class       volScalarField;
    location    "2";
    object      alpha.gas;
}
// * * * * * * * * * * * * * * * * * * * * * * * * * * * * * * * * * * * * * //

dimensions      [0 0 0 0 0 0 0];

internalField   nonuniform List<scalar> 
100
(
0.134454
0.117367
0.106219
0.09804
0.0923879
0.0876243
0.0832576
0.0797851
0.0763072
0.0734296
0.0707569
0.0682209
0.0659669
0.0640468
0.0619781
0.0601126
0.058324
0.0566218
0.0550073
0.0534861
0.0519263
0.0503818
0.04883
0.0473859
0.0458491
0.0443106
0.0428162
0.0412584
0.039773
0.0381744
0.0365426
0.0348154
0.0330327
0.0311189
0.0291197
0.0269663
0.024717
0.0223994
0.0200659
0.0177966
0.0157278
0.0139674
0.0125993
0.0116145
0.0109643
0.0105577
0.0103149
0.0101766
0.0100978
0.0100551
0.0100271
0.0100137
0.0100041
0.00999961
0.0100018
0.0100043
0.0100046
0.0100018
0.00999698
0.0099956
0.00999552
0.00999686
0.00999693
0.0099933
0.00999691
0.00999859
0.0100008
0.0100025
0.0100032
0.00999928
0.00999922
0.00999968
0.0100017
0.0100046
0.0100047
0.0100012
0.00999793
0.0100041
0.0100051
0.0100032
0.00999732
0.00999954
0.00999684
0.0100003
0.0099953
0.0099979
0.00999889
0.00999877
0.00999182
0.00999141
0.00999297
0.00999594
0.00999549
0.0099943
0.00999305
0.00999369
0.00999481
0.00999415
0.00999401
0.00999115
)
;

boundaryField
{
    inlet
    {
        type            fixedValue;
        value           uniform 0.2;
    }
    outlet
    {
        type            zeroGradient;
    }
    yzfaces
    {
        type            empty;
    }
}


// ************************************************************************* //
