/*--------------------------------*- C++ -*----------------------------------*\
| =========                 |                                                 |
| \\      /  F ield         | foam-extend: Open Source CFD                    |
|  \\    /   O peration     | Version:     5.0                                |
|   \\  /    A nd           | Web:         http://www.foam-extend.org         |
|    \\/     M anipulation  |                                                 |
\*---------------------------------------------------------------------------*/
FoamFile
{
    version     2.0;
    format      ascii;
    class       volScalarField;
    location    "2";
    object      alpha.gas;
}
// * * * * * * * * * * * * * * * * * * * * * * * * * * * * * * * * * * * * * //

dimensions      [0 0 0 0 0 0 0];

internalField   nonuniform List<scalar> 
100
(
0.134199
0.117623
0.106272
0.0983694
0.0923062
0.0875746
0.0831362
0.0797281
0.0764258
0.0734425
0.0708576
0.0683886
0.0659991
0.0639054
0.062046
0.0602066
0.0584028
0.0566672
0.0550324
0.0534267
0.0519212
0.0503553
0.0488537
0.0474434
0.0459101
0.0444506
0.0429058
0.0413599
0.0397674
0.0381053
0.0364625
0.0347489
0.0329452
0.0310386
0.0290298
0.0269031
0.0246518
0.0223287
0.0199931
0.0177288
0.0156624
0.0139127
0.0125547
0.0115877
0.0109479
0.0105498
0.0103133
0.0101758
0.0100969
0.0100529
0.0100311
0.0100186
0.0100123
0.0100092
0.0100058
0.0100047
0.0100009
0.00999879
0.00999934
0.0100001
0.00999824
0.00999755
0.00999748
0.00999804
0.00999553
0.00999662
0.00999956
0.0100023
0.0100028
0.0100027
0.0100003
0.0100011
0.0100007
0.0100011
0.0100005
0.0100021
0.0100033
0.0100032
0.0100034
0.0100037
0.0100025
0.0100008
0.0100007
0.0100019
0.0100039
0.0100052
0.0100031
0.0100033
0.0100028
0.0100038
0.0100031
0.0100035
0.0100056
0.010004
0.0100026
0.0100051
0.0100041
0.0100028
0.0100025
0.0100021
)
;

boundaryField
{
    inlet
    {
        type            fixedValue;
        value           uniform 0.2;
    }
    outlet
    {
        type            zeroGradient;
    }
    yzfaces
    {
        type            empty;
    }
}


// ************************************************************************* //
