/*--------------------------------*- C++ -*----------------------------------*\
| =========                 |                                                 |
| \\      /  F ield         | foam-extend: Open Source CFD                    |
|  \\    /   O peration     | Version:     5.0                                |
|   \\  /    A nd           | Web:         http://www.foam-extend.org         |
|    \\/     M anipulation  |                                                 |
\*---------------------------------------------------------------------------*/
FoamFile
{
    version     2.0;
    format      ascii;
    class       volScalarField;
    location    "2";
    object      H2O.gas;
}
// * * * * * * * * * * * * * * * * * * * * * * * * * * * * * * * * * * * * * //

dimensions      [0 0 0 0 0 0 0];

internalField   nonuniform List<scalar> 
100
(
0.000261845
0.000228569
0.000206858
0.00019093
0.000179923
0.000170646
0.000162142
0.000155379
0.000148606
0.000143002
0.000137797
0.000132858
0.000128469
0.000124729
0.000120701
0.000117068
0.000113584
0.000110269
0.000107125
0.000104163
0.000101125
9.8117e-05
9.5095e-05
9.22827e-05
8.92898e-05
8.62936e-05
0.00573589
0.00834991
0.0108542
0.0131444
0.0152482
0.0170498
0.0185592
0.019641
0.0203216
0.0204795
0.0201578
0.0193816
0.0182138
0.0167378
0.015191
0.013716
0.0124907
0.0115763
0.0109426
0.010555
0.0103184
0.0101732
0.0100999
0.0100591
0.0100297
0.0100102
0.010003
0.00999998
0.0100036
0.00999998
0.0100058
0.0100049
0.00999456
0.00999531
0.00999112
0.00999452
0.00999408
0.00999344
0.00999554
0.00999562
0.0100016
0.0100025
0.0100046
0.0100064
0.00999571
0.0100041
0.0100024
0.0100055
0.0100084
0.0100003
0.00999656
0.0100062
0.0100007
0.0100025
0.00999828
0.00999853
0.00999806
0.0100017
0.00999552
0.00999869
0.00999601
0.0100001
0.00999631
0.00999358
0.00999027
0.00999592
0.00999462
0.00999118
0.00999711
0.00999895
0.0099964
0.00999665
0.00998951
0.00999251
)
;

boundaryField
{
    inlet
    {
        type            fixedValue;
        value           uniform 0;
    }
    outlet
    {
        type            zeroGradient;
    }
    yzfaces
    {
        type            empty;
    }
}


// ************************************************************************* //
