/*--------------------------------*- C++ -*----------------------------------*\
| =========                 |                                                 |
| \\      /  F ield         | foam-extend: Open Source CFD                    |
|  \\    /   O peration     | Version:     5.0                                |
|   \\  /    A nd           | Web:         http://www.foam-extend.org         |
|    \\/     M anipulation  |                                                 |
\*---------------------------------------------------------------------------*/
FoamFile
{
    version     2.0;
    format      ascii;
    class       volScalarField;
    location    "2";
    object      H2O.gas;
}
// * * * * * * * * * * * * * * * * * * * * * * * * * * * * * * * * * * * * * //

dimensions      [0 0 0 0 0 0 0];

internalField   nonuniform List<scalar> 
100
(
0.000261349
0.000229066
0.000206961
0.000191572
0.000179764
0.000170549
0.000161905
0.000155268
0.000148837
0.000143027
0.000137993
0.000133185
0.000128531
0.000124454
0.000120833
0.000117251
0.000113738
0.000110358
0.000107174
0.000104047
0.000101115
9.80655e-05
9.51411e-05
9.23946e-05
8.94086e-05
8.65662e-05
8.35578e-05
8.05473e-05
7.74458e-05
0.00735745
0.0105247
0.0132605
0.0155616
0.0173641
0.0186238
0.0192853
0.0193411
0.0188438
0.017854
0.0165297
0.0150584
0.0136329
0.0124532
0.0115519
0.0109417
0.0105552
0.0103135
0.0101651
0.0100982
0.0100481
0.0100165
0.0100114
0.0100075
0.010004
0.00999993
0.00999835
0.0100045
0.0100025
0.0100035
0.010005
0.0100023
0.0100101
0.0100115
0.0100093
0.0100037
0.00999823
0.00999369
0.00999098
0.00998987
0.00998829
0.00999095
0.00999368
0.00999183
0.00999329
0.00999969
0.00999399
0.00999608
0.0100041
0.0100007
0.00999465
0.00998832
0.0100004
0.00999845
0.0100028
0.0100105
0.0100082
0.0100042
0.0100114
0.0100012
0.0100011
0.00999672
0.00999584
0.0100015
0.00999879
0.0099963
0.00999275
0.0100008
0.0100042
0.00999908
0.00999023
)
;

boundaryField
{
    inlet
    {
        type            fixedValue;
        value           uniform 0;
    }
    outlet
    {
        type            zeroGradient;
    }
    yzfaces
    {
        type            empty;
    }
}


// ************************************************************************* //
