/*--------------------------------*- C++ -*----------------------------------*\
| =========                 |                                                 |
| \\      /  F ield         | foam-extend: Open Source CFD                    |
|  \\    /   O peration     | Version:     5.0                                |
|   \\  /    A nd           | Web:         http://www.foam-extend.org         |
|    \\/     M anipulation  |                                                 |
\*---------------------------------------------------------------------------*/
FoamFile
{
    version     2.0;
    format      ascii;
    class       volScalarField;
    location    "2";
    object      Na.water;
}
// * * * * * * * * * * * * * * * * * * * * * * * * * * * * * * * * * * * * * //

dimensions      [0 0 0 0 0 0 0];

internalField   nonuniform List<scalar> 
100
(
0.00752747
0.0094851
0.0107663
0.0117046
0.0123541
0.0129005
0.0134038
0.0138025
0.0142002
0.0145324
0.0148403
0.0151292
0.0153893
0.0156095
0.0158492
0.0160652
0.0162695
0.0164576
0.0166448
0.0168228
0.0170006
0.0171793
0.0173589
0.0175225
0.0176969
0.0178785
0.0180493
0.018233
0.0183908
0.0185848
0.0187597
0.0189659
0.0191606
0.0193861
0.0196097
0.019866
0.0201299
0.0203934
0.0206539
0.0209275
0.0211526
0.0213639
0.0215241
0.0216314
0.0217217
0.0217496
0.0217697
0.0218022
0.0217974
0.0217993
0.0218064
0.0218198
0.0218169
0.0218188
0.0218233
0.0218024
0.0218149
0.0218326
0.0218214
0.0218294
0.0218182
0.0218183
0.0218106
0.021822
0.0218066
0.0218073
0.0218153
0.0218137
0.0218157
0.0218262
0.021812
0.0218302
0.0218162
0.0218144
0.0218183
0.0218124
0.0218161
0.0218107
0.0217951
0.0218097
0.0218174
0.0218101
0.0218209
0.0218111
0.0218166
0.0218251
0.0218105
0.0218194
0.0218354
0.0218311
0.0218159
0.0218228
0.0218256
0.0218215
0.0218304
0.0218308
0.0218204
0.0218249
0.0218191
0.0218443
)
;

boundaryField
{
    inlet
    {
        type            fixedValue;
        value           uniform 0;
    }
    outlet
    {
        type            zeroGradient;
    }
    yzfaces
    {
        type            empty;
    }
}


// ************************************************************************* //
