/*--------------------------------*- C++ -*----------------------------------*\
| =========                 |                                                 |
| \\      /  F ield         | foam-extend: Open Source CFD                    |
|  \\    /   O peration     | Version:     5.0                                |
|   \\  /    A nd           | Web:         http://www.foam-extend.org         |
|    \\/     M anipulation  |                                                 |
\*---------------------------------------------------------------------------*/
FoamFile
{
    version     2.0;
    format      ascii;
    class       surfaceScalarField;
    location    "2";
    object      phi;
}
// * * * * * * * * * * * * * * * * * * * * * * * * * * * * * * * * * * * * * //

dimensions      [0 3 -1 0 0 0 0];

internalField   nonuniform List<scalar> 
99
(
1.2182e-06
1.22422e-06
1.21268e-06
1.22024e-06
1.22553e-06
1.21958e-06
1.22656e-06
1.22075e-06
1.22479e-06
1.2215e-06
1.22339e-06
1.22526e-06
1.23035e-06
1.22677e-06
1.22737e-06
1.23307e-06
1.2315e-06
1.23205e-06
1.23053e-06
1.22994e-06
1.2296e-06
1.227e-06
1.22898e-06
1.22493e-06
1.22536e-06
1.22579e-06
1.22501e-06
1.22541e-06
1.22486e-06
1.22626e-06
1.22642e-06
1.22569e-06
1.22525e-06
1.22455e-06
1.22389e-06
1.22349e-06
1.22556e-06
1.2269e-06
1.22511e-06
1.22576e-06
1.22461e-06
1.22349e-06
1.22386e-06
1.22299e-06
1.22454e-06
1.22406e-06
1.22211e-06
1.22312e-06
1.22147e-06
1.22134e-06
1.21992e-06
1.22144e-06
1.222e-06
1.22153e-06
1.22112e-06
1.22275e-06
1.22314e-06
1.22093e-06
1.22278e-06
1.22252e-06
1.22328e-06
1.22394e-06
1.2246e-06
1.22395e-06
1.22537e-06
1.22592e-06
1.22623e-06
1.22632e-06
1.22612e-06
1.22357e-06
1.22447e-06
1.22344e-06
1.22247e-06
1.22176e-06
1.22083e-06
1.22142e-06
1.22126e-06
1.22034e-06
1.2221e-06
1.22174e-06
1.22226e-06
1.22262e-06
1.22182e-06
1.22175e-06
1.22162e-06
1.22133e-06
1.2222e-06
1.22184e-06
1.22111e-06
1.22071e-06
1.22094e-06
1.22186e-06
1.22176e-06
1.22226e-06
1.22175e-06
1.22006e-06
1.21925e-06
1.21833e-06
1.22028e-06
)
;

boundaryField
{
    inlet
    {
        type            calculated;
        value           uniform -1.225e-06;
    }
    outlet
    {
        type            calculated;
        value           uniform 1.21906e-06;
    }
    yzfaces
    {
        type            empty;
    }
}


// ************************************************************************* //
