/*--------------------------------*- C++ -*----------------------------------*\
| =========                 |                                                 |
| \\      /  F ield         | foam-extend: Open Source CFD                    |
|  \\    /   O peration     | Version:     5.0                                |
|   \\  /    A nd           | Web:         http://www.foam-extend.org         |
|    \\/     M anipulation  |                                                 |
\*---------------------------------------------------------------------------*/
FoamFile
{
    version     2.0;
    format      ascii;
    class       surfaceScalarField;
    location    "2";
    object      phi.water;
}
// * * * * * * * * * * * * * * * * * * * * * * * * * * * * * * * * * * * * * //

dimensions      [0 3 -1 0 0 0 0];

internalField   nonuniform List<scalar> 
99
(
2.22139e-07
3.75044e-07
5.27154e-07
6.63784e-07
7.95892e-07
9.14035e-07
1.04394e-06
1.14778e-06
1.26198e-06
1.38366e-06
1.48966e-06
1.59893e-06
1.7172e-06
1.82431e-06
1.92357e-06
2.03343e-06
2.14574e-06
2.26019e-06
2.37139e-06
2.48737e-06
2.58829e-06
2.71486e-06
2.83188e-06
2.93962e-06
3.07217e-06
3.19162e-06
3.3294e-06
3.46808e-06
3.61812e-06
3.78221e-06
3.94775e-06
4.12054e-06
4.30129e-06
4.49313e-06
4.69318e-06
4.89694e-06
5.1098e-06
5.33013e-06
5.52695e-06
5.70086e-06
5.8396e-06
5.94351e-06
6.00346e-06
6.04479e-06
6.07365e-06
6.08662e-06
6.09999e-06
6.10568e-06
6.1073e-06
6.11133e-06
6.11727e-06
6.11446e-06
6.11864e-06
6.11896e-06
6.12722e-06
6.12698e-06
6.11854e-06
6.1195e-06
6.11827e-06
6.12141e-06
6.12199e-06
6.1239e-06
6.12383e-06
6.10469e-06
6.10856e-06
6.10183e-06
6.10904e-06
6.10734e-06
6.11177e-06
6.11194e-06
6.10817e-06
6.11004e-06
6.12065e-06
6.11605e-06
6.12183e-06
6.1228e-06
6.13162e-06
6.12507e-06
6.13142e-06
6.12916e-06
6.13009e-06
6.12132e-06
6.11579e-06
6.10856e-06
6.11162e-06
6.11157e-06
6.11952e-06
6.11662e-06
6.117e-06
6.12024e-06
6.12046e-06
6.12871e-06
6.11899e-06
6.1215e-06
6.1301e-06
6.136e-06
6.12426e-06
6.12254e-06
6.12399e-06
)
;

boundaryField
{
    inlet
    {
        type            fixedValue;
        value           uniform 0;
    }
    outlet
    {
        type            calculated;
        value           uniform 6.1205e-06;
    }
    yzfaces
    {
        type            empty;
    }
}


// ************************************************************************* //
