/*--------------------------------*- C++ -*----------------------------------*\
| =========                 |                                                 |
| \\      /  F ield         | foam-extend: Open Source CFD                    |
|  \\    /   O peration     | Version:     5.0                                |
|   \\  /    A nd           | Web:         http://www.foam-extend.org         |
|    \\/     M anipulation  |                                                 |
\*---------------------------------------------------------------------------*/
FoamFile
{
    version     2.0;
    format      ascii;
    class       volVectorField;
    location    "2";
    object      U.gas;
}
// * * * * * * * * * * * * * * * * * * * * * * * * * * * * * * * * * * * * * //

dimensions      [0 1 -1 0 0 0 0];

internalField   nonuniform List<vector> 
100
(
(0.00740777 0 0)
(0.00831948 0 0)
(0.00903465 0 0)
(0.00958904 0 0)
(0.0100679 0 0)
(0.0104786 0 0)
(0.0108938 0 0)
(0.011186 0 0)
(0.0114528 0 0)
(0.0117247 0 0)
(0.0119721 0 0)
(0.0121676 0 0)
(0.0123624 0 0)
(0.0125253 0 0)
(0.0126452 0 0)
(0.0127821 0 0)
(0.0129229 0 0)
(0.0130411 0 0)
(0.0131364 0 0)
(0.0132363 0 0)
(0.013292 0 0)
(0.0133518 0 0)
(0.0134001 0 0)
(0.0134042 0 0)
(0.0134284 0 0)
(0.0134122 0 0)
(0.0133885 0 0)
(0.0133338 0 0)
(0.0132663 0 0)
(0.0131894 0 0)
(0.0130777 0 0)
(0.0129312 0 0)
(0.012729 0 0)
(0.0124732 0 0)
(0.0121431 0 0)
(0.0117235 0 0)
(0.011205 0 0)
(0.01058 0 0)
(0.00984672 0 0)
(0.00901062 0 0)
(0.00811534 0 0)
(0.0072357 0 0)
(0.00644979 0 0)
(0.00581721 0 0)
(0.00536468 0 0)
(0.00506464 0 0)
(0.00487562 0 0)
(0.00476462 0 0)
(0.00470176 0 0)
(0.00466531 0 0)
(0.00464505 0 0)
(0.00463556 0 0)
(0.00463186 0 0)
(0.00463059 0 0)
(0.00463156 0 0)
(0.00463423 0 0)
(0.00463303 0 0)
(0.00462912 0 0)
(0.0046281 0 0)
(0.00462921 0 0)
(0.00463169 0 0)
(0.00463394 0 0)
(0.00463517 0 0)
(0.00462716 0 0)
(0.00461993 0 0)
(0.00461464 0 0)
(0.00461308 0 0)
(0.00461394 0 0)
(0.00461414 0 0)
(0.00461713 0 0)
(0.00461698 0 0)
(0.00461586 0 0)
(0.00462077 0 0)
(0.00462345 0 0)
(0.00462553 0 0)
(0.00462761 0 0)
(0.00463241 0 0)
(0.00463481 0 0)
(0.00463382 0 0)
(0.00463374 0 0)
(0.00463317 0 0)
(0.00463083 0 0)
(0.00462596 0 0)
(0.00462313 0 0)
(0.0046235 0 0)
(0.00462505 0 0)
(0.00462892 0 0)
(0.00463011 0 0)
(0.00462728 0 0)
(0.00462639 0 0)
(0.00462739 0 0)
(0.00462975 0 0)
(0.00462958 0 0)
(0.00462799 0 0)
(0.00463007 0 0)
(0.00463439 0 0)
(0.00463536 0 0)
(0.0046315 0 0)
(0.00463029 0 0)
(0.00462561 0 0)
)
;

boundaryField
{
    inlet
    {
        type            fixedValue;
        value           uniform (0.005 0 0);
    }
    outlet
    {
        type            zeroGradient;
    }
    yzfaces
    {
        type            empty;
    }
}


// ************************************************************************* //
