/*--------------------------------*- C++ -*----------------------------------*\
| =========                 |                                                 |
| \\      /  F ield         | foam-extend: Open Source CFD                    |
|  \\    /   O peration     | Version:     5.0                                |
|   \\  /    A nd           | Web:         http://www.foam-extend.org         |
|    \\/     M anipulation  |                                                 |
\*---------------------------------------------------------------------------*/
FoamFile
{
    version     2.0;
    format      ascii;
    class       volVectorField;
    location    "2";
    object      U.water;
}
// * * * * * * * * * * * * * * * * * * * * * * * * * * * * * * * * * * * * * //

dimensions      [0 1 -1 0 0 0 0];

internalField   nonuniform List<vector> 
100
(
(0.000102207 0 0)
(0.00024562 0 0)
(0.000368629 0 0)
(0.000485947 0 0)
(0.000594782 0 0)
(0.000697438 0 0)
(0.000797438 0 0)
(0.000895077 0 0)
(0.000983703 0 0)
(0.00107922 0 0)
(0.0011731 0 0)
(0.00126108 0 0)
(0.00135302 0 0)
(0.00144534 0 0)
(0.00153038 0 0)
(0.00161558 0 0)
(0.00170556 0 0)
(0.00179766 0 0)
(0.00188996 0 0)
(0.00198277 0 0)
(0.00207238 0 0)
(0.00216441 0 0)
(0.00226387 0 0)
(0.00235712 0 0)
(0.00245453 0 0)
(0.00255838 0 0)
(0.002663 0 0)
(0.00277484 0 0)
(0.00289106 0 0)
(0.00301938 0 0)
(0.00315624 0 0)
(0.00329414 0 0)
(0.00343811 0 0)
(0.00359131 0 0)
(0.00375236 0 0)
(0.00391724 0 0)
(0.00408664 0 0)
(0.00426249 0 0)
(0.00443118 0 0)
(0.0045818 0 0)
(0.00470909 0 0)
(0.00480836 0 0)
(0.00487698 0 0)
(0.0049194 0 0)
(0.00494881 0 0)
(0.00496608 0 0)
(0.004974 0 0)
(0.00497952 0 0)
(0.00498323 0 0)
(0.00498426 0 0)
(0.00498609 0 0)
(0.00498829 0 0)
(0.00499033 0 0)
(0.00499231 0 0)
(0.00499552 0 0)
(0.00499987 0 0)
(0.00499874 0 0)
(0.004997 0 0)
(0.00499711 0 0)
(0.00499805 0 0)
(0.0050005 0 0)
(0.00500372 0 0)
(0.00500554 0 0)
(0.00499683 0 0)
(0.00498861 0 0)
(0.00498451 0 0)
(0.00498136 0 0)
(0.00498113 0 0)
(0.00498096 0 0)
(0.0049829 0 0)
(0.00498271 0 0)
(0.00498291 0 0)
(0.004988 0 0)
(0.00499142 0 0)
(0.00499284 0 0)
(0.00499477 0 0)
(0.0049991 0 0)
(0.0050017 0 0)
(0.00500095 0 0)
(0.00499996 0 0)
(0.00499905 0 0)
(0.00499842 0 0)
(0.00499424 0 0)
(0.00499029 0 0)
(0.00498997 0 0)
(0.0049908 0 0)
(0.00499393 0 0)
(0.0049963 0 0)
(0.00499357 0 0)
(0.00499313 0 0)
(0.00499331 0 0)
(0.00499644 0 0)
(0.00499648 0 0)
(0.00499354 0 0)
(0.00499687 0 0)
(0.00500231 0 0)
(0.005002 0 0)
(0.00499821 0 0)
(0.00499643 0 0)
(0.00499287 0 0)
)
;

boundaryField
{
    inlet
    {
        type            fixedValue;
        value           uniform (0 0 0);
    }
    outlet
    {
        type            zeroGradient;
    }
    yzfaces
    {
        type            empty;
    }
}


// ************************************************************************* //
