/*--------------------------------*- C++ -*----------------------------------*\
| =========                 |                                                 |
| \\      /  F ield         | foam-extend: Open Source CFD                    |
|  \\    /   O peration     | Version:     5.0                                |
|   \\  /    A nd           | Web:         http://www.foam-extend.org         |
|    \\/     M anipulation  |                                                 |
\*---------------------------------------------------------------------------*/
FoamFile
{
    version     2.0;
    format      ascii;
    class       volScalarField;
    location    "1";
    object      alpha.gas;
}
// * * * * * * * * * * * * * * * * * * * * * * * * * * * * * * * * * * * * * //

dimensions      [0 0 0 0 0 0 0];

internalField   nonuniform List<scalar> 
100
(
0.112845
0.0938998
0.0823705
0.0735605
0.0662184
0.0595526
0.0525637
0.0439364
0.0311664
0.00413759
0.0266654
0.0271442
0.0275428
0.0274987
0.0269524
0.0259372
0.0245043
0.0227271
0.0206855
0.0184982
0.016341
0.0143951
0.0128271
0.0117007
0.0109715
0.0105364
0.0102885
0.0101544
0.0100821
0.0100439
0.0100236
0.0100132
0.0100081
0.0100066
0.0100038
0.0100028
0.0100027
0.0100027
0.0100022
0.010001
0.00999821
0.0099993
0.0100006
0.00999872
0.00999793
0.00999808
0.00999996
0.010001
0.00999961
0.00999837
0.00999894
0.00999964
0.00999962
0.00999975
0.0100007
0.0099991
0.00999892
0.0100001
0.0100003
0.0100015
0.0100019
0.0100021
0.0100017
0.0100017
0.0100021
0.010001
0.0100006
0.0100002
0.00999958
0.00999827
0.00999651
0.00999746
0.00999837
0.00999797
0.00999715
0.00999823
0.0099991
0.00999997
0.00999902
0.00999991
0.00999947
0.00999875
0.00999967
0.00999976
0.00999929
0.0099982
0.0099991
0.00999958
0.00999884
0.00999932
0.00999997
0.0100009
0.0100013
0.0100009
0.0100003
0.0100019
0.0100015
0.00999955
0.0100001
0.00999875
)
;

boundaryField
{
    inlet
    {
        type            fixedValue;
        value           uniform 0.2;
    }
    outlet
    {
        type            zeroGradient;
    }
    yzfaces
    {
        type            empty;
    }
}


// ************************************************************************* //
