/*--------------------------------*- C++ -*----------------------------------*\
| =========                 |                                                 |
| \\      /  F ield         | foam-extend: Open Source CFD                    |
|  \\    /   O peration     | Version:     5.0                                |
|   \\  /    A nd           | Web:         http://www.foam-extend.org         |
|    \\/     M anipulation  |                                                 |
\*---------------------------------------------------------------------------*/
FoamFile
{
    version     2.0;
    format      ascii;
    class       volScalarField;
    location    "1";
    object      Cl.water;
}
// * * * * * * * * * * * * * * * * * * * * * * * * * * * * * * * * * * * * * //

dimensions      [0 0 0 0 0 0 0];

internalField   nonuniform List<scalar> 
100
(
0.0100026
0.012139
0.0134716
0.0144914
0.0153579
0.0161149
0.016924
0.0178997
0.0193454
0.0220874
0.0207428
0.0208281
0.02084
0.0208702
0.0209394
0.0210541
0.0212448
0.0214597
0.0217046
0.0219762
0.0222447
0.0224637
0.0226413
0.0227511
0.0228553
0.022916
0.0229632
0.0229761
0.0229901
0.0229873
0.0229832
0.0229918
0.0229804
0.0229787
0.0229915
0.0230018
0.0230071
0.0230097
0.0230102
0.0230202
0.0230179
0.0230147
0.023019
0.0230299
0.0230324
0.0230065
0.0229925
0.0229981
0.0230118
0.0229983
0.0229972
0.0230038
0.0230019
0.0230092
0.0230119
0.0230126
0.0230087
0.0229935
0.0229856
0.0229863
0.0229733
0.0229849
0.0229957
0.0229859
0.0229885
0.0229948
0.0229963
0.0229986
0.0229998
0.0230023
0.0229971
0.0229938
0.022991
0.0229897
0.0229803
0.0229869
0.0229959
0.0229958
0.0229995
0.0230027
0.0230057
0.0230039
0.0230081
0.0230177
0.023017
0.0230046
0.023
0.0229877
0.0229888
0.0229829
0.0229873
0.0229868
0.0229824
0.0229985
0.0229907
0.0229762
0.0229898
0.0230048
0.0230124
0.023023
)
;

boundaryField
{
    inlet
    {
        type            fixedValue;
        value           uniform 0;
    }
    outlet
    {
        type            zeroGradient;
    }
    yzfaces
    {
        type            empty;
    }
}


// ************************************************************************* //
