/*--------------------------------*- C++ -*----------------------------------*\
| =========                 |                                                 |
| \\      /  F ield         | foam-extend: Open Source CFD                    |
|  \\    /   O peration     | Version:     5.0                                |
|   \\  /    A nd           | Web:         http://www.foam-extend.org         |
|    \\/     M anipulation  |                                                 |
\*---------------------------------------------------------------------------*/
FoamFile
{
    version     2.0;
    format      ascii;
    class       volScalarField;
    location    "1";
    object      H2O.gas;
}
// * * * * * * * * * * * * * * * * * * * * * * * * * * * * * * * * * * * * * //

dimensions      [0 0 0 0 0 0 0];

internalField   nonuniform List<scalar> 
100
(
0.000219762
0.000136373
0.000121576
0.000113604
0.000121667
0.000111176
0.000102366
8.55649e-05
6.06957e-05
8.05784e-06
0.00328536
0.00539089
0.0076482
0.00995105
0.0121454
0.014066
0.0155495
0.0164166
0.0165885
0.0161032
0.0151026
0.0138278
0.0125898
0.0116003
0.0109326
0.0105205
0.0102842
0.0101522
0.0100831
0.0100421
0.01002
0.0100114
0.0100006
0.00999868
0.0100018
0.0100032
0.0100075
0.0100083
0.0100059
0.0100081
0.010005
0.0100056
0.0100074
0.0100123
0.0100124
0.0100038
0.00999941
0.0100023
0.0100074
0.0100021
0.0100015
0.0100049
0.0100012
0.0100029
0.0100036
0.0100031
0.0100023
0.00999844
0.00999501
0.00999704
0.0099889
0.0099952
0.0100014
0.0099985
0.00999847
0.00999892
0.00999742
0.00999951
0.00999826
0.00999989
0.00999666
0.00999665
0.00999701
0.00999616
0.00999253
0.00999265
0.00999897
0.00999871
0.00999962
0.0100008
0.0100013
0.0100001
0.0100018
0.0100066
0.0100059
0.00999987
0.0100001
0.00999728
0.0100002
0.00999612
0.00999867
0.0099981
0.0099955
0.0100025
0.00999901
0.00999388
0.00999944
0.0100007
0.0100044
0.0100057
)
;

boundaryField
{
    inlet
    {
        type            fixedValue;
        value           uniform 0;
    }
    outlet
    {
        type            zeroGradient;
    }
    yzfaces
    {
        type            empty;
    }
}


// ************************************************************************* //
