/*--------------------------------*- C++ -*----------------------------------*\
| =========                 |                                                 |
| \\      /  F ield         | foam-extend: Open Source CFD                    |
|  \\    /   O peration     | Version:     5.0                                |
|   \\  /    A nd           | Web:         http://www.foam-extend.org         |
|    \\/     M anipulation  |                                                 |
\*---------------------------------------------------------------------------*/
FoamFile
{
    version     2.0;
    format      ascii;
    class       volVectorField;
    location    "1";
    object      U.gas;
}
// * * * * * * * * * * * * * * * * * * * * * * * * * * * * * * * * * * * * * //

dimensions      [0 1 -1 0 0 0 0];

internalField   nonuniform List<vector> 
100
(
(0.00871566 0 0)
(0.0101106 0 0)
(0.0110542 0 0)
(0.0118328 0 0)
(0.0125121 0 0)
(0.0131164 0 0)
(0.0136948 0 0)
(0.0143561 0 0)
(0.0151984 0 0)
(0.012405 0 0)
(0.0110815 0 0)
(0.0108682 0 0)
(0.0110126 0 0)
(0.0111638 0 0)
(0.0112076 0 0)
(0.0111135 0 0)
(0.0108769 0 0)
(0.0104899 0 0)
(0.00994775 0 0)
(0.00925007 0 0)
(0.00841741 0 0)
(0.00751284 0 0)
(0.0066426 0 0)
(0.00591262 0 0)
(0.00538421 0 0)
(0.0050418 0 0)
(0.0048353 0 0)
(0.00471789 0 0)
(0.00465298 0 0)
(0.00461646 0 0)
(0.00459374 0 0)
(0.00458069 0 0)
(0.0045736 0 0)
(0.00457057 0 0)
(0.00457105 0 0)
(0.00456943 0 0)
(0.00456694 0 0)
(0.00456245 0 0)
(0.00456015 0 0)
(0.00455975 0 0)
(0.00455636 0 0)
(0.0045506 0 0)
(0.0045518 0 0)
(0.0045571 0 0)
(0.00455555 0 0)
(0.00454763 0 0)
(0.00454441 0 0)
(0.00455206 0 0)
(0.00455668 0 0)
(0.00455526 0 0)
(0.00455563 0 0)
(0.00455394 0 0)
(0.00455409 0 0)
(0.00456006 0 0)
(0.00456285 0 0)
(0.00456398 0 0)
(0.00456633 0 0)
(0.00456626 0 0)
(0.00456581 0 0)
(0.00456833 0 0)
(0.00457086 0 0)
(0.00457347 0 0)
(0.00457712 0 0)
(0.00458028 0 0)
(0.00458222 0 0)
(0.00458272 0 0)
(0.00458235 0 0)
(0.00458157 0 0)
(0.0045821 0 0)
(0.00458534 0 0)
(0.00458345 0 0)
(0.00457755 0 0)
(0.00457409 0 0)
(0.00457021 0 0)
(0.0045692 0 0)
(0.0045657 0 0)
(0.00456858 0 0)
(0.00457386 0 0)
(0.00457492 0 0)
(0.00457624 0 0)
(0.00457635 0 0)
(0.00457425 0 0)
(0.00457483 0 0)
(0.00457865 0 0)
(0.00458094 0 0)
(0.00458231 0 0)
(0.00458341 0 0)
(0.00458568 0 0)
(0.00458931 0 0)
(0.00459159 0 0)
(0.00459077 0 0)
(0.00459103 0 0)
(0.00459006 0 0)
(0.00458784 0 0)
(0.00458573 0 0)
(0.00458683 0 0)
(0.0045912 0 0)
(0.00459312 0 0)
(0.00459306 0 0)
(0.00459246 0 0)
)
;

boundaryField
{
    inlet
    {
        type            fixedValue;
        value           uniform (0.005 0 0);
    }
    outlet
    {
        type            zeroGradient;
    }
    yzfaces
    {
        type            empty;
    }
}


// ************************************************************************* //
