/*--------------------------------*- C++ -*----------------------------------*\
| =========                 |                                                 |
| \\      /  F ield         | foam-extend: Open Source CFD                    |
|  \\    /   O peration     | Version:     5.0                                |
|   \\  /    A nd           | Web:         http://www.foam-extend.org         |
|    \\/     M anipulation  |                                                 |
\*---------------------------------------------------------------------------*/
FoamFile
{
    version     2.0;
    format      ascii;
    class       volScalarField;
    location    "9";
    object      alpha.gas;
}
// * * * * * * * * * * * * * * * * * * * * * * * * * * * * * * * * * * * * * //

dimensions      [0 0 0 0 0 0 0];

internalField   nonuniform List<scalar> 
100
(
0.158621
0.147508
0.147606
0.144523
0.130908
0.126006
0.12432
0.124418
0.123907
0.120292
0.112644
0.108277
0.103909
0.0998549
0.0977666
0.0945363
0.0917703
0.0894439
0.0871331
0.0860761
0.0856593
0.0856067
0.0848765
0.0844135
0.0833541
0.0820459
0.0802939
0.0790001
0.0773544
0.0764956
0.0756246
0.0752102
0.0743583
0.073625
0.0727903
0.0720063
0.0713936
0.070666
0.0698505
0.0696252
0.0690508
0.0681943
0.0676691
0.0671227
0.0662227
0.0657644
0.0653223
0.0647194
0.0640527
0.063522
0.0629474
0.0622708
0.0618303
0.061145
0.0605804
0.0598728
0.0593474
0.0587973
0.0583868
0.0579113
0.0572908
0.0569094
0.0563991
0.0559433
0.0553506
0.0549537
0.0544193
0.0539593
0.0533977
0.0530458
0.0526743
0.0521038
0.0518213
0.0513768
0.0507248
0.0499105
0.0486308
0.0468656
0.044067
0.0393486
0.0294403
0.00368298
0.0248868
0.0240776
0.0236174
0.0234132
0.0233731
0.0234346
0.023555
0.0236932
0.0238319
0.0239569
0.0240627
0.0241658
0.0242634
0.0243616
0.024459
0.0245723
0.0246733
0.0247861
)
;

boundaryField
{
    inlet
    {
        type            fixedValue;
        value           uniform 0.2;
    }
    outlet
    {
        type            zeroGradient;
    }
    yzfaces
    {
        type            empty;
    }
}


// ************************************************************************* //
