/*--------------------------------*- C++ -*----------------------------------*\
| =========                 |                                                 |
| \\      /  F ield         | foam-extend: Open Source CFD                    |
|  \\    /   O peration     | Version:     5.0                                |
|   \\  /    A nd           | Web:         http://www.foam-extend.org         |
|    \\/     M anipulation  |                                                 |
\*---------------------------------------------------------------------------*/
FoamFile
{
    version     2.0;
    format      ascii;
    class       volScalarField;
    location    "9";
    object      Cl.water;
}
// * * * * * * * * * * * * * * * * * * * * * * * * * * * * * * * * * * * * * //

dimensions      [0 0 0 0 0 0 0];

internalField   nonuniform List<scalar> 
100
(
0.00789544
0.01068
0.0117668
0.0124002
0.0144888
0.0158929
0.0165834
0.0167264
0.0166594
0.016817
0.0177281
0.0186338
0.0193866
0.0202743
0.0207759
0.0213138
0.0217037
0.0223389
0.0229388
0.0233909
0.0235518
0.0236519
0.0237106
0.0237134
0.0238819
0.0240303
0.0242316
0.0245756
0.0249158
0.0251772
0.0254015
0.0255999
0.0257911
0.0259802
0.025999
0.026093
0.0262444
0.0263658
0.0265301
0.0266875
0.0268088
0.0269013
0.0270714
0.027122
0.0272697
0.0274127
0.0275815
0.0277515
0.0278591
0.0279326
0.0279959
0.0280855
0.0281442
0.0283202
0.02852
0.0286824
0.0288078
0.0289223
0.0290075
0.0291101
0.0292154
0.0293259
0.0294094
0.0295394
0.0296629
0.0297848
0.0298499
0.0299498
0.0300335
0.0302069
0.030325
0.0304206
0.0305088
0.0305753
0.0306797
0.0308499
0.0310428
0.0314225
0.0319516
0.0329047
0.0349536
0.0402267
0.0366949
0.03696
0.0371101
0.0371653
0.037182
0.0371731
0.0371392
0.037125
0.0370816
0.0370464
0.037026
0.0370096
0.0370092
0.0370008
0.0369776
0.0369737
0.0369453
0.0369443
)
;

boundaryField
{
    inlet
    {
        type            fixedValue;
        value           uniform 0;
    }
    outlet
    {
        type            zeroGradient;
    }
    yzfaces
    {
        type            empty;
    }
}


// ************************************************************************* //
