/*--------------------------------*- C++ -*----------------------------------*\
| =========                 |                                                 |
| \\      /  F ield         | foam-extend: Open Source CFD                    |
|  \\    /   O peration     | Version:     5.0                                |
|   \\  /    A nd           | Web:         http://www.foam-extend.org         |
|    \\/     M anipulation  |                                                 |
\*---------------------------------------------------------------------------*/
FoamFile
{
    version     2.0;
    format      ascii;
    class       volScalarField;
    location    "9";
    object      CO2.gas;
}
// * * * * * * * * * * * * * * * * * * * * * * * * * * * * * * * * * * * * * //

dimensions      [0 0 0 0 0 0 0];

internalField   nonuniform List<scalar> 
100
(
0.158312
0.147221
0.147319
0.144242
0.130653
0.125761
0.124078
0.124176
0.123665
0.120058
0.112425
0.108066
0.103707
0.0996604
0.0975762
0.0943522
0.0915916
0.0892697
0.0869634
0.0859085
0.0854925
0.08544
0.0847112
0.0842491
0.0831918
0.0818861
0.0801375
0.0788462
0.0772038
0.0763466
0.0754773
0.0750637
0.0742135
0.0734816
0.0726486
0.0718661
0.0712546
0.0705284
0.0697145
0.0694896
0.0689163
0.0680615
0.0675374
0.066992
0.0660938
0.0656364
0.0651951
0.0645933
0.063928
0.0633983
0.0628248
0.0621495
0.0617099
0.0610259
0.0604624
0.0597562
0.0592318
0.0586828
0.0582731
0.0577985
0.0571792
0.0567985
0.0562892
0.0558343
0.0552428
0.0548466
0.0543133
0.0538542
0.0532937
0.0529425
0.0525717
0.0520024
0.0517203
0.0512767
0.050626
0.0498133
0.0485361
0.0467743
0.0439812
0.0392719
0.0293829
0.00367581
0.0243257
0.0231641
0.0223198
0.0216827
0.0211785
0.0207311
0.0202846
0.0198204
0.0193053
0.0187407
0.0181195
0.0174601
0.0167737
0.0160541
0.0153032
0.0145458
0.0137609
0.0129622
)
;

boundaryField
{
    inlet
    {
        type            fixedValue;
        value           uniform 0.2;
    }
    outlet
    {
        type            zeroGradient;
    }
    yzfaces
    {
        type            empty;
    }
}


// ************************************************************************* //
