/*--------------------------------*- C++ -*----------------------------------*\
| =========                 |                                                 |
| \\      /  F ield         | foam-extend: Open Source CFD                    |
|  \\    /   O peration     | Version:     5.0                                |
|   \\  /    A nd           | Web:         http://www.foam-extend.org         |
|    \\/     M anipulation  |                                                 |
\*---------------------------------------------------------------------------*/
FoamFile
{
    version     2.0;
    format      ascii;
    class       volScalarField;
    location    "9";
    object      CO2.water;
}
// * * * * * * * * * * * * * * * * * * * * * * * * * * * * * * * * * * * * * //

dimensions      [0 0 0 0 0 0 0];

internalField   nonuniform List<scalar> 
100
(
0.0010868
0.00137867
0.00137609
0.00145707
0.00181467
0.00194341
0.0019877
0.00198512
0.00199855
0.00209348
0.00229436
0.00240905
0.00252379
0.00263027
0.00268511
0.00276996
0.0028426
0.00290371
0.0029644
0.00299216
0.00300311
0.00300449
0.00302367
0.00303583
0.00306365
0.00309801
0.00314403
0.00317801
0.00322123
0.00324379
0.00326666
0.00327755
0.00329992
0.00331918
0.0033411
0.0033617
0.00337779
0.0033969
0.00341832
0.00342423
0.00343932
0.00346181
0.00347561
0.00348996
0.0035136
0.00352564
0.00353725
0.00355308
0.00357059
0.00358453
0.00359962
0.00361739
0.00362896
0.00364696
0.00366179
0.00368038
0.00369418
0.00370862
0.00371941
0.00373189
0.00374819
0.00375821
0.00377161
0.00378358
0.00379915
0.00380958
0.00382361
0.00383569
0.00385044
0.00385968
0.00386944
0.00388443
0.00389185
0.00390352
0.00392064
0.00394203
0.00397564
0.00402201
0.00409551
0.00421944
0.00447967
0.00515618
0.000757443
0.000285467
0.000104944
3.76493e-05
1.32199e-05
4.55997e-06
1.55467e-06
5.27044e-07
1.78303e-07
6.05334e-08
2.06699e-08
7.10957e-09
2.46245e-09
8.58225e-10
3.00291e-10
1.05353e-10
3.70159e-11
1.30615e-11
)
;

boundaryField
{
    inlet
    {
        type            fixedValue;
        value           uniform 0;
    }
    outlet
    {
        type            zeroGradient;
    }
    yzfaces
    {
        type            empty;
    }
}


// ************************************************************************* //
