/*--------------------------------*- C++ -*----------------------------------*\
| =========                 |                                                 |
| \\      /  F ield         | foam-extend: Open Source CFD                    |
|  \\    /   O peration     | Version:     5.0                                |
|   \\  /    A nd           | Web:         http://www.foam-extend.org         |
|    \\/     M anipulation  |                                                 |
\*---------------------------------------------------------------------------*/
FoamFile
{
    version     2.0;
    format      ascii;
    class       volScalarField;
    location    "9";
    object      H2O.gas;
}
// * * * * * * * * * * * * * * * * * * * * * * * * * * * * * * * * * * * * * //

dimensions      [0 0 0 0 0 0 0];

internalField   nonuniform List<scalar> 
100
(
0.00030891
0.000287268
0.000287459
0.000281455
0.000254939
0.000245394
0.00024211
0.000242301
0.000241305
0.000234266
0.000219372
0.000210867
0.00020236
0.000194464
0.000190398
0.000184107
0.00017872
0.000174189
0.000169689
0.000167631
0.000166819
0.000166717
0.000165295
0.000164393
0.00016233
0.000159782
0.00015637
0.00015385
0.000150645
0.000148973
0.000147277
0.00014647
0.000144811
0.000143382
0.000141757
0.00014023
0.000139037
0.00013762
0.000136032
0.000135593
0.000134474
0.000132807
0.000131784
0.000130719
0.000128967
0.000128074
0.000127213
0.000126039
0.000124741
0.000123707
0.000122588
0.000121271
0.000120413
0.000119078
0.000117979
0.0001166
0.000115577
0.000114506
0.000113707
0.000112781
0.000111572
0.000110829
0.000109836
0.000108948
0.000107794
0.000107021
0.00010598
0.000105084
0.00010399
0.000103305
0.000102582
0.000101471
0.00010092
0.000100055
9.87851e-05
9.71993e-05
9.47072e-05
9.12694e-05
8.58192e-05
7.66302e-05
5.73341e-05
7.1725e-06
0.000563914
0.00091487
0.00130512
0.00173192
0.00220061
0.00271121
0.003268
0.0038726
0.00451966
0.00520988
0.0059376
0.00669841
0.00749647
0.00832179
0.00917459
0.0100536
0.0109393
0.0118638
)
;

boundaryField
{
    inlet
    {
        type            fixedValue;
        value           uniform 0;
    }
    outlet
    {
        type            zeroGradient;
    }
    yzfaces
    {
        type            empty;
    }
}


// ************************************************************************* //
