/*--------------------------------*- C++ -*----------------------------------*\
| =========                 |                                                 |
| \\      /  F ield         | foam-extend: Open Source CFD                    |
|  \\    /   O peration     | Version:     5.0                                |
|   \\  /    A nd           | Web:         http://www.foam-extend.org         |
|    \\/     M anipulation  |                                                 |
\*---------------------------------------------------------------------------*/
FoamFile
{
    version     2.0;
    format      ascii;
    class       volScalarField;
    location    "9";
    object      H2O.water;
}
// * * * * * * * * * * * * * * * * * * * * * * * * * * * * * * * * * * * * * //

dimensions      [0 0 0 0 0 0 0];

internalField   nonuniform List<scalar> 
100
(
0.0245009
0.029751
0.0274721
0.0292093
0.0382871
0.0402538
0.0405264
0.0401355
0.040763
0.043958
0.0495719
0.0520039
0.0547572
0.0569284
0.0579654
0.0600608
0.0619668
0.0629752
0.0640253
0.064133
0.0642169
0.0640761
0.0646726
0.0651149
0.0658121
0.0667783
0.0680794
0.0686564
0.069585
0.0698814
0.0702966
0.0703166
0.0707651
0.0711072
0.0718813
0.0724405
0.072724
0.0731917
0.0736582
0.0735654
0.0738793
0.0745306
0.0746913
0.0751222
0.0757202
0.0758705
0.0759504
0.0761923
0.0766318
0.0770226
0.0774513
0.077927
0.0782461
0.0785621
0.078706
0.0790737
0.0793368
0.0796609
0.0798953
0.0801642
0.0805555
0.0807187
0.0810428
0.081229
0.0815448
0.0816866
0.08207
0.0823204
0.0826996
0.0827058
0.0828168
0.0831721
0.0832884
0.0835765
0.0839962
0.0844543
0.0853094
0.0862655
0.0879228
0.0906063
0.0961461
0.110678
0.100963
0.101692
0.102093
0.102215
0.102292
0.10228
0.102165
0.102085
0.101974
0.101909
0.101844
0.101771
0.10178
0.101751
0.101719
0.101682
0.101634
0.101613
)
;

boundaryField
{
    inlet
    {
        type            fixedValue;
        value           uniform 0;
    }
    outlet
    {
        type            zeroGradient;
    }
    yzfaces
    {
        type            empty;
    }
}


// ************************************************************************* //
