/*--------------------------------*- C++ -*----------------------------------*\
| =========                 |                                                 |
| \\      /  F ield         | foam-extend: Open Source CFD                    |
|  \\    /   O peration     | Version:     5.0                                |
|   \\  /    A nd           | Web:         http://www.foam-extend.org         |
|    \\/     M anipulation  |                                                 |
\*---------------------------------------------------------------------------*/
FoamFile
{
    version     2.0;
    format      ascii;
    class       volScalarField;
    location    "9";
    object      Na.water;
}
// * * * * * * * * * * * * * * * * * * * * * * * * * * * * * * * * * * * * * //

dimensions      [0 0 0 0 0 0 0];

internalField   nonuniform List<scalar> 
100
(
0.00789569
0.0106821
0.0117786
0.0124101
0.0145016
0.0159035
0.0165824
0.0167347
0.0166723
0.0168391
0.0177613
0.0186759
0.0194234
0.0203122
0.020807
0.0213192
0.0217166
0.0223383
0.0229384
0.0234078
0.0235688
0.0236609
0.0237166
0.0237223
0.0238883
0.0240475
0.024251
0.0245899
0.0249235
0.025202
0.0254105
0.0255958
0.0257855
0.0259685
0.0259882
0.0260985
0.0262603
0.0263796
0.0265428
0.0266977
0.0268219
0.0269119
0.0270925
0.0271431
0.0272738
0.0274267
0.0276086
0.0277838
0.0278858
0.0279383
0.0280057
0.0280994
0.0281504
0.0283258
0.0285319
0.0286908
0.0288138
0.0289109
0.0289911
0.0290825
0.0291901
0.0292878
0.0293771
0.0295048
0.0296426
0.0297654
0.0298372
0.0299349
0.0300188
0.0301818
0.0303144
0.030419
0.0304897
0.0305679
0.0306787
0.0308432
0.0310413
0.0314244
0.0319631
0.032921
0.0349803
0.0402558
0.0367179
0.0369947
0.0371312
0.0371806
0.0371852
0.0371654
0.0371219
0.0370951
0.0370605
0.0370413
0.0370263
0.0370006
0.0369972
0.0369898
0.0369794
0.036965
0.0369386
0.036938
)
;

boundaryField
{
    inlet
    {
        type            fixedValue;
        value           uniform 0;
    }
    outlet
    {
        type            zeroGradient;
    }
    yzfaces
    {
        type            empty;
    }
}


// ************************************************************************* //
