/*--------------------------------*- C++ -*----------------------------------*\
| =========                 |                                                 |
| \\      /  F ield         | foam-extend: Open Source CFD                    |
|  \\    /   O peration     | Version:     5.0                                |
|   \\  /    A nd           | Web:         http://www.foam-extend.org         |
|    \\/     M anipulation  |                                                 |
\*---------------------------------------------------------------------------*/
FoamFile
{
    version     2.0;
    format      ascii;
    class       surfaceScalarField;
    location    "9";
    object      phi;
}
// * * * * * * * * * * * * * * * * * * * * * * * * * * * * * * * * * * * * * //

dimensions      [0 3 -1 0 0 0 0];

internalField   nonuniform List<scalar> 
99
(
1.22318e-06
1.22458e-06
1.21926e-06
1.20169e-06
1.20094e-06
1.20483e-06
1.20384e-06
1.21475e-06
1.20247e-06
1.19524e-06
1.18969e-06
1.18777e-06
1.18575e-06
1.18106e-06
1.17289e-06
1.1745e-06
1.17927e-06
1.18112e-06
1.18825e-06
1.18597e-06
1.18636e-06
1.18564e-06
1.17751e-06
1.172e-06
1.16637e-06
1.15803e-06
1.16035e-06
1.1551e-06
1.15572e-06
1.15703e-06
1.15726e-06
1.15016e-06
1.15001e-06
1.1539e-06
1.15759e-06
1.15968e-06
1.1581e-06
1.15536e-06
1.15904e-06
1.15867e-06
1.15924e-06
1.15849e-06
1.16213e-06
1.16184e-06
1.16481e-06
1.16307e-06
1.16034e-06
1.15887e-06
1.16009e-06
1.1605e-06
1.16e-06
1.16281e-06
1.15966e-06
1.16138e-06
1.15721e-06
1.15862e-06
1.15769e-06
1.15717e-06
1.15947e-06
1.15714e-06
1.15817e-06
1.15729e-06
1.15335e-06
1.15079e-06
1.15202e-06
1.15149e-06
1.15149e-06
1.15042e-06
1.15025e-06
1.14899e-06
1.14807e-06
1.15162e-06
1.15085e-06
1.14517e-06
1.14537e-06
1.14582e-06
1.14537e-06
1.14639e-06
1.14737e-06
1.14697e-06
1.14627e-06
1.14713e-06
1.14756e-06
1.14769e-06
1.14795e-06
1.14786e-06
1.14778e-06
1.149e-06
1.14924e-06
1.14874e-06
1.14793e-06
1.14807e-06
1.14996e-06
1.1494e-06
1.15074e-06
1.15021e-06
1.15039e-06
1.14941e-06
1.15026e-06
)
;

boundaryField
{
    inlet
    {
        type            calculated;
        value           uniform -1.225e-06;
    }
    outlet
    {
        type            calculated;
        value           uniform 1.14881e-06;
    }
    yzfaces
    {
        type            empty;
    }
}


// ************************************************************************* //
