/*--------------------------------*- C++ -*----------------------------------*\
| =========                 |                                                 |
| \\      /  F ield         | foam-extend: Open Source CFD                    |
|  \\    /   O peration     | Version:     5.0                                |
|   \\  /    A nd           | Web:         http://www.foam-extend.org         |
|    \\/     M anipulation  |                                                 |
\*---------------------------------------------------------------------------*/
FoamFile
{
    version     2.0;
    format      ascii;
    class       surfaceScalarField;
    location    "9";
    object      phi.water;
}
// * * * * * * * * * * * * * * * * * * * * * * * * * * * * * * * * * * * * * //

dimensions      [0 3 -1 0 0 0 0];

internalField   nonuniform List<scalar> 
99
(
1.00199e-07
1.66703e-07
1.58817e-07
1.62049e-07
2.61173e-07
3.08097e-07
3.27461e-07
3.23443e-07
3.24921e-07
3.46788e-07
4.3967e-07
4.95212e-07
5.62073e-07
6.28993e-07
6.61827e-07
7.20698e-07
7.83736e-07
8.40616e-07
9.06192e-07
9.36283e-07
9.50423e-07
9.51853e-07
9.65136e-07
9.71031e-07
9.95632e-07
1.02423e-06
1.07596e-06
1.11661e-06
1.16804e-06
1.1988e-06
1.23314e-06
1.24233e-06
1.2717e-06
1.30035e-06
1.33381e-06
1.36876e-06
1.39539e-06
1.4205e-06
1.45892e-06
1.46803e-06
1.49279e-06
1.5295e-06
1.55801e-06
1.58594e-06
1.62712e-06
1.65242e-06
1.67108e-06
1.69923e-06
1.73012e-06
1.75845e-06
1.78697e-06
1.82576e-06
1.85087e-06
1.88517e-06
1.91262e-06
1.95342e-06
1.98498e-06
2.01235e-06
2.03942e-06
2.06568e-06
2.10732e-06
2.12656e-06
2.15554e-06
2.17872e-06
2.21634e-06
2.24229e-06
2.27655e-06
2.30567e-06
2.34428e-06
2.36532e-06
2.38942e-06
2.43105e-06
2.45416e-06
2.47476e-06
2.51761e-06
2.57304e-06
2.66432e-06
2.79438e-06
3.00583e-06
3.36081e-06
4.36203e-06
4.68457e-06
4.82337e-06
4.89921e-06
4.94356e-06
4.96294e-06
4.96681e-06
4.96836e-06
4.96006e-06
4.94677e-06
4.93216e-06
4.92113e-06
4.9202e-06
4.90733e-06
4.90222e-06
4.89013e-06
4.88101e-06
4.86647e-06
4.85997e-06
)
;

boundaryField
{
    inlet
    {
        type            fixedValue;
        value           uniform 0;
    }
    outlet
    {
        type            calculated;
        value           uniform 4.83992e-06;
    }
    yzfaces
    {
        type            empty;
    }
}


// ************************************************************************* //
