/*--------------------------------*- C++ -*----------------------------------*\
| =========                 |                                                 |
| \\      /  F ield         | foam-extend: Open Source CFD                    |
|  \\    /   O peration     | Version:     5.0                                |
|   \\  /    A nd           | Web:         http://www.foam-extend.org         |
|    \\/     M anipulation  |                                                 |
\*---------------------------------------------------------------------------*/
FoamFile
{
    version     2.0;
    format      ascii;
    class       volVectorField;
    location    "9";
    object      U.gas;
}
// * * * * * * * * * * * * * * * * * * * * * * * * * * * * * * * * * * * * * //

dimensions      [0 1 -1 0 0 0 0];

internalField   nonuniform List<vector> 
100
(
(0.00628718 0 0)
(0.00673262 0 0)
(0.00670426 0 0)
(0.00679881 0 0)
(0.00739393 0 0)
(0.0076494 0 0)
(0.00774333 0 0)
(0.0077459 0 0)
(0.00780232 0 0)
(0.00794552 0 0)
(0.00839826 0 0)
(0.00863963 0 0)
(0.00893548 0 0)
(0.00917864 0 0)
(0.00927666 0 0)
(0.00947631 0 0)
(0.00971543 0 0)
(0.00993166 0 0)
(0.0101554 0 0)
(0.0102501 0 0)
(0.0102666 0 0)
(0.010273 0 0)
(0.010303 0 0)
(0.0102798 0 0)
(0.0103313 0 0)
(0.0103743 0 0)
(0.0104924 0 0)
(0.0105966 0 0)
(0.0106966 0 0)
(0.0107628 0 0)
(0.0108466 0 0)
(0.0108433 0 0)
(0.0108824 0 0)
(0.0109478 0 0)
(0.0110554 0 0)
(0.0111547 0 0)
(0.0112132 0 0)
(0.0112498 0 0)
(0.011314 0 0)
(0.0113348 0 0)
(0.011391 0 0)
(0.0114657 0 0)
(0.0115095 0 0)
(0.011582 0 0)
(0.0116636 0 0)
(0.0117135 0 0)
(0.011716 0 0)
(0.011746 0 0)
(0.0117904 0 0)
(0.0118331 0 0)
(0.01188 0 0)
(0.0119428 0 0)
(0.0119769 0 0)
(0.0120114 0 0)
(0.0120452 0 0)
(0.0120818 0 0)
(0.0121089 0 0)
(0.0121323 0 0)
(0.012161 0 0)
(0.012201 0 0)
(0.0122386 0 0)
(0.0122433 0 0)
(0.0122654 0 0)
(0.0122447 0 0)
(0.0122727 0 0)
(0.0122907 0 0)
(0.012323 0 0)
(0.0123368 0 0)
(0.0123621 0 0)
(0.0123488 0 0)
(0.0123565 0 0)
(0.0124011 0 0)
(0.0124203 0 0)
(0.0124082 0 0)
(0.0124153 0 0)
(0.0124618 0 0)
(0.012553 0 0)
(0.012645 0 0)
(0.0128152 0 0)
(0.0130678 0 0)
(0.0136439 0 0)
(0.0112531 0 0)
(0.0103477 0 0)
(0.00992408 0 0)
(0.00967538 0 0)
(0.00952811 0 0)
(0.0094586 0 0)
(0.00944638 0 0)
(0.00946825 0 0)
(0.00950094 0 0)
(0.00953369 0 0)
(0.00957171 0 0)
(0.00961793 0 0)
(0.00965394 0 0)
(0.00968756 0 0)
(0.00971886 0 0)
(0.00974601 0 0)
(0.009768 0 0)
(0.00979828 0 0)
(0.00982645 0 0)
)
;

boundaryField
{
    inlet
    {
        type            fixedValue;
        value           uniform (0.005 0 0);
    }
    outlet
    {
        type            zeroGradient;
    }
    yzfaces
    {
        type            empty;
    }
}


// ************************************************************************* //
