/*--------------------------------*- C++ -*----------------------------------*\
| =========                 |                                                 |
| \\      /  F ield         | foam-extend: Open Source CFD                    |
|  \\    /   O peration     | Version:     5.0                                |
|   \\  /    A nd           | Web:         http://www.foam-extend.org         |
|    \\/     M anipulation  |                                                 |
\*---------------------------------------------------------------------------*/
FoamFile
{
    version     2.0;
    format      ascii;
    class       volVectorField;
    location    "9";
    object      U.water;
}
// * * * * * * * * * * * * * * * * * * * * * * * * * * * * * * * * * * * * * //

dimensions      [0 1 -1 0 0 0 0];

internalField   nonuniform List<vector> 
100
(
(4.63732e-05 0 0)
(0.000104559 0 0)
(0.000135255 0 0)
(0.000136918 0 0)
(0.000170279 0 0)
(0.000230257 0 0)
(0.000257513 0 0)
(0.000266752 0 0)
(0.000266844 0 0)
(0.000278424 0 0)
(0.000319447 0 0)
(0.000382781 0 0)
(0.000431868 0 0)
(0.000484957 0 0)
(0.00052795 0 0)
(0.000563883 0 0)
(0.000613046 0 0)
(0.000662413 0 0)
(0.000710878 0 0)
(0.00075075 0 0)
(0.000769822 0 0)
(0.000777968 0 0)
(0.000782866 0 0)
(0.000792148 0 0)
(0.000803914 0 0)
(0.000825712 0 0)
(0.000857347 0 0)
(0.000895413 0 0)
(0.000931503 0 0)
(0.000965942 0 0)
(0.000992009 0 0)
(0.00101144 0 0)
(0.00102604 0 0)
(0.00104971 0 0)
(0.00107456 0 0)
(0.00110257 0 0)
(0.0011285 0 0)
(0.00114963 0 0)
(0.00117413 0 0)
(0.00119513 0 0)
(0.00120886 0 0)
(0.00123242 0 0)
(0.00126012 0 0)
(0.00128339 0 0)
(0.00131097 0 0)
(0.00133864 0 0)
(0.00135788 0 0)
(0.00137631 0 0)
(0.00139969 0 0)
(0.00142399 0 0)
(0.0014471 0 0)
(0.00147451 0 0)
(0.00150121 0 0)
(0.00152548 0 0)
(0.00155073 0 0)
(0.00157811 0 0)
(0.00160771 0 0)
(0.00163112 0 0)
(0.00165391 0 0)
(0.00167593 0 0)
(0.00170276 0 0)
(0.00172906 0 0)
(0.0017482 0 0)
(0.00176997 0 0)
(0.00179371 0 0)
(0.0018202 0 0)
(0.00184456 0 0)
(0.00187096 0 0)
(0.00189772 0 0)
(0.00192286 0 0)
(0.00194107 0 0)
(0.00196676 0 0)
(0.00199439 0 0)
(0.00201305 0 0)
(0.00203864 0 0)
(0.00207959 0 0)
(0.0021394 0 0)
(0.00223207 0 0)
(0.00237564 0 0)
(0.00262289 0 0)
(0.00312911 0 0)
(0.00368456 0 0)
(0.00387799 0 0)
(0.00396703 0 0)
(0.00401678 0 0)
(0.00404324 0 0)
(0.00405329 0 0)
(0.00405566 0 0)
(0.00405244 0 0)
(0.00404319 0 0)
(0.00403143 0 0)
(0.00402081 0 0)
(0.00401585 0 0)
(0.00401071 0 0)
(0.00400474 0 0)
(0.0039991 0 0)
(0.00399134 0 0)
(0.00398267 0 0)
(0.00397477 0 0)
(0.00396564 0 0)
)
;

boundaryField
{
    inlet
    {
        type            fixedValue;
        value           uniform (0 0 0);
    }
    outlet
    {
        type            zeroGradient;
    }
    yzfaces
    {
        type            empty;
    }
}


// ************************************************************************* //
