/*--------------------------------*- C++ -*----------------------------------*\
| =========                 |                                                 |
| \\      /  F ield         | foam-extend: Open Source CFD                    |
|  \\    /   O peration     | Version:     5.0                                |
|   \\  /    A nd           | Web:         http://www.foam-extend.org         |
|    \\/     M anipulation  |                                                 |
\*---------------------------------------------------------------------------*/
FoamFile
{
    version     2.0;
    format      ascii;
    class       volScalarField;
    location    "1";
    object      CO2.water;
}
// * * * * * * * * * * * * * * * * * * * * * * * * * * * * * * * * * * * * * //

dimensions      [0 0 0 0 0 0 0];

internalField   nonuniform List<scalar> 
100
(
0.00228145
0.00277732
0.00308268
0.00331763
0.00351772
0.00368703
0.00387082
0.00408898
0.00441522
0.00510573
0.000675837
0.000208633
6.15879e-05
1.82817e-05
5.57822e-06
1.74555e-06
5.50043e-07
1.71365e-07
5.25012e-08
1.7292e-08
6.43418e-09
2.56758e-09
1.05183e-09
4.32411e-10
1.76725e-10
7.17991e-11
2.89929e-11
1.16479e-11
4.65096e-12
1.84955e-12
7.32967e-13
2.89374e-13
1.13903e-13
4.77858e-14
2.32761e-14
1.3173e-14
8.08938e-15
4.9504e-15
2.97787e-15
1.6749e-15
8.91098e-16
4.59049e-16
2.32888e-16
1.17205e-16
5.85846e-17
2.90936e-17
1.43035e-17
6.9526e-18
3.33629e-18
1.57976e-18
7.38741e-19
3.4072e-19
1.55033e-19
6.97356e-20
3.09738e-20
1.35689e-20
5.87781e-21
2.51911e-21
1.06885e-21
4.49554e-22
1.87698e-22
7.8398e-23
3.30404e-23
1.40066e-23
5.89967e-24
2.4591e-24
1.01463e-24
4.14667e-25
1.6823e-25
6.77201e-26
2.71181e-26
1.08037e-26
4.28534e-27
1.69295e-27
6.67165e-28
2.61975e-28
1.02638e-28
4.00957e-29
1.56167e-29
6.07057e-30
2.35457e-30
9.11496e-31
3.52503e-31
1.35965e-31
5.23324e-32
2.01458e-32
7.75e-33
2.97801e-33
1.1433e-33
4.37885e-34
1.67606e-34
6.39991e-35
2.44252e-35
9.30983e-36
3.54715e-36
1.35108e-36
5.14426e-37
1.95752e-37
7.44742e-38
3.14447e-38
)
;

boundaryField
{
    inlet
    {
        type            fixedValue;
        value           uniform 0;
    }
    outlet
    {
        type            zeroGradient;
    }
    yzfaces
    {
        type            empty;
    }
}


// ************************************************************************* //
