/*--------------------------------*- C++ -*----------------------------------*\
| =========                 |                                                 |
| \\      /  F ield         | foam-extend: Open Source CFD                    |
|  \\    /   O peration     | Version:     5.0                                |
|   \\  /    A nd           | Web:         http://www.foam-extend.org         |
|    \\/     M anipulation  |                                                 |
\*---------------------------------------------------------------------------*/
FoamFile
{
    version     2.0;
    format      ascii;
    class       volScalarField;
    location    "1";
    object      H2O.gas;
}
// * * * * * * * * * * * * * * * * * * * * * * * * * * * * * * * * * * * * * //

dimensions      [0 0 0 0 0 0 0];

internalField   nonuniform List<scalar> 
100
(
0.000220177
0.000151734
0.00013768
0.000127808
0.000124755
0.000115893
0.000102296
8.58209e-05
6.14038e-05
9.03705e-06
0.00326138
0.00536949
0.00763149
0.0099364
0.0121359
0.0140676
0.0155487
0.016429
0.0166067
0.0161109
0.0151102
0.0138295
0.0126025
0.0116197
0.010946
0.0105339
0.0102883
0.0101635
0.0100891
0.0100498
0.0100178
0.0100114
0.00999998
0.0100016
0.0100006
0.0100032
0.0100022
0.0100063
0.0100049
0.0100062
0.0100012
0.0100036
0.0100061
0.0100047
0.0100014
0.0100034
0.00999876
0.0100029
0.00999574
0.00999644
0.0100033
0.0100011
0.00999617
0.00999876
0.00999894
0.00999849
0.00999743
0.0100024
0.0100012
0.0100061
0.0100069
0.00999948
0.0100007
0.00999503
0.00999921
0.00999685
0.00999366
0.00999268
0.00999416
0.0099935
0.00999526
0.0099968
0.00998741
0.00998977
0.00998986
0.00999126
0.00999349
0.00999819
0.0100035
0.0100048
0.0100023
0.0100015
0.00999829
0.010003
0.010003
0.00999852
0.0099954
0.0100008
0.00999557
0.0100003
0.0099995
0.00999952
0.0100012
0.0100046
0.0100031
0.010008
0.0100021
0.0100074
0.0100109
0.0100021
)
;

boundaryField
{
    inlet
    {
        type            fixedValue;
        value           uniform 0;
    }
    outlet
    {
        type            zeroGradient;
    }
    yzfaces
    {
        type            empty;
    }
}


// ************************************************************************* //
