/*--------------------------------*- C++ -*----------------------------------*\
| =========                 |                                                 |
| \\      /  F ield         | foam-extend: Open Source CFD                    |
|  \\    /   O peration     | Version:     5.0                                |
|   \\  /    A nd           | Web:         http://www.foam-extend.org         |
|    \\/     M anipulation  |                                                 |
\*---------------------------------------------------------------------------*/
FoamFile
{
    version     2.0;
    format      ascii;
    class       surfaceScalarField;
    location    "1";
    object      phi;
}
// * * * * * * * * * * * * * * * * * * * * * * * * * * * * * * * * * * * * * //

dimensions      [0 3 -1 0 0 0 0];

internalField   nonuniform List<scalar> 
99
(
1.22556e-06
1.22175e-06
1.22082e-06
1.22163e-06
1.22304e-06
1.2244e-06
1.22515e-06
1.22102e-06
1.22008e-06
1.21943e-06
1.22193e-06
1.22361e-06
1.22274e-06
1.22322e-06
1.22382e-06
1.22351e-06
1.22256e-06
1.22248e-06
1.22158e-06
1.22332e-06
1.22175e-06
1.22027e-06
1.22012e-06
1.21852e-06
1.21933e-06
1.21969e-06
1.22129e-06
1.22039e-06
1.22001e-06
1.21965e-06
1.21909e-06
1.21932e-06
1.21855e-06
1.21756e-06
1.21761e-06
1.21632e-06
1.21448e-06
1.21421e-06
1.213e-06
1.21368e-06
1.21242e-06
1.21338e-06
1.21365e-06
1.21328e-06
1.21283e-06
1.21214e-06
1.21198e-06
1.21253e-06
1.21157e-06
1.21428e-06
1.21307e-06
1.21385e-06
1.21417e-06
1.21398e-06
1.2111e-06
1.2106e-06
1.20838e-06
1.20732e-06
1.20558e-06
1.20416e-06
1.20263e-06
1.20285e-06
1.20481e-06
1.20371e-06
1.2033e-06
1.20261e-06
1.2021e-06
1.20309e-06
1.20333e-06
1.20403e-06
1.2045e-06
1.2046e-06
1.20302e-06
1.20399e-06
1.20428e-06
1.20491e-06
1.20662e-06
1.2072e-06
1.20792e-06
1.20679e-06
1.2066e-06
1.20595e-06
1.2051e-06
1.20585e-06
1.20561e-06
1.20438e-06
1.20408e-06
1.20358e-06
1.20403e-06
1.20332e-06
1.20349e-06
1.20533e-06
1.20622e-06
1.20631e-06
1.20618e-06
1.20572e-06
1.20512e-06
1.20465e-06
1.20382e-06
)
;

boundaryField
{
    inlet
    {
        type            calculated;
        value           uniform -1.225e-06;
    }
    outlet
    {
        type            calculated;
        value           uniform 1.20552e-06;
    }
    yzfaces
    {
        type            empty;
    }
}


// ************************************************************************* //
