/*--------------------------------*- C++ -*----------------------------------*\
| =========                 |                                                 |
| \\      /  F ield         | foam-extend: Open Source CFD                    |
|  \\    /   O peration     | Version:     5.0                                |
|   \\  /    A nd           | Web:         http://www.foam-extend.org         |
|    \\/     M anipulation  |                                                 |
\*---------------------------------------------------------------------------*/
FoamFile
{
    version     2.0;
    format      ascii;
    class       surfaceScalarField;
    location    "1";
    object      phi.water;
}
// * * * * * * * * * * * * * * * * * * * * * * * * * * * * * * * * * * * * * //

dimensions      [0 3 -1 0 0 0 0];

internalField   nonuniform List<scalar> 
99
(
4.11412e-07
7.36595e-07
1.04417e-06
1.35557e-06
1.69299e-06
2.03715e-06
2.48895e-06
3.12075e-06
4.40256e-06
4.87719e-06
4.96431e-06
4.92213e-06
4.87352e-06
4.87792e-06
4.93189e-06
5.02541e-06
5.15449e-06
5.31455e-06
5.48522e-06
5.66305e-06
5.80685e-06
5.92051e-06
6.00327e-06
6.04827e-06
6.08035e-06
6.09842e-06
6.11466e-06
6.11358e-06
6.11532e-06
6.11859e-06
6.11908e-06
6.12155e-06
6.11811e-06
6.11194e-06
6.11145e-06
6.10452e-06
6.09479e-06
6.09218e-06
6.0854e-06
6.08978e-06
6.08408e-06
6.08718e-06
6.0877e-06
6.08624e-06
6.0846e-06
6.08255e-06
6.08195e-06
6.08524e-06
6.08198e-06
6.09334e-06
6.08564e-06
6.09074e-06
6.09207e-06
6.08952e-06
6.07537e-06
6.07399e-06
6.06226e-06
6.05641e-06
6.04678e-06
6.03804e-06
6.03288e-06
6.03642e-06
6.04779e-06
6.04237e-06
6.03994e-06
6.03825e-06
6.03655e-06
6.04136e-06
6.04346e-06
6.04716e-06
6.04794e-06
6.05067e-06
6.04476e-06
6.04915e-06
6.05045e-06
6.05246e-06
6.05896e-06
6.05914e-06
6.06034e-06
6.0548e-06
6.0545e-06
6.05221e-06
6.04757e-06
6.05e-06
6.05001e-06
6.04623e-06
6.04442e-06
6.04168e-06
6.0438e-06
6.03866e-06
6.03895e-06
6.04744e-06
6.05081e-06
6.05086e-06
6.04945e-06
6.04774e-06
6.04505e-06
6.04061e-06
6.03803e-06
)
;

boundaryField
{
    inlet
    {
        type            fixedValue;
        value           uniform 0;
    }
    outlet
    {
        type            calculated;
        value           uniform 6.04899e-06;
    }
    yzfaces
    {
        type            empty;
    }
}


// ************************************************************************* //
