/*--------------------------------*- C++ -*----------------------------------*\
| =========                 |                                                 |
| \\      /  F ield         | foam-extend: Open Source CFD                    |
|  \\    /   O peration     | Version:     5.0                                |
|   \\  /    A nd           | Web:         http://www.foam-extend.org         |
|    \\/     M anipulation  |                                                 |
\*---------------------------------------------------------------------------*/
FoamFile
{
    version     2.0;
    format      ascii;
    class       volScalarField;
    location    "1";
    object      S.gas;
}
// * * * * * * * * * * * * * * * * * * * * * * * * * * * * * * * * * * * * * //

dimensions      [0 0 0 0 0 0 0];

internalField   nonuniform List<scalar> 
100
(
0.56599
0.470139
0.411452
0.367182
0.330045
0.298283
0.263437
0.221236
0.159352
0.138109
0.134774
0.136937
0.138767
0.138332
0.135441
0.130241
0.122931
0.113943
0.103644
0.0926182
0.0817759
0.0720132
0.0641489
0.0585077
0.0548644
0.0526694
0.0514398
0.0507674
0.0504098
0.0502133
0.0501123
0.0500654
0.050037
0.0500212
0.0500185
0.0500161
0.0500209
0.0500226
0.050014
0.0500104
0.0500109
0.0500069
0.0500073
0.0499982
0.0499895
0.05
0.0500014
0.0500021
0.0499948
0.0499957
0.0499954
0.0499908
0.0499801
0.0499724
0.0499672
0.0499753
0.0499787
0.0499854
0.0499902
0.0499893
0.0499915
0.0499981
0.0500013
0.0500014
0.0499967
0.0500029
0.0499996
0.0499962
0.0499989
0.0500147
0.0500097
0.0500045
0.0500052
0.0500039
0.050009
0.0500099
0.0500069
0.0500114
0.0500111
0.0500056
0.0500054
0.0500016
0.0499995
0.0500024
0.0500029
0.0499997
0.0500042
0.0500051
0.050002
0.0500007
0.0499952
0.0499874
0.0499903
0.0499942
0.0499949
0.049998
0.0500008
0.0500006
0.050009
0.0500024
)
;

boundaryField
{
    inlet
    {
        type            calculated;
        value           uniform 1;
    }
    outlet
    {
        type            calculated;
        value           uniform 0.0500024;
    }
    yzfaces
    {
        type            empty;
    }
}


// ************************************************************************* //
