/*--------------------------------*- C++ -*----------------------------------*\
| =========                 |                                                 |
| \\      /  F ield         | foam-extend: Open Source CFD                    |
|  \\    /   O peration     | Version:     5.0                                |
|   \\  /    A nd           | Web:         http://www.foam-extend.org         |
|    \\/     M anipulation  |                                                 |
\*---------------------------------------------------------------------------*/
FoamFile
{
    version     2.0;
    format      ascii;
    class       volVectorField;
    location    "1";
    object      U.gas;
}
// * * * * * * * * * * * * * * * * * * * * * * * * * * * * * * * * * * * * * //

dimensions      [0 1 -1 0 0 0 0];

internalField   nonuniform List<vector> 
100
(
(0.00869333 0 0)
(0.0100949 0 0)
(0.0110766 0 0)
(0.0118877 0 0)
(0.0125907 0 0)
(0.0131542 0 0)
(0.0137895 0 0)
(0.0144362 0 0)
(0.0152312 0 0)
(0.0125935 0 0)
(0.0112845 0 0)
(0.0110486 0 0)
(0.0111658 0 0)
(0.01129 0 0)
(0.0113147 0 0)
(0.0112105 0 0)
(0.0109624 0 0)
(0.0105616 0 0)
(0.010008 0 0)
(0.00930378 0 0)
(0.00846566 0 0)
(0.00755603 0 0)
(0.00668507 0 0)
(0.00595483 0 0)
(0.00542348 0 0)
(0.00508283 0 0)
(0.00488066 0 0)
(0.00476782 0 0)
(0.00470224 0 0)
(0.00466655 0 0)
(0.00464701 0 0)
(0.00463695 0 0)
(0.00463131 0 0)
(0.00462605 0 0)
(0.00462271 0 0)
(0.00462068 0 0)
(0.00461467 0 0)
(0.00461032 0 0)
(0.0046077 0 0)
(0.00460658 0 0)
(0.0046051 0 0)
(0.00460419 0 0)
(0.00460585 0 0)
(0.00460534 0 0)
(0.00460301 0 0)
(0.00460032 0 0)
(0.00460008 0 0)
(0.00460083 0 0)
(0.00460038 0 0)
(0.00460336 0 0)
(0.00460548 0 0)
(0.00460436 0 0)
(0.00460605 0 0)
(0.00460504 0 0)
(0.00459875 0 0)
(0.00459173 0 0)
(0.00458743 0 0)
(0.00458194 0 0)
(0.00457726 0 0)
(0.00457144 0 0)
(0.00456583 0 0)
(0.00456376 0 0)
(0.00456847 0 0)
(0.00457077 0 0)
(0.00456768 0 0)
(0.00456507 0 0)
(0.00456379 0 0)
(0.00456426 0 0)
(0.00456633 0 0)
(0.00456836 0 0)
(0.00457166 0 0)
(0.00457177 0 0)
(0.00456845 0 0)
(0.00456764 0 0)
(0.0045702 0 0)
(0.00457205 0 0)
(0.00457658 0 0)
(0.004581 0 0)
(0.0045836 0 0)
(0.00458261 0 0)
(0.00457979 0 0)
(0.00457826 0 0)
(0.00457456 0 0)
(0.0045746 0 0)
(0.00457593 0 0)
(0.00457328 0 0)
(0.00456995 0 0)
(0.00456824 0 0)
(0.00456835 0 0)
(0.00456762 0 0)
(0.00456657 0 0)
(0.00457023 0 0)
(0.00457449 0 0)
(0.00457678 0 0)
(0.00457735 0 0)
(0.00457617 0 0)
(0.00457447 0 0)
(0.00457239 0 0)
(0.00457015 0 0)
(0.00457167 0 0)
)
;

boundaryField
{
    inlet
    {
        type            fixedValue;
        value           uniform (0.005 0 0);
    }
    outlet
    {
        type            zeroGradient;
    }
    yzfaces
    {
        type            empty;
    }
}


// ************************************************************************* //
