/*--------------------------------*- C++ -*----------------------------------*\
| =========                 |                                                 |
| \\      /  F ield         | foam-extend: Open Source CFD                    |
|  \\    /   O peration     | Version:     5.0                                |
|   \\  /    A nd           | Web:         http://www.foam-extend.org         |
|    \\/     M anipulation  |                                                 |
\*---------------------------------------------------------------------------*/
FoamFile
{
    version     2.0;
    format      ascii;
    class       volVectorField;
    location    "1";
    object      U.water;
}
// * * * * * * * * * * * * * * * * * * * * * * * * * * * * * * * * * * * * * //

dimensions      [0 1 -1 0 0 0 0];

internalField   nonuniform List<vector> 
100
(
(0.000186174 0 0)
(0.000468974 0 0)
(0.000726077 0 0)
(0.000979149 0 0)
(0.00124429 0 0)
(0.0015264 0 0)
(0.00185512 0 0)
(0.00230926 0 0)
(0.00303898 0 0)
(0.0037584 0 0)
(0.0040007 0 0)
(0.00402976 0 0)
(0.00399787 0 0)
(0.00398063 0 0)
(0.00400374 0 0)
(0.00406373 0 0)
(0.00415515 0 0)
(0.0042734 0 0)
(0.00440742 0 0)
(0.00454924 0 0)
(0.0046804 0 0)
(0.00478411 0 0)
(0.00486354 0 0)
(0.00491603 0 0)
(0.00494918 0 0)
(0.00497174 0 0)
(0.00498707 0 0)
(0.00499454 0 0)
(0.00499519 0 0)
(0.00499542 0 0)
(0.00499443 0 0)
(0.00499423 0 0)
(0.00499337 0 0)
(0.00498986 0 0)
(0.00498802 0 0)
(0.00498545 0 0)
(0.00497904 0 0)
(0.00497473 0 0)
(0.00497168 0 0)
(0.00497062 0 0)
(0.00496946 0 0)
(0.00496885 0 0)
(0.00497139 0 0)
(0.0049712 0 0)
(0.00496956 0 0)
(0.00496727 0 0)
(0.00496546 0 0)
(0.00496624 0 0)
(0.00496538 0 0)
(0.00496898 0 0)
(0.00497211 0 0)
(0.00497124 0 0)
(0.00497351 0 0)
(0.00497385 0 0)
(0.00496757 0 0)
(0.00496067 0 0)
(0.00495507 0 0)
(0.00494832 0 0)
(0.00494255 0 0)
(0.00493607 0 0)
(0.00493002 0 0)
(0.00492732 0 0)
(0.00493176 0 0)
(0.0049335 0 0)
(0.0049304 0 0)
(0.00492817 0 0)
(0.00492567 0 0)
(0.00492667 0 0)
(0.00492921 0 0)
(0.00493113 0 0)
(0.00493346 0 0)
(0.00493468 0 0)
(0.00493169 0 0)
(0.00493041 0 0)
(0.00493299 0 0)
(0.00493488 0 0)
(0.00493965 0 0)
(0.00494434 0 0)
(0.004947 0 0)
(0.00494617 0 0)
(0.00494348 0 0)
(0.00494175 0 0)
(0.00493873 0 0)
(0.0049385 0 0)
(0.00493951 0 0)
(0.00493651 0 0)
(0.00493342 0 0)
(0.00493178 0 0)
(0.00493165 0 0)
(0.00493112 0 0)
(0.00493002 0 0)
(0.00493416 0 0)
(0.0049398 0 0)
(0.00494177 0 0)
(0.00494165 0 0)
(0.00494045 0 0)
(0.00493826 0 0)
(0.00493607 0 0)
(0.00493341 0 0)
(0.0049352 0 0)
)
;

boundaryField
{
    inlet
    {
        type            fixedValue;
        value           uniform (0 0 0);
    }
    outlet
    {
        type            zeroGradient;
    }
    yzfaces
    {
        type            empty;
    }
}


// ************************************************************************* //
