/*--------------------------------*- C++ -*----------------------------------*\
| =========                 |                                                 |
| \\      /  F ield         | foam-extend: Open Source CFD                    |
|  \\    /   O peration     | Version:     5.0                                |
|   \\  /    A nd           | Web:         http://www.foam-extend.org         |
|    \\/     M anipulation  |                                                 |
\*---------------------------------------------------------------------------*/
FoamFile
{
    version     2.0;
    format      ascii;
    class       volScalarField;
    location    "0.71677";
    object      alpha.gas;
}
// * * * * * * * * * * * * * * * * * * * * * * * * * * * * * * * * * * * * * //

dimensions      [0 0 0 0 0 0 0];

internalField   nonuniform List<scalar> 
100
(
0.102535
0.0842953
0.0734634
0.0636205
0.0560935
0.0506466
0.0292192
0.0336444
0.0348768
0.0342721
0.0326421
0.0304129
0.0278187
0.0250143
0.0221384
0.0192999
0.0167014
0.0145006
0.0128236
0.0116646
0.0109343
0.0105078
0.0102689
0.0101391
0.0100719
0.0100361
0.0100187
0.0100102
0.010005
0.0100052
0.0100027
0.0100016
0.0100023
0.0100029
0.0100013
0.00999945
0.00999765
0.00999782
0.00999604
0.00999771
0.00999911
0.0100003
0.00999931
0.00999755
0.00999756
0.00999781
0.00999852
0.00999882
0.0100005
0.0100013
0.00999888
0.0100007
0.00999895
0.00999868
0.00999971
0.0100005
0.00999964
0.00999933
0.0100002
0.0100013
0.0100017
0.0100005
0.0100007
0.0100021
0.0100001
0.0100001
0.0100007
0.0100001
0.0100004
0.0100003
0.0100009
0.0100003
0.00999994
0.00999993
0.00999912
0.00999975
0.00999928
0.00999967
0.0100018
0.0100022
0.0100021
0.0100018
0.0100033
0.010004
0.0100034
0.010001
0.0100001
0.0100005
0.00999856
0.00999858
0.00999816
0.00999878
0.0099995
0.00999748
0.00999724
0.00999869
0.00999781
0.0099966
0.00999672
0.0100011
)
;

boundaryField
{
    inlet
    {
        type            fixedValue;
        value           uniform 0.2;
    }
    outlet
    {
        type            zeroGradient;
    }
    yzfaces
    {
        type            empty;
    }
}


// ************************************************************************* //
