/*--------------------------------*- C++ -*----------------------------------*\
| =========                 |                                                 |
| \\      /  F ield         | foam-extend: Open Source CFD                    |
|  \\    /   O peration     | Version:     5.0                                |
|   \\  /    A nd           | Web:         http://www.foam-extend.org         |
|    \\/     M anipulation  |                                                 |
\*---------------------------------------------------------------------------*/
FoamFile
{
    version     2.0;
    format      ascii;
    class       volScalarField;
    location    "0.71677";
    object      Cl.water;
}
// * * * * * * * * * * * * * * * * * * * * * * * * * * * * * * * * * * * * * //

dimensions      [0 0 0 0 0 0 0];

internalField   nonuniform List<scalar> 
100
(
0
0.00799327
0.0125767
0.00458492
0.0101261
0.0148365
0.00185836
0.0156663
0.0189996
0.0198503
0.0202102
0.0205168
0.0208119
0.0211696
0.0215394
0.021888
0.0221802
0.0224772
0.0226675
0.0227908
0.0228816
0.0229307
0.02295
0.0229706
0.0229795
0.0229815
0.0229784
0.022969
0.0229882
0.0229668
0.0229898
0.0229887
0.0229921
0.02299
0.0230042
0.0229996
0.0230012
0.02299
0.0230089
0.0229861
0.0229978
0.0229823
0.0230025
0.0229804
0.0229944
0.0229971
0.022975
0.022979
0.0229921
0.0230001
0.0230053
0.0230091
0.0230086
0.0230014
0.0230002
0.02299
0.0230034
0.0229871
0.0229893
0.0229883
0.0229968
0.0229971
0.0229914
0.0229909
0.0229696
0.022995
0.0229883
0.0229847
0.0230127
0.023012
0.0230151
0.0230108
0.0229925
0.0230019
0.0230077
0.0230011
0.0230231
0.0230098
0.0230194
0.023008
0.0229935
0.0229982
0.0229816
0.0230023
0.0230056
0.0230088
0.0230047
0.0229976
0.0230119
0.0229887
0.0229901
0.0229878
0.0229897
0.0229904
0.0229848
0.0230154
0.0230056
0.023025
0.0230165
0.0229968
)
;

boundaryField
{
    inlet
    {
        type            fixedValue;
        value           uniform 0;
    }
    outlet
    {
        type            zeroGradient;
    }
    yzfaces
    {
        type            empty;
    }
}


// ************************************************************************* //
