/*--------------------------------*- C++ -*----------------------------------*\
| =========                 |                                                 |
| \\      /  F ield         | foam-extend: Open Source CFD                    |
|  \\    /   O peration     | Version:     5.0                                |
|   \\  /    A nd           | Web:         http://www.foam-extend.org         |
|    \\/     M anipulation  |                                                 |
\*---------------------------------------------------------------------------*/
FoamFile
{
    version     2.0;
    format      ascii;
    class       volScalarField;
    location    "0.71677";
    object      H2O.gas;
}
// * * * * * * * * * * * * * * * * * * * * * * * * * * * * * * * * * * * * * //

dimensions      [0 0 0 0 0 0 0];

internalField   nonuniform List<scalar> 
100
(
1.53982e-07
3.22974e-05
0.000147305
0.000255836
0.00055961
0.00122755
0.000639724
0.00311029
0.00542063
0.00776661
0.0100765
0.012205
0.0139344
0.0151302
0.0156336
0.0154132
0.0146043
0.0135151
0.0124111
0.0115045
0.0108804
0.0104893
0.0102615
0.0101363
0.0100712
0.0100338
0.0100125
0.00999679
0.0100016
0.00999332
0.0100002
0.0100001
0.0100009
0.00999834
0.010004
0.0099994
0.00999747
0.00999414
0.0100018
0.0099938
0.00999717
0.00998961
0.00999874
0.00998837
0.00999585
0.00999432
0.0099862
0.00998644
0.00999137
0.00999652
0.00999646
0.00999857
0.0100009
0.0099985
0.00999814
0.0099963
0.0100019
0.00999336
0.00999735
0.00999716
0.0100027
0.0100016
0.0100005
0.010001
0.00999032
0.0100003
0.00999857
0.00999653
0.0100075
0.0100055
0.0100052
0.0100035
0.00999829
0.0100027
0.0100049
0.0100014
0.0100116
0.0100057
0.0100085
0.0100013
0.00999744
0.00999772
0.00999114
0.00999912
0.0100001
0.0100019
0.00999911
0.00999786
0.0100027
0.00999403
0.00999375
0.00999804
0.00999671
0.00999549
0.00999129
0.0100057
0.00999966
0.0100042
0.00999991
0.00999577
)
;

boundaryField
{
    inlet
    {
        type            fixedValue;
        value           uniform 0;
    }
    outlet
    {
        type            zeroGradient;
    }
    yzfaces
    {
        type            empty;
    }
}


// ************************************************************************* //
