/*--------------------------------*- C++ -*----------------------------------*\
| =========                 |                                                 |
| \\      /  F ield         | foam-extend: Open Source CFD                    |
|  \\    /   O peration     | Version:     5.0                                |
|   \\  /    A nd           | Web:         http://www.foam-extend.org         |
|    \\/     M anipulation  |                                                 |
\*---------------------------------------------------------------------------*/
FoamFile
{
    version     2.0;
    format      ascii;
    class       volScalarField;
    location    "0.71677";
    object      Na.water;
}
// * * * * * * * * * * * * * * * * * * * * * * * * * * * * * * * * * * * * * //

dimensions      [0 0 0 0 0 0 0];

internalField   nonuniform List<scalar> 
100
(
0
0.00799549
0.0125789
0.00458475
0.0101314
0.0148434
0.00185895
0.0156616
0.0189959
0.0198485
0.0202044
0.0205113
0.0208154
0.0211721
0.0215358
0.0218861
0.0221762
0.0224664
0.0226619
0.0227845
0.022884
0.0229354
0.0229636
0.0229778
0.0229932
0.0229904
0.0229845
0.0229624
0.0229905
0.0229758
0.0229912
0.0229928
0.0229988
0.0229901
0.023003
0.0229953
0.0229907
0.022986
0.0230068
0.0229762
0.0229852
0.0229665
0.0229942
0.0229745
0.0229824
0.0229804
0.0229625
0.0229661
0.0229861
0.0229992
0.0229981
0.0229963
0.0230034
0.0229991
0.0229959
0.0229895
0.0229973
0.0229825
0.0229979
0.0229871
0.0229963
0.0229924
0.0229944
0.0229972
0.0229756
0.022997
0.0229888
0.0229845
0.0230076
0.0230057
0.0230079
0.0230089
0.0229947
0.023002
0.0230122
0.0230111
0.023034
0.0230205
0.0230248
0.0230197
0.0230139
0.023009
0.0229839
0.0229907
0.022996
0.0230041
0.0229962
0.0229899
0.0230048
0.0229835
0.0229817
0.022991
0.0229907
0.0229933
0.022986
0.0230214
0.0230121
0.0230241
0.0230137
0.0229989
)
;

boundaryField
{
    inlet
    {
        type            fixedValue;
        value           uniform 0;
    }
    outlet
    {
        type            zeroGradient;
    }
    yzfaces
    {
        type            empty;
    }
}


// ************************************************************************* //
