/*--------------------------------*- C++ -*----------------------------------*\
| =========                 |                                                 |
| \\      /  F ield         | foam-extend: Open Source CFD                    |
|  \\    /   O peration     | Version:     5.0                                |
|   \\  /    A nd           | Web:         http://www.foam-extend.org         |
|    \\/     M anipulation  |                                                 |
\*---------------------------------------------------------------------------*/
FoamFile
{
    version     2.0;
    format      ascii;
    class       surfaceScalarField;
    location    "0.71677";
    object      phi;
}
// * * * * * * * * * * * * * * * * * * * * * * * * * * * * * * * * * * * * * //

dimensions      [0 3 -1 0 0 0 0];

internalField   nonuniform List<scalar> 
99
(
1.22608e-06
1.22739e-06
1.2355e-06
1.23208e-06
1.23363e-06
1.23046e-06
1.23479e-06
1.23479e-06
1.23537e-06
1.23645e-06
1.23545e-06
1.23575e-06
1.23701e-06
1.23883e-06
1.23739e-06
1.23785e-06
1.23883e-06
1.23939e-06
1.23912e-06
1.2397e-06
1.24149e-06
1.24161e-06
1.24256e-06
1.24304e-06
1.24507e-06
1.2449e-06
1.24429e-06
1.24575e-06
1.24565e-06
1.24666e-06
1.24519e-06
1.24748e-06
1.2464e-06
1.24854e-06
1.24814e-06
1.24781e-06
1.24822e-06
1.24869e-06
1.24777e-06
1.24811e-06
1.2455e-06
1.24683e-06
1.24747e-06
1.24862e-06
1.24964e-06
1.24898e-06
1.24825e-06
1.24876e-06
1.24924e-06
1.24918e-06
1.24812e-06
1.2477e-06
1.24957e-06
1.24903e-06
1.24821e-06
1.24725e-06
1.24878e-06
1.24794e-06
1.2475e-06
1.25054e-06
1.24863e-06
1.24889e-06
1.24918e-06
1.24693e-06
1.2489e-06
1.24701e-06
1.24852e-06
1.25126e-06
1.25107e-06
1.24939e-06
1.24992e-06
1.25279e-06
1.25182e-06
1.25249e-06
1.25171e-06
1.25155e-06
1.25108e-06
1.25165e-06
1.25045e-06
1.25154e-06
1.25007e-06
1.24951e-06
1.24972e-06
1.251e-06
1.24858e-06
1.2489e-06
1.2499e-06
1.24935e-06
1.24673e-06
1.24714e-06
1.24656e-06
1.24769e-06
1.24647e-06
1.24862e-06
1.2494e-06
1.2492e-06
1.25033e-06
1.24977e-06
1.24882e-06
)
;

boundaryField
{
    inlet
    {
        type            calculated;
        value           uniform -1.225e-06;
    }
    outlet
    {
        type            calculated;
        value           uniform 1.24761e-06;
    }
    yzfaces
    {
        type            empty;
    }
}


// ************************************************************************* //
