/*--------------------------------*- C++ -*----------------------------------*\
| =========                 |                                                 |
| \\      /  F ield         | foam-extend: Open Source CFD                    |
|  \\    /   O peration     | Version:     5.0                                |
|   \\  /    A nd           | Web:         http://www.foam-extend.org         |
|    \\/     M anipulation  |                                                 |
\*---------------------------------------------------------------------------*/
FoamFile
{
    version     2.0;
    format      ascii;
    class       volScalarField;
    location    "0.71677";
    object      S.gas;
}
// * * * * * * * * * * * * * * * * * * * * * * * * * * * * * * * * * * * * * //

dimensions      [0 0 0 0 0 0 0];

internalField   nonuniform List<scalar> 
100
(
0.512673
0.421477
0.367317
0.318103
0.280467
0.253233
0.146096
0.168222
0.174384
0.17136
0.16321
0.152065
0.139093
0.125071
0.110692
0.0964994
0.083507
0.0725031
0.0641181
0.0583229
0.0546713
0.0525388
0.0513443
0.0506956
0.0503597
0.0501807
0.0500934
0.0500509
0.050025
0.0500258
0.0500136
0.0500079
0.0500114
0.0500146
0.0500065
0.0499973
0.0499882
0.0499891
0.0499802
0.0499886
0.0499956
0.0500016
0.0499965
0.0499878
0.0499878
0.049989
0.0499926
0.0499941
0.0500026
0.0500064
0.0499944
0.0500035
0.0499947
0.0499934
0.0499986
0.0500023
0.0499982
0.0499967
0.0500009
0.0500066
0.0500085
0.0500023
0.0500035
0.0500106
0.0500003
0.0500007
0.0500037
0.0500007
0.0500022
0.0500016
0.0500047
0.0500013
0.0499997
0.0499996
0.0499956
0.0499987
0.0499964
0.0499984
0.0500091
0.0500111
0.0500105
0.050009
0.0500165
0.0500198
0.0500168
0.050005
0.0500007
0.0500026
0.0499928
0.0499929
0.0499908
0.0499939
0.0499975
0.0499874
0.0499862
0.0499935
0.049989
0.049983
0.0499836
0.0500055
)
;

boundaryField
{
    inlet
    {
        type            calculated;
        value           uniform 1;
    }
    outlet
    {
        type            calculated;
        value           uniform 0.0500055;
    }
    yzfaces
    {
        type            empty;
    }
}


// ************************************************************************* //
