/*--------------------------------*- C++ -*----------------------------------*\
| =========                 |                                                 |
| \\      /  F ield         | foam-extend: Open Source CFD                    |
|  \\    /   O peration     | Version:     5.0                                |
|   \\  /    A nd           | Web:         http://www.foam-extend.org         |
|    \\/     M anipulation  |                                                 |
\*---------------------------------------------------------------------------*/
FoamFile
{
    version     2.0;
    format      ascii;
    class       volVectorField;
    location    "0.71677";
    object      U.gas;
}
// * * * * * * * * * * * * * * * * * * * * * * * * * * * * * * * * * * * * * //

dimensions      [0 1 -1 0 0 0 0];

internalField   nonuniform List<vector> 
100
(
(0.00951915 0 0)
(0.0110149 0 0)
(0.0120339 0 0)
(0.0130518 0 0)
(0.0136425 0 0)
(0.0138729 0 0)
(0.0173688 0 0)
(0.0113623 0 0)
(0.0124059 0 0)
(0.0127946 0 0)
(0.0128347 0 0)
(0.0126444 0 0)
(0.0122663 0 0)
(0.0116994 0 0)
(0.010929 0 0)
(0.00998304 0 0)
(0.00891696 0 0)
(0.00783264 0 0)
(0.00683943 0 0)
(0.00605172 0 0)
(0.00550439 0 0)
(0.00515804 0 0)
(0.00495483 0 0)
(0.00484434 0 0)
(0.00478838 0 0)
(0.00475893 0 0)
(0.00473954 0 0)
(0.00473314 0 0)
(0.00473227 0 0)
(0.00473192 0 0)
(0.00473083 0 0)
(0.00473078 0 0)
(0.00473261 0 0)
(0.00473535 0 0)
(0.0047387 0 0)
(0.00473636 0 0)
(0.0047358 0 0)
(0.00473714 0 0)
(0.00473652 0 0)
(0.00473387 0 0)
(0.00473066 0 0)
(0.004729 0 0)
(0.00473323 0 0)
(0.00473622 0 0)
(0.0047386 0 0)
(0.00473929 0 0)
(0.00473722 0 0)
(0.00473703 0 0)
(0.00473919 0 0)
(0.00474077 0 0)
(0.004739 0 0)
(0.00473463 0 0)
(0.00473789 0 0)
(0.00474014 0 0)
(0.00473731 0 0)
(0.00473431 0 0)
(0.00473595 0 0)
(0.00473747 0 0)
(0.00473515 0 0)
(0.00474001 0 0)
(0.0047429 0 0)
(0.00474029 0 0)
(0.00474122 0 0)
(0.00473737 0 0)
(0.00473659 0 0)
(0.00473564 0 0)
(0.00473482 0 0)
(0.00474276 0 0)
(0.004748 0 0)
(0.00474559 0 0)
(0.00474299 0 0)
(0.00474917 0 0)
(0.00475251 0 0)
(0.00475201 0 0)
(0.00475204 0 0)
(0.00474929 0 0)
(0.00474831 0 0)
(0.00474857 0 0)
(0.0047476 0 0)
(0.00474781 0 0)
(0.00474723 0 0)
(0.00474391 0 0)
(0.00474216 0 0)
(0.00474565 0 0)
(0.00474419 0 0)
(0.00474005 0 0)
(0.00474168 0 0)
(0.00474188 0 0)
(0.00473671 0 0)
(0.00473192 0 0)
(0.0047318 0 0)
(0.00473167 0 0)
(0.00473123 0 0)
(0.00473441 0 0)
(0.00473939 0 0)
(0.00473996 0 0)
(0.00474179 0 0)
(0.00474275 0 0)
(0.0047395 0 0)
(0.00473416 0 0)
)
;

boundaryField
{
    inlet
    {
        type            fixedValue;
        value           uniform (0.005 0 0);
    }
    outlet
    {
        type            zeroGradient;
    }
    yzfaces
    {
        type            empty;
    }
}


// ************************************************************************* //
