/*--------------------------------*- C++ -*----------------------------------*\
| =========                 |                                                 |
| \\      /  F ield         | foam-extend: Open Source CFD                    |
|  \\    /   O peration     | Version:     5.0                                |
|   \\  /    A nd           | Web:         http://www.foam-extend.org         |
|    \\/     M anipulation  |                                                 |
\*---------------------------------------------------------------------------*/
FoamFile
{
    version     2.0;
    format      ascii;
    class       volVectorField;
    location    "0.71677";
    object      U.water;
}
// * * * * * * * * * * * * * * * * * * * * * * * * * * * * * * * * * * * * * //

dimensions      [0 1 -1 0 0 0 0];

internalField   nonuniform List<vector> 
100
(
(0.000250312 0 0)
(0.000630124 0 0)
(0.00095791 0 0)
(0.00129652 0 0)
(0.00167578 0 0)
(0.00202965 0 0)
(0.00292024 0 0)
(0.0037613 0 0)
(0.00348559 0 0)
(0.00344186 0 0)
(0.00352533 0 0)
(0.00368013 0 0)
(0.00387998 0 0)
(0.00410259 0 0)
(0.00432219 0 0)
(0.0045248 0 0)
(0.00470251 0 0)
(0.00484067 0 0)
(0.00493615 0 0)
(0.00499732 0 0)
(0.00503816 0 0)
(0.00506253 0 0)
(0.00507595 0 0)
(0.00508485 0 0)
(0.00509314 0 0)
(0.00509863 0 0)
(0.00509794 0 0)
(0.00510009 0 0)
(0.00510305 0 0)
(0.00510502 0 0)
(0.00510408 0 0)
(0.00510583 0 0)
(0.00510833 0 0)
(0.00511047 0 0)
(0.00511404 0 0)
(0.00511259 0 0)
(0.00511279 0 0)
(0.00511461 0 0)
(0.00511366 0 0)
(0.00511256 0 0)
(0.00510786 0 0)
(0.00510521 0 0)
(0.00510921 0 0)
(0.00511289 0 0)
(0.00511742 0 0)
(0.00511817 0 0)
(0.00511529 0 0)
(0.00511482 0 0)
(0.00511683 0 0)
(0.00511765 0 0)
(0.00511533 0 0)
(0.00511238 0 0)
(0.00511533 0 0)
(0.00511807 0 0)
(0.0051153 0 0)
(0.00511163 0 0)
(0.00511277 0 0)
(0.00511417 0 0)
(0.00511155 0 0)
(0.0051169 0 0)
(0.00511918 0 0)
(0.00511576 0 0)
(0.00511688 0 0)
(0.00511289 0 0)
(0.00511233 0 0)
(0.00511255 0 0)
(0.00511177 0 0)
(0.00512047 0 0)
(0.00512568 0 0)
(0.0051218 0 0)
(0.00511947 0 0)
(0.00512643 0 0)
(0.00513033 0 0)
(0.00512971 0 0)
(0.00512947 0 0)
(0.00512761 0 0)
(0.0051263 0 0)
(0.0051265 0 0)
(0.00512522 0 0)
(0.00512497 0 0)
(0.00512418 0 0)
(0.00511998 0 0)
(0.00511934 0 0)
(0.00512236 0 0)
(0.00511998 0 0)
(0.00511568 0 0)
(0.00511843 0 0)
(0.0051194 0 0)
(0.00511286 0 0)
(0.00510837 0 0)
(0.005108 0 0)
(0.00510918 0 0)
(0.00510901 0 0)
(0.00511084 0 0)
(0.00511688 0 0)
(0.0051181 0 0)
(0.00512 0 0)
(0.00512117 0 0)
(0.00511808 0 0)
(0.00511372 0 0)
)
;

boundaryField
{
    inlet
    {
        type            fixedValue;
        value           uniform (0 0 0);
    }
    outlet
    {
        type            zeroGradient;
    }
    yzfaces
    {
        type            empty;
    }
}


// ************************************************************************* //
