/*--------------------------------*- C++ -*----------------------------------*\
| =========                 |                                                 |
| \\      /  F ield         | foam-extend: Open Source CFD                    |
|  \\    /   O peration     | Version:     5.0                                |
|   \\  /    A nd           | Web:         http://www.foam-extend.org         |
|    \\/     M anipulation  |                                                 |
\*---------------------------------------------------------------------------*/
FoamFile
{
    version     2.0;
    format      ascii;
    class       volScalarField;
    location    "70";
    object      alpha.water;
}
// * * * * * * * * * * * * * * * * * * * * * * * * * * * * * * * * * * * * * //

dimensions      [0 0 0 0 0 0 0];

internalField   nonuniform List<scalar> 
100
(
0.00747555
0.0171453
0.0311252
0.0382673
0.0357437
0.0339487
0.0356475
0.0343848
0.0347124
0.0351373
0.0346042
0.0347593
0.0350598
0.0348755
0.0351287
0.0354925
0.0359581
0.0396526
0.0455541
0.051351
0.0537387
0.0481216
0.0469474
0.051323
0.0534396
0.054237
0.0543311
0.052447
0.049298
0.0486568
0.0496564
0.0512554
0.0521627
0.0508175
0.0492603
0.0485305
0.0478993
0.0487785
0.0496946
0.0494026
0.0482729
0.0481998
0.046852
0.0471124
0.0466204
0.0464814
0.0471199
0.048861
0.0481981
0.0475712
0.0462984
0.0453345
0.045217
0.0458979
0.0460581
0.0467247
0.0490004
0.0517046
0.0547315
0.0583647
0.0614694
0.0651389
0.0679146
0.0705827
0.0728029
0.0753414
0.0758513
0.0774107
0.0770165
0.077255
0.0772711
0.0771912
0.077152
0.0770321
0.0772998
0.0778807
0.0781017
0.0776402
0.0774151
0.0771107
0.0764414
0.0764244
0.0763258
0.0758845
0.0762549
0.0764045
0.0761372
0.075875
0.0754631
0.0751279
0.0748801
0.0750657
0.0756714
0.0760252
0.0759036
0.0760675
0.0758953
0.0758201
0.0758342
0.0776259
)
;

boundaryField
{
    inlet
    {
        type            fixedValue;
        value           uniform 0;
    }
    outlet
    {
        type            zeroGradient;
    }
    yzfaces
    {
        type            empty;
    }
}


// ************************************************************************* //
