/*--------------------------------*- C++ -*----------------------------------*\
| =========                 |                                                 |
| \\      /  F ield         | foam-extend: Open Source CFD                    |
|  \\    /   O peration     | Version:     5.0                                |
|   \\  /    A nd           | Web:         http://www.foam-extend.org         |
|    \\/     M anipulation  |                                                 |
\*---------------------------------------------------------------------------*/
FoamFile
{
    version     2.0;
    format      ascii;
    class       volScalarField;
    location    "70";
    object      alpha.water;
}
// * * * * * * * * * * * * * * * * * * * * * * * * * * * * * * * * * * * * * //

dimensions      [0 0 0 0 0 0 0];

internalField   nonuniform List<scalar> 
100
(
0.0073225
0.0171403
0.0305505
0.0381871
0.036742
0.0340133
0.0357698
0.0335986
0.0353245
0.0346684
0.0349362
0.0348676
0.0345906
0.034933
0.0345048
0.0350695
0.0362403
0.0418733
0.0487906
0.052768
0.0533183
0.0538581
0.0534217
0.054139
0.052872
0.0535725
0.0533072
0.0513168
0.0464264
0.0462974
0.0487305
0.0511963
0.0521805
0.0518701
0.0515149
0.0522467
0.0519876
0.0488474
0.0450258
0.0448008
0.0453208
0.0463719
0.046711
0.046727
0.0474243
0.0493344
0.0472416
0.0465421
0.0469928
0.0456866
0.0461102
0.0473445
0.0462953
0.0469196
0.0477556
0.0506706
0.0524543
0.0533005
0.055783
0.0597253
0.0632358
0.0661652
0.0702863
0.0725126
0.0742407
0.0755626
0.0763787
0.0768081
0.0765165
0.0771393
0.0766006
0.0777725
0.0776661
0.0771868
0.0771163
0.0763673
0.0765546
0.0760463
0.0761084
0.0757354
0.07562
0.0752597
0.0759167
0.0763052
0.0764842
0.0758714
0.0754914
0.0757066
0.0759015
0.076123
0.0764152
0.0764078
0.0768296
0.0766625
0.0761288
0.0761312
0.0769183
0.0765728
0.0761424
0.075832
)
;

boundaryField
{
    inlet
    {
        type            fixedValue;
        value           uniform 0;
    }
    outlet
    {
        type            zeroGradient;
    }
    yzfaces
    {
        type            empty;
    }
}


// ************************************************************************* //
