/*--------------------------------*- C++ -*----------------------------------*\
| =========                 |                                                 |
| \\      /  F ield         | foam-extend: Open Source CFD                    |
|  \\    /   O peration     | Version:     5.0                                |
|   \\  /    A nd           | Web:         http://www.foam-extend.org         |
|    \\/     M anipulation  |                                                 |
\*---------------------------------------------------------------------------*/
FoamFile
{
    version     2.0;
    format      ascii;
    class       volScalarField;
    location    "70";
    object      Cl.water;
}
// * * * * * * * * * * * * * * * * * * * * * * * * * * * * * * * * * * * * * //

dimensions      [0 0 0 0 0 0 0];

internalField   nonuniform List<scalar> 
100
(
0.000900785
0.000495768
0.000307581
0.000660729
0.00223097
0.00340849
0.00463989
0.00517745
0.00590238
0.00606183
0.00640433
0.00659461
0.00662892
0.00695926
0.0073369
0.00773466
0.00755022
0.00725159
0.00734733
0.00790604
0.00987914
0.0136284
0.012186
0.00965427
0.00914148
0.00938756
0.00969604
0.0109942
0.0124949
0.0119852
0.0112383
0.0106736
0.0108343
0.0114002
0.0115718
0.0117707
0.0116677
0.0113205
0.0108583
0.0113857
0.0115911
0.0117355
0.0119788
0.0117084
0.0114789
0.0115752
0.0113211
0.0109175
0.0115985
0.0118981
0.0124173
0.0126487
0.0128525
0.0131071
0.0136172
0.0137984
0.0135244
0.0130235
0.012689
0.0121733
0.012168
0.0122543
0.0124899
0.0129427
0.013711
0.0144713
0.0149294
0.0150231
0.0151607
0.0147038
0.0148344
0.0149909
0.0148412
0.0146874
0.0144407
0.013998
0.0139362
0.0142808
0.0146972
0.0149059
0.0148901
0.0148358
0.0150558
0.014932
0.0144753
0.0143676
0.0147123
0.014809
0.0150644
0.0153479
0.0153043
0.0149037
0.0146394
0.0142378
0.0143009
0.0144367
0.0144146
0.0147274
0.0146965
0.014167
)
;

boundaryField
{
    inlet
    {
        type            fixedValue;
        value           uniform 0;
    }
    outlet
    {
        type            zeroGradient;
    }
    yzfaces
    {
        type            empty;
    }
}


// ************************************************************************* //
