/*--------------------------------*- C++ -*----------------------------------*\
| =========                 |                                                 |
| \\      /  F ield         | foam-extend: Open Source CFD                    |
|  \\    /   O peration     | Version:     5.0                                |
|   \\  /    A nd           | Web:         http://www.foam-extend.org         |
|    \\/     M anipulation  |                                                 |
\*---------------------------------------------------------------------------*/
FoamFile
{
    version     2.0;
    format      ascii;
    class       volScalarField;
    location    "70";
    object      Cl.water;
}
// * * * * * * * * * * * * * * * * * * * * * * * * * * * * * * * * * * * * * //

dimensions      [0 0 0 0 0 0 0];

internalField   nonuniform List<scalar> 
100
(
0.00089625
0.000484707
0.000331039
0.000670566
0.00218333
0.0036038
0.00427445
0.00545811
0.00554468
0.00625425
0.00639315
0.00658108
0.00671542
0.00677711
0.00690475
0.0071046
0.0072799
0.00751222
0.00794834
0.00857691
0.010159
0.0104189
0.010148
0.00999454
0.0105491
0.00995355
0.0101115
0.0114685
0.0135097
0.0122402
0.0104914
0.0101236
0.0103823
0.011011
0.0107904
0.0099322
0.0103641
0.0123604
0.0134863
0.012383
0.0117587
0.0116575
0.0115738
0.0113175
0.0113664
0.0109643
0.0119425
0.0120294
0.0118562
0.0123941
0.0122269
0.0116742
0.0123368
0.0121835
0.0120053
0.0115267
0.0118065
0.0121938
0.0124322
0.0126829
0.0132621
0.0137849
0.0140738
0.0145674
0.0150926
0.0147899
0.0145166
0.0140019
0.0136508
0.0135763
0.0138407
0.0139329
0.0142995
0.0147289
0.0147591
0.0148143
0.0148296
0.0151366
0.0151333
0.0151371
0.0148478
0.0145265
0.0143738
0.0146964
0.0149701
0.0151545
0.0147535
0.0144056
0.014028
0.0140703
0.0140906
0.0140452
0.0141989
0.014369
0.0142115
0.0140958
0.0141427
0.0143964
0.014748
0.0145356
)
;

boundaryField
{
    inlet
    {
        type            fixedValue;
        value           uniform 0;
    }
    outlet
    {
        type            zeroGradient;
    }
    yzfaces
    {
        type            empty;
    }
}


// ************************************************************************* //
