/*--------------------------------*- C++ -*----------------------------------*\
| =========                 |                                                 |
| \\      /  F ield         | foam-extend: Open Source CFD                    |
|  \\    /   O peration     | Version:     5.0                                |
|   \\  /    A nd           | Web:         http://www.foam-extend.org         |
|    \\/     M anipulation  |                                                 |
\*---------------------------------------------------------------------------*/
FoamFile
{
    version     2.0;
    format      ascii;
    class       volScalarField;
    location    "70";
    object      CO2.water;
}
// * * * * * * * * * * * * * * * * * * * * * * * * * * * * * * * * * * * * * //

dimensions      [0 0 0 0 0 0 0];

internalField   nonuniform List<scalar> 
100
(
0.000192322
0.000450182
0.000802395
0.00100297
0.000965012
0.000893343
0.000939478
0.000882451
0.000927781
0.000910549
0.000917583
0.000915782
0.000908505
0.0009175
0.000906254
0.000921086
0.000951835
0.00109978
0.00128146
0.00138593
0.00140038
0.00141456
0.0014031
0.00142193
0.00138866
0.00140706
0.00140009
0.00134781
0.00121937
0.00121598
0.00127989
0.00134465
0.0013705
0.00136234
0.00135301
0.00137223
0.00136543
0.00128295
0.00118258
0.00117667
0.00119033
0.00121794
0.00122684
0.00122726
0.00124558
0.00129574
0.00124078
0.00122241
0.00123424
0.00119994
0.00121106
0.00124348
0.00121592
0.00123232
0.00125428
0.00133084
0.00137769
0.00139991
0.00146511
0.00156866
0.00166086
0.0017378
0.00184604
0.00190451
0.0019499
0.00198462
0.00200605
0.00201733
0.00200967
0.00202603
0.00201188
0.00204266
0.00203986
0.00202727
0.00202542
0.00200575
0.00201067
0.00199732
0.00199895
0.00198915
0.00198612
0.00197666
0.00199392
0.00200412
0.00200882
0.00199273
0.00198275
0.0019884
0.00199352
0.00199933
0.00200701
0.00200682
0.0020179
0.0020135
0.00199949
0.00199955
0.00202022
0.00201115
0.00199984
0.00199169
)
;

boundaryField
{
    inlet
    {
        type            fixedValue;
        value           uniform 0;
    }
    outlet
    {
        type            zeroGradient;
    }
    yzfaces
    {
        type            empty;
    }
}


// ************************************************************************* //
