/*--------------------------------*- C++ -*----------------------------------*\
| =========                 |                                                 |
| \\      /  F ield         | foam-extend: Open Source CFD                    |
|  \\    /   O peration     | Version:     5.0                                |
|   \\  /    A nd           | Web:         http://www.foam-extend.org         |
|    \\/     M anipulation  |                                                 |
\*---------------------------------------------------------------------------*/
FoamFile
{
    version     2.0;
    format      ascii;
    class       volScalarField;
    location    "70";
    object      CO2.water;
}
// * * * * * * * * * * * * * * * * * * * * * * * * * * * * * * * * * * * * * //

dimensions      [0 0 0 0 0 0 0];

internalField   nonuniform List<scalar> 
100
(
0.000196342
0.000450313
0.000817489
0.00100507
0.000938791
0.000891648
0.000936264
0.0009031
0.000911705
0.000922865
0.000908863
0.000912937
0.00092083
0.00091599
0.000922639
0.000932194
0.000944423
0.00104146
0.00119646
0.00134871
0.00141142
0.00126389
0.00123305
0.00134797
0.00140357
0.00142451
0.00142698
0.0013775
0.00129479
0.00127795
0.0013042
0.0013462
0.00137003
0.0013347
0.0012938
0.00127463
0.00125805
0.00128115
0.00130521
0.00129754
0.00126787
0.00126595
0.00123055
0.00123739
0.00122446
0.00122081
0.00123758
0.00128331
0.0012659
0.00124944
0.00121601
0.00119069
0.0011876
0.00120549
0.00120969
0.0012272
0.00128697
0.001358
0.0014375
0.00153292
0.00161447
0.00171084
0.00178374
0.00185382
0.00191213
0.00197881
0.0019922
0.00203316
0.0020228
0.00202907
0.00202949
0.00202739
0.00202636
0.00202321
0.00203024
0.0020455
0.00205131
0.00203918
0.00203327
0.00202528
0.0020077
0.00200725
0.00200466
0.00199307
0.0020028
0.00200673
0.00199971
0.00199282
0.001982
0.0019732
0.00196669
0.00197157
0.00198748
0.00199677
0.00199357
0.00199788
0.00199336
0.00199138
0.00199175
0.00203881
)
;

boundaryField
{
    inlet
    {
        type            fixedValue;
        value           uniform 0;
    }
    outlet
    {
        type            zeroGradient;
    }
    yzfaces
    {
        type            empty;
    }
}


// ************************************************************************* //
