/*--------------------------------*- C++ -*----------------------------------*\
| =========                 |                                                 |
| \\      /  F ield         | foam-extend: Open Source CFD                    |
|  \\    /   O peration     | Version:     5.0                                |
|   \\  /    A nd           | Web:         http://www.foam-extend.org         |
|    \\/     M anipulation  |                                                 |
\*---------------------------------------------------------------------------*/
FoamFile
{
    version     2.0;
    format      ascii;
    class       volScalarField;
    location    "70";
    object      H2O.water;
}
// * * * * * * * * * * * * * * * * * * * * * * * * * * * * * * * * * * * * * //

dimensions      [0 0 0 0 0 0 0];

internalField   nonuniform List<scalar> 
100
(
0.00547811
0.0157034
0.0296926
0.0359408
0.0303414
0.0262394
0.02543
0.0231246
0.0219901
0.0220804
0.0208733
0.0206448
0.020868
0.0200243
0.0195165
0.0190825
0.0199052
0.0241013
0.0296598
0.0341861
0.0325634
0.0195985
0.0213532
0.0306701
0.0337626
0.0340435
0.033522
0.0290879
0.023032
0.0234239
0.0258807
0.0285513
0.0291166
0.026685
0.024816
0.0237009
0.0232919
0.0248357
0.0266547
0.02532
0.0238276
0.0234804
0.0216732
0.0224744
0.0224536
0.0221221
0.0232577
0.0257626
0.0237531
0.0225506
0.0202541
0.0188498
0.0183289
0.0184776
0.0176148
0.0179039
0.0206738
0.0243021
0.0279218
0.0324981
0.0355173
0.0389201
0.04115
0.042848
0.0434886
0.0444545
0.0440294
0.0453535
0.0447099
0.0458559
0.0455995
0.0452128
0.0454643
0.045641
0.04639
0.0478442
0.0481817
0.0470469
0.04599
0.0452692
0.0446273
0.044725
0.0442016
0.0440392
0.0453075
0.0456683
0.0447273
0.0442668
0.0433406
0.0424597
0.0423197
0.0433054
0.044426
0.0455802
0.0453342
0.0452195
0.0451014
0.0444023
0.0444591
0.047245
)
;

boundaryField
{
    inlet
    {
        type            fixedValue;
        value           uniform 0;
    }
    outlet
    {
        type            zeroGradient;
    }
    yzfaces
    {
        type            empty;
    }
}


// ************************************************************************* //
