/*--------------------------------*- C++ -*----------------------------------*\
| =========                 |                                                 |
| \\      /  F ield         | foam-extend: Open Source CFD                    |
|  \\    /   O peration     | Version:     5.0                                |
|   \\  /    A nd           | Web:         http://www.foam-extend.org         |
|    \\/     M anipulation  |                                                 |
\*---------------------------------------------------------------------------*/
FoamFile
{
    version     2.0;
    format      ascii;
    class       volScalarField;
    location    "70";
    object      H2O.gas;
}
// * * * * * * * * * * * * * * * * * * * * * * * * * * * * * * * * * * * * * //

dimensions      [0 0 0 0 0 0 0];

internalField   nonuniform List<scalar> 
100
(
0.000374936
0.000356104
0.000328879
0.00031497
0.000319884
0.00032338
0.000320072
0.000322531
0.000321893
0.000321065
0.000322104
0.000321801
0.000321216
0.000321575
0.000321082
0.000320374
0.000319467
0.000312272
0.000300779
0.00028949
0.00028484
0.000295779
0.000298066
0.000289544
0.000285422
0.000283869
0.000283686
0.000287355
0.000293488
0.000294737
0.00029279
0.000289676
0.000287909
0.000290529
0.000293561
0.000294983
0.000296212
0.000294499
0.000292715
0.000293284
0.000295484
0.000295626
0.000298251
0.000297744
0.000298702
0.000298973
0.00029773
0.000294339
0.00029563
0.000296851
0.000299329
0.000301207
0.000301435
0.000300109
0.000299797
0.000298499
0.000294067
0.000288801
0.000282906
0.000275831
0.000269784
0.000262638
0.000257233
0.000252037
0.000247713
0.000242769
0.000241776
0.000238739
0.000239507
0.000239042
0.000239011
0.000239167
0.000239243
0.000239476
0.000238955
0.000237824
0.000237393
0.000238292
0.000238731
0.000239323
0.000240627
0.00024066
0.000240852
0.000241711
0.00024099
0.000240699
0.000241219
0.00024173
0.000242532
0.000243185
0.000243667
0.000243306
0.000242126
0.000241437
0.000241674
0.000241355
0.00024169
0.000241837
0.000241809
0.00023832
)
;

boundaryField
{
    inlet
    {
        type            fixedValue;
        value           uniform 0;
    }
    outlet
    {
        type            zeroGradient;
    }
    yzfaces
    {
        type            empty;
    }
}


// ************************************************************************* //
