/*--------------------------------*- C++ -*----------------------------------*\
| =========                 |                                                 |
| \\      /  F ield         | foam-extend: Open Source CFD                    |
|  \\    /   O peration     | Version:     5.0                                |
|   \\  /    A nd           | Web:         http://www.foam-extend.org         |
|    \\/     M anipulation  |                                                 |
\*---------------------------------------------------------------------------*/
FoamFile
{
    version     2.0;
    format      ascii;
    class       volScalarField;
    location    "70";
    object      H2O.water;
}
// * * * * * * * * * * * * * * * * * * * * * * * * * * * * * * * * * * * * * //

dimensions      [0 0 0 0 0 0 0];

internalField   nonuniform List<scalar> 
100
(
0.00533777
0.0157206
0.0290859
0.0358421
0.0314095
0.0259118
0.0262804
0.0217977
0.0233069
0.0212432
0.0212263
0.0207848
0.0202491
0.0204598
0.0197818
0.0199268
0.0207135
0.0257378
0.0316055
0.0342221
0.0315927
0.0316052
0.0317166
0.0327112
0.0303725
0.0322452
0.0316796
0.0270323
0.0181936
0.0206059
0.0264742
0.0295977
0.0300422
0.0284944
0.0285866
0.0310213
0.0299073
0.0228474
0.0168745
0.018864
0.020608
0.0218346
0.0223351
0.022866
0.0234493
0.0261124
0.0221198
0.0212561
0.0220382
0.0196963
0.0204369
0.022744
0.0204043
0.0213193
0.0224994
0.0263035
0.0274719
0.0275281
0.0294672
0.0328046
0.0350594
0.036861
0.0402938
0.0414679
0.042092
0.0439844
0.0453243
0.0467819
0.0471897
0.0479423
0.0468988
0.0478474
0.0470053
0.0456846
0.0455663
0.0447287
0.0448815
0.0437714
0.0438504
0.0434812
0.0439427
0.0442443
0.0451868
0.0449151
0.0445477
0.0435842
0.0440249
0.0449388
0.0458953
0.0459899
0.0462335
0.0463166
0.0464159
0.0459118
0.0457206
0.0459478
0.0466184
0.0457715
0.0446496
0.0447739
)
;

boundaryField
{
    inlet
    {
        type            fixedValue;
        value           uniform 0;
    }
    outlet
    {
        type            zeroGradient;
    }
    yzfaces
    {
        type            empty;
    }
}


// ************************************************************************* //
