/*--------------------------------*- C++ -*----------------------------------*\
| =========                 |                                                 |
| \\      /  F ield         | foam-extend: Open Source CFD                    |
|  \\    /   O peration     | Version:     5.0                                |
|   \\  /    A nd           | Web:         http://www.foam-extend.org         |
|    \\/     M anipulation  |                                                 |
\*---------------------------------------------------------------------------*/
FoamFile
{
    version     2.0;
    format      ascii;
    class       volScalarField;
    location    "70";
    object      H2O.gas;
}
// * * * * * * * * * * * * * * * * * * * * * * * * * * * * * * * * * * * * * //

dimensions      [0 0 0 0 0 0 0];

internalField   nonuniform List<scalar> 
100
(
0.000375234
0.000356114
0.000329998
0.000315126
0.00031794
0.000323254
0.000319834
0.000324062
0.000320701
0.000321979
0.000321457
0.00032159
0.00032213
0.000321463
0.000322297
0.000321197
0.000318917
0.000307947
0.000294476
0.00028673
0.000285658
0.000284607
0.000285457
0.00028406
0.000286528
0.000285163
0.00028568
0.000289556
0.00029908
0.000299331
0.000294593
0.000289791
0.000287874
0.000288479
0.00028917
0.000287745
0.00028825
0.000294365
0.000301808
0.000302246
0.000301233
0.000299186
0.000298526
0.000298495
0.000297137
0.000293417
0.000297493
0.000298855
0.000297977
0.000300521
0.000299696
0.000297292
0.000299335
0.00029812
0.000296491
0.000290815
0.000287341
0.000285693
0.000280858
0.000273181
0.000266344
0.000260639
0.000252614
0.000248278
0.000244913
0.000242338
0.000240749
0.000239913
0.000240481
0.000239268
0.000240317
0.000238034
0.000238242
0.000239175
0.000239312
0.000240771
0.000240406
0.000241396
0.000241275
0.000242002
0.000242226
0.000242928
0.000241649
0.000240892
0.000240543
0.000241737
0.000242477
0.000242058
0.000241678
0.000241247
0.000240678
0.000240692
0.000239871
0.000240196
0.000241235
0.000241231
0.000239698
0.000240371
0.000241209
0.000241814
)
;

boundaryField
{
    inlet
    {
        type            fixedValue;
        value           uniform 0;
    }
    outlet
    {
        type            zeroGradient;
    }
    yzfaces
    {
        type            empty;
    }
}


// ************************************************************************* //
