/*--------------------------------*- C++ -*----------------------------------*\
| =========                 |                                                 |
| \\      /  F ield         | foam-extend: Open Source CFD                    |
|  \\    /   O peration     | Version:     5.0                                |
|   \\  /    A nd           | Web:         http://www.foam-extend.org         |
|    \\/     M anipulation  |                                                 |
\*---------------------------------------------------------------------------*/
FoamFile
{
    version     2.0;
    format      ascii;
    class       volScalarField;
    location    "70";
    object      Na.water;
}
// * * * * * * * * * * * * * * * * * * * * * * * * * * * * * * * * * * * * * //

dimensions      [0 0 0 0 0 0 0];

internalField   nonuniform List<scalar> 
100
(
0.000900314
0.00049575
0.000307553
0.000660712
0.00223249
0.00340921
0.00464135
0.00517963
0.00590816
0.00607218
0.00641763
0.00660691
0.00664204
0.00697595
0.00735264
0.00774313
0.00755823
0.00725828
0.00735048
0.00791015
0.00988469
0.0136308
0.0121751
0.00965058
0.00913193
0.0093814
0.00968613
0.0109874
0.0124763
0.0119697
0.0112332
0.0106843
0.0108417
0.0113976
0.0115787
0.0117842
0.0116816
0.0113412
0.0108763
0.0113993
0.0115864
0.011718
0.0119695
0.0116922
0.0114633
0.0115632
0.0113035
0.0108976
0.0115807
0.0118731
0.0124109
0.0126454
0.012848
0.0131077
0.0136164
0.0137952
0.0135153
0.013021
0.0126833
0.0121604
0.0121696
0.0122536
0.0124909
0.0129381
0.0136911
0.0144368
0.0149003
0.015001
0.0151231
0.0146662
0.0148077
0.0149601
0.0148202
0.0146805
0.0144389
0.0139929
0.0139326
0.0142734
0.0146946
0.0149103
0.0149164
0.0148564
0.0150638
0.0149202
0.0144692
0.0143619
0.0146979
0.0148064
0.0150761
0.0153471
0.0152895
0.0148851
0.0146186
0.0142105
0.0142749
0.0144134
0.014386
0.0146991
0.0146869
0.0141751
)
;

boundaryField
{
    inlet
    {
        type            fixedValue;
        value           uniform 0;
    }
    outlet
    {
        type            zeroGradient;
    }
    yzfaces
    {
        type            empty;
    }
}


// ************************************************************************* //
