/*--------------------------------*- C++ -*----------------------------------*\
| =========                 |                                                 |
| \\      /  F ield         | foam-extend: Open Source CFD                    |
|  \\    /   O peration     | Version:     5.0                                |
|   \\  /    A nd           | Web:         http://www.foam-extend.org         |
|    \\/     M anipulation  |                                                 |
\*---------------------------------------------------------------------------*/
FoamFile
{
    version     2.0;
    format      ascii;
    class       volScalarField;
    location    "70";
    object      Na.water;
}
// * * * * * * * * * * * * * * * * * * * * * * * * * * * * * * * * * * * * * //

dimensions      [0 0 0 0 0 0 0];

internalField   nonuniform List<scalar> 
100
(
0.000896163
0.000484801
0.000331207
0.000671475
0.00218411
0.00360432
0.00427554
0.00546037
0.00554505
0.00626034
0.00639916
0.00658598
0.00671758
0.00677862
0.00691201
0.00711704
0.00729504
0.00752355
0.00795532
0.00858303
0.0101663
0.0104194
0.010154
0.0100113
0.0105618
0.00996667
0.010116
0.0114682
0.0135037
0.0122354
0.0104851
0.0101304
0.0103856
0.0110023
0.0107848
0.00992089
0.0103507
0.0123566
0.0134824
0.0123772
0.0117638
0.0116619
0.0115752
0.0113163
0.011363
0.0109619
0.0119385
0.0120342
0.0118642
0.0123963
0.0122353
0.0116828
0.0123382
0.0121845
0.0119966
0.0115095
0.0117982
0.0121788
0.0124185
0.0126692
0.0132535
0.0137815
0.0140727
0.0145728
0.0151062
0.0148037
0.0145317
0.014007
0.0136663
0.0135946
0.0138492
0.0139496
0.0143214
0.014746
0.0147654
0.0148185
0.0148328
0.015141
0.0151258
0.0151279
0.0148433
0.0145122
0.0143622
0.0146896
0.0149576
0.0151399
0.0147303
0.0143738
0.0139846
0.0140635
0.0140841
0.0140391
0.014197
0.0143682
0.0141973
0.0140879
0.014137
0.0143938
0.0147449
0.0145308
)
;

boundaryField
{
    inlet
    {
        type            fixedValue;
        value           uniform 0;
    }
    outlet
    {
        type            zeroGradient;
    }
    yzfaces
    {
        type            empty;
    }
}


// ************************************************************************* //
