/*--------------------------------*- C++ -*----------------------------------*\
| =========                 |                                                 |
| \\      /  F ield         | foam-extend: Open Source CFD                    |
|  \\    /   O peration     | Version:     5.0                                |
|   \\  /    A nd           | Web:         http://www.foam-extend.org         |
|    \\/     M anipulation  |                                                 |
\*---------------------------------------------------------------------------*/
FoamFile
{
    version     2.0;
    format      ascii;
    class       surfaceScalarField;
    location    "70";
    object      phi;
}
// * * * * * * * * * * * * * * * * * * * * * * * * * * * * * * * * * * * * * //

dimensions      [0 3 -1 0 0 0 0];

internalField   nonuniform List<scalar> 
99
(
1.21187e-06
1.24336e-06
1.24536e-06
1.24253e-06
1.24628e-06
1.23371e-06
1.23974e-06
1.22927e-06
1.23753e-06
1.22996e-06
1.21794e-06
1.21576e-06
1.20505e-06
1.20937e-06
1.2164e-06
1.20719e-06
1.19689e-06
1.18846e-06
1.19149e-06
1.19927e-06
1.17375e-06
1.16239e-06
1.14469e-06
1.13531e-06
1.11249e-06
1.10326e-06
1.08622e-06
1.08517e-06
1.06303e-06
1.06509e-06
1.07374e-06
1.07883e-06
1.07268e-06
1.05545e-06
1.05281e-06
1.04331e-06
1.02063e-06
1.01453e-06
9.99366e-07
1.01021e-06
1.00745e-06
1.00863e-06
1.01802e-06
1.01379e-06
1.03334e-06
1.02919e-06
1.01312e-06
1.00605e-06
9.9458e-07
9.8077e-07
9.68301e-07
9.5214e-07
9.39599e-07
9.40266e-07
9.43179e-07
9.26434e-07
9.15694e-07
9.15433e-07
9.05615e-07
8.92312e-07
8.86565e-07
8.75455e-07
8.73646e-07
8.66239e-07
8.76119e-07
8.70234e-07
8.76431e-07
8.7575e-07
8.71942e-07
8.85423e-07
8.83892e-07
8.88562e-07
8.88022e-07
8.96112e-07
8.93973e-07
9.01902e-07
8.86697e-07
8.6762e-07
8.67108e-07
8.79196e-07
8.84942e-07
8.80811e-07
8.86111e-07
9.02482e-07
9.15541e-07
9.26384e-07
9.3511e-07
9.27372e-07
9.33145e-07
9.42732e-07
9.45425e-07
9.57195e-07
9.64435e-07
9.73044e-07
9.80025e-07
9.9099e-07
1.00188e-06
1.00767e-06
1.00371e-06
)
;

boundaryField
{
    inlet
    {
        type            calculated;
        value           uniform -1.225e-06;
    }
    outlet
    {
        type            calculated;
        value           uniform 1.00437e-06;
    }
    yzfaces
    {
        type            empty;
    }
}


// ************************************************************************* //
