/*--------------------------------*- C++ -*----------------------------------*\
| =========                 |                                                 |
| \\      /  F ield         | foam-extend: Open Source CFD                    |
|  \\    /   O peration     | Version:     5.0                                |
|   \\  /    A nd           | Web:         http://www.foam-extend.org         |
|    \\/     M anipulation  |                                                 |
\*---------------------------------------------------------------------------*/
FoamFile
{
    version     2.0;
    format      ascii;
    class       surfaceScalarField;
    location    "70";
    object      phi;
}
// * * * * * * * * * * * * * * * * * * * * * * * * * * * * * * * * * * * * * //

dimensions      [0 3 -1 0 0 0 0];

internalField   nonuniform List<scalar> 
99
(
1.21961e-06
1.24122e-06
1.2594e-06
1.25403e-06
1.25375e-06
1.24402e-06
1.24815e-06
1.25001e-06
1.23541e-06
1.24e-06
1.22956e-06
1.25021e-06
1.24808e-06
1.23967e-06
1.22541e-06
1.23785e-06
1.22514e-06
1.21472e-06
1.21167e-06
1.2162e-06
1.21812e-06
1.21367e-06
1.20988e-06
1.21497e-06
1.21909e-06
1.23028e-06
1.2293e-06
1.21913e-06
1.20895e-06
1.20831e-06
1.21468e-06
1.21637e-06
1.23426e-06
1.24746e-06
1.25538e-06
1.251e-06
1.25233e-06
1.26474e-06
1.26232e-06
1.27508e-06
1.27896e-06
1.28668e-06
1.296e-06
1.30081e-06
1.29176e-06
1.30169e-06
1.30728e-06
1.31749e-06
1.32414e-06
1.31285e-06
1.30783e-06
1.29969e-06
1.27886e-06
1.26729e-06
1.24172e-06
1.24318e-06
1.22284e-06
1.20535e-06
1.20769e-06
1.20323e-06
1.19006e-06
1.18423e-06
1.18957e-06
1.17762e-06
1.16394e-06
1.16718e-06
1.1684e-06
1.18059e-06
1.1807e-06
1.19063e-06
1.18721e-06
1.20592e-06
1.21532e-06
1.20436e-06
1.21145e-06
1.21022e-06
1.21887e-06
1.22493e-06
1.21336e-06
1.20062e-06
1.21244e-06
1.19388e-06
1.18671e-06
1.17597e-06
1.17539e-06
1.17019e-06
1.17522e-06
1.15847e-06
1.14916e-06
1.13629e-06
1.13573e-06
1.13501e-06
1.14241e-06
1.14241e-06
1.14149e-06
1.13854e-06
1.14197e-06
1.12229e-06
1.11174e-06
)
;

boundaryField
{
    inlet
    {
        type            calculated;
        value           uniform -1.225e-06;
    }
    outlet
    {
        type            calculated;
        value           uniform 1.11463e-06;
    }
    yzfaces
    {
        type            empty;
    }
}


// ************************************************************************* //
