/*--------------------------------*- C++ -*----------------------------------*\
| =========                 |                                                 |
| \\      /  F ield         | foam-extend: Open Source CFD                    |
|  \\    /   O peration     | Version:     5.0                                |
|   \\  /    A nd           | Web:         http://www.foam-extend.org         |
|    \\/     M anipulation  |                                                 |
\*---------------------------------------------------------------------------*/
FoamFile
{
    version     2.0;
    format      ascii;
    class       surfaceScalarField;
    location    "70";
    object      phi.water;
}
// * * * * * * * * * * * * * * * * * * * * * * * * * * * * * * * * * * * * * //

dimensions      [0 3 -1 0 0 0 0];

internalField   nonuniform List<scalar> 
99
(
8.50868e-09
2.57352e-08
7.00414e-08
1.07694e-07
9.63321e-08
8.45749e-08
9.50184e-08
8.81225e-08
8.82381e-08
9.18953e-08
8.80349e-08
8.99567e-08
9.14362e-08
8.9382e-08
8.93015e-08
9.1582e-08
8.79452e-08
9.84175e-08
1.22894e-07
1.56297e-07
1.81929e-07
1.45087e-07
1.30898e-07
1.56457e-07
1.70297e-07
1.77059e-07
1.804e-07
1.70667e-07
1.4893e-07
1.43665e-07
1.48325e-07
1.57696e-07
1.6859e-07
1.63627e-07
1.54992e-07
1.50608e-07
1.45517e-07
1.51005e-07
1.56951e-07
1.59122e-07
1.51687e-07
1.54428e-07
1.45575e-07
1.49039e-07
1.44772e-07
1.44033e-07
1.46599e-07
1.60347e-07
1.57724e-07
1.53773e-07
1.4578e-07
1.38978e-07
1.34922e-07
1.37803e-07
1.35157e-07
1.36042e-07
1.44056e-07
1.5464e-07
1.70682e-07
1.91411e-07
2.07674e-07
2.32809e-07
2.54292e-07
2.71967e-07
2.86506e-07
3.15156e-07
3.17714e-07
3.39225e-07
3.33833e-07
3.39677e-07
3.39031e-07
3.44693e-07
3.44594e-07
3.40163e-07
3.4441e-07
3.5073e-07
3.56839e-07
3.5204e-07
3.46683e-07
3.41057e-07
3.38282e-07
3.31029e-07
3.29321e-07
3.20623e-07
3.25162e-07
3.26423e-07
3.24546e-07
3.16578e-07
3.10349e-07
3.04275e-07
3.02386e-07
3.03559e-07
3.11546e-07
3.14647e-07
3.12315e-07
3.14423e-07
3.12334e-07
3.05539e-07
3.00213e-07
)
;

boundaryField
{
    inlet
    {
        type            fixedValue;
        value           uniform 0;
    }
    outlet
    {
        type            calculated;
        value           uniform 3.20742e-07;
    }
    yzfaces
    {
        type            empty;
    }
}


// ************************************************************************* //
