/*--------------------------------*- C++ -*----------------------------------*\
| =========                 |                                                 |
| \\      /  F ield         | foam-extend: Open Source CFD                    |
|  \\    /   O peration     | Version:     5.0                                |
|   \\  /    A nd           | Web:         http://www.foam-extend.org         |
|    \\/     M anipulation  |                                                 |
\*---------------------------------------------------------------------------*/
FoamFile
{
    version     2.0;
    format      ascii;
    class       volVectorField;
    location    "70";
    object      U.gas;
}
// * * * * * * * * * * * * * * * * * * * * * * * * * * * * * * * * * * * * * //

dimensions      [0 1 -1 0 0 0 0];

internalField   nonuniform List<vector> 
100
(
(0.00516199 0 0)
(0.00547874 0 0)
(0.0059877 0 0)
(0.00625985 0 0)
(0.00620351 0 0)
(0.00608222 0 0)
(0.00613165 0 0)
(0.00604106 0 0)
(0.00609917 0 0)
(0.0060761 0 0)
(0.00603786 0 0)
(0.00600025 0 0)
(0.00595862 0 0)
(0.00595517 0 0)
(0.00596775 0 0)
(0.00598273 0 0)
(0.00597606 0 0)
(0.00613641 0 0)
(0.0063926 0 0)
(0.00658429 0 0)
(0.00655484 0 0)
(0.00647544 0 0)
(0.00637567 0 0)
(0.00633149 0 0)
(0.00618899 0 0)
(0.00613063 0 0)
(0.00604651 0 0)
(0.00591881 0 0)
(0.00567558 0 0)
(0.0056222 0 0)
(0.00573937 0 0)
(0.00586742 0 0)
(0.00590008 0 0)
(0.00582309 0 0)
(0.00575566 0 0)
(0.00575048 0 0)
(0.0056518 0 0)
(0.00546035 0 0)
(0.00527581 0 0)
(0.00525997 0 0)
(0.00529867 0 0)
(0.00532956 0 0)
(0.0053683 0 0)
(0.00538228 0 0)
(0.00544699 0 0)
(0.00555526 0 0)
(0.00542565 0 0)
(0.00534208 0 0)
(0.00530888 0 0)
(0.00519809 0 0)
(0.00514362 0 0)
(0.00510786 0 0)
(0.00499702 0 0)
(0.00498621 0 0)
(0.00502208 0 0)
(0.00507953 0 0)
(0.00506132 0 0)
(0.0050577 0 0)
(0.00511313 0 0)
(0.00518283 0 0)
(0.00525001 0 0)
(0.0053046 0 0)
(0.00542069 0 0)
(0.00547428 0 0)
(0.00554877 0 0)
(0.00561402 0 0)
(0.00564717 0 0)
(0.00568115 0 0)
(0.00565271 0 0)
(0.00571152 0 0)
(0.00572487 0 0)
(0.00578857 0 0)
(0.00579416 0 0)
(0.00579767 0 0)
(0.00581544 0 0)
(0.00580123 0 0)
(0.00578847 0 0)
(0.00565518 0 0)
(0.00559508 0 0)
(0.00561582 0 0)
(0.00566954 0 0)
(0.00565967 0 0)
(0.00569266 0 0)
(0.005778 0 0)
(0.00587972 0 0)
(0.00592862 0 0)
(0.00597664 0 0)
(0.00599078 0 0)
(0.00599226 0 0)
(0.00605136 0 0)
(0.00610396 0 0)
(0.00614937 0 0)
(0.00623094 0 0)
(0.00627326 0 0)
(0.0062985 0 0)
(0.0063579 0 0)
(0.00646749 0 0)
(0.00650218 0 0)
(0.00648764 0 0)
(0.006463 0 0)
)
;

boundaryField
{
    inlet
    {
        type            fixedValue;
        value           uniform (0.005 0 0);
    }
    outlet
    {
        type            zeroGradient;
    }
    yzfaces
    {
        type            empty;
    }
}


// ************************************************************************* //
