/*--------------------------------*- C++ -*----------------------------------*\
| =========                 |                                                 |
| \\      /  F ield         | foam-extend: Open Source CFD                    |
|  \\    /   O peration     | Version:     5.0                                |
|   \\  /    A nd           | Web:         http://www.foam-extend.org         |
|    \\/     M anipulation  |                                                 |
\*---------------------------------------------------------------------------*/
FoamFile
{
    version     2.0;
    format      ascii;
    class       volVectorField;
    location    "70";
    object      U.gas;
}
// * * * * * * * * * * * * * * * * * * * * * * * * * * * * * * * * * * * * * //

dimensions      [0 1 -1 0 0 0 0];

internalField   nonuniform List<vector> 
100
(
(0.00518249 0 0)
(0.00549137 0 0)
(0.00603654 0 0)
(0.00632695 0 0)
(0.00621338 0 0)
(0.00612417 0 0)
(0.00617364 0 0)
(0.00614107 0 0)
(0.00612239 0 0)
(0.00611301 0 0)
(0.00607896 0 0)
(0.00611005 0 0)
(0.00616666 0 0)
(0.00613371 0 0)
(0.0060871 0 0)
(0.00609572 0 0)
(0.00611191 0 0)
(0.00619147 0 0)
(0.00638551 0 0)
(0.00662761 0 0)
(0.00674457 0 0)
(0.00649183 0 0)
(0.00642762 0 0)
(0.00661681 0 0)
(0.00673042 0 0)
(0.00680617 0 0)
(0.00683782 0 0)
(0.00672217 0 0)
(0.00653291 0 0)
(0.00648045 0 0)
(0.0065386 0 0)
(0.00662806 0 0)
(0.00671959 0 0)
(0.00674397 0 0)
(0.00673441 0 0)
(0.00671396 0 0)
(0.00667937 0 0)
(0.00675483 0 0)
(0.0068211 0 0)
(0.00683504 0 0)
(0.00683016 0 0)
(0.00685918 0 0)
(0.00684547 0 0)
(0.00689576 0 0)
(0.00686259 0 0)
(0.00685939 0 0)
(0.00692874 0 0)
(0.00704845 0 0)
(0.00706158 0 0)
(0.00702153 0 0)
(0.00692237 0 0)
(0.00684693 0 0)
(0.00676673 0 0)
(0.0067107 0 0)
(0.00661889 0 0)
(0.00658302 0 0)
(0.00662852 0 0)
(0.00664055 0 0)
(0.00672969 0 0)
(0.00688683 0 0)
(0.00697886 0 0)
(0.00709919 0 0)
(0.00723315 0 0)
(0.00734862 0 0)
(0.00738297 0 0)
(0.00748513 0 0)
(0.00752044 0 0)
(0.00765296 0 0)
(0.00766458 0 0)
(0.00771264 0 0)
(0.00773394 0 0)
(0.0077787 0 0)
(0.00786817 0 0)
(0.00785617 0 0)
(0.00785994 0 0)
(0.00791346 0 0)
(0.0079492 0 0)
(0.00796821 0 0)
(0.00793826 0 0)
(0.00784165 0 0)
(0.00779932 0 0)
(0.00777878 0 0)
(0.00769019 0 0)
(0.00760697 0 0)
(0.00759332 0 0)
(0.00758191 0 0)
(0.00756542 0 0)
(0.0075137 0 0)
(0.00740766 0 0)
(0.00731911 0 0)
(0.00726323 0 0)
(0.00726989 0 0)
(0.00732407 0 0)
(0.00736574 0 0)
(0.00735514 0 0)
(0.00735228 0 0)
(0.00734367 0 0)
(0.00728797 0 0)
(0.00719163 0 0)
(0.00726581 0 0)
)
;

boundaryField
{
    inlet
    {
        type            fixedValue;
        value           uniform (0.005 0 0);
    }
    outlet
    {
        type            zeroGradient;
    }
    yzfaces
    {
        type            empty;
    }
}


// ************************************************************************* //
