/*--------------------------------*- C++ -*----------------------------------*\
| =========                 |                                                 |
| \\      /  F ield         | foam-extend: Open Source CFD                    |
|  \\    /   O peration     | Version:     5.0                                |
|   \\  /    A nd           | Web:         http://www.foam-extend.org         |
|    \\/     M anipulation  |                                                 |
\*---------------------------------------------------------------------------*/
FoamFile
{
    version     2.0;
    format      ascii;
    class       volVectorField;
    location    "70";
    object      U.water;
}
// * * * * * * * * * * * * * * * * * * * * * * * * * * * * * * * * * * * * * //

dimensions      [0 1 -1 0 0 0 0];

internalField   nonuniform List<vector> 
100
(
(5.53227e-06 0 0)
(1.719e-05 0 0)
(3.90518e-05 0 0)
(6.65162e-05 0 0)
(8.34679e-05 0 0)
(7.85118e-05 0 0)
(7.17944e-05 0 0)
(7.49881e-05 0 0)
(7.00311e-05 0 0)
(7.4057e-05 0 0)
(7.18791e-05 0 0)
(7.20383e-05 0 0)
(7.14172e-05 0 0)
(7.08063e-05 0 0)
(7.17803e-05 0 0)
(7.08452e-05 0 0)
(7.22093e-05 0 0)
(7.83097e-05 0 0)
(9.8096e-05 0 0)
(0.000121308 0 0)
(0.000133219 0 0)
(0.000133587 0 0)
(0.000133515 0 0)
(0.000131075 0 0)
(0.000130461 0 0)
(0.000124998 0 0)
(0.000125448 0 0)
(0.000121903 0 0)
(0.000111969 0 0)
(9.66613e-05 0 0)
(9.85037e-05 0 0)
(0.000107507 0 0)
(0.000115317 0 0)
(0.00011664 0 0)
(0.00011428 0 0)
(0.000113082 0 0)
(0.000113203 0 0)
(0.000109075 0 0)
(9.73383e-05 0 0)
(8.68846e-05 0 0)
(8.69379e-05 0 0)
(8.87977e-05 0 0)
(9.21422e-05 0 0)
(9.3158e-05 0 0)
(9.45987e-05 0 0)
(9.85575e-05 0 0)
(0.000101182 0 0)
(9.38286e-05 0 0)
(9.12013e-05 0 0)
(9.03949e-05 0 0)
(8.6504e-05 0 0)
(8.68104e-05 0 0)
(8.79674e-05 0 0)
(8.52863e-05 0 0)
(8.73196e-05 0 0)
(9.04655e-05 0 0)
(9.7473e-05 0 0)
(0.000102019 0 0)
(0.000105496 0 0)
(0.000114312 0 0)
(0.000127435 0 0)
(0.00013983 0 0)
(0.000153378 0 0)
(0.000169011 0 0)
(0.000179916 0 0)
(0.000187964 0 0)
(0.000193944 0 0)
(0.000199252 0 0)
(0.000200307 0 0)
(0.000201845 0 0)
(0.000205275 0 0)
(0.000204809 0 0)
(0.000210046 0 0)
(0.00020972 0 0)
(0.000207801 0 0)
(0.000206752 0 0)
(0.000202222 0 0)
(0.000198134 0 0)
(0.000195366 0 0)
(0.000197117 0 0)
(0.000196756 0 0)
(0.000195686 0 0)
(0.000195333 0 0)
(0.000200889 0 0)
(0.00020673 0 0)
(0.000209498 0 0)
(0.000207316 0 0)
(0.000205818 0 0)
(0.000207702 0 0)
(0.000210701 0 0)
(0.000213566 0 0)
(0.000216806 0 0)
(0.000219604 0 0)
(0.000222787 0 0)
(0.00022289 0 0)
(0.000222647 0 0)
(0.000226045 0 0)
(0.000230892 0 0)
(0.000228887 0 0)
(0.000225847 0 0)
)
;

boundaryField
{
    inlet
    {
        type            fixedValue;
        value           uniform (0 0 0);
    }
    outlet
    {
        type            zeroGradient;
    }
    yzfaces
    {
        type            empty;
    }
}


// ************************************************************************* //
