/*--------------------------------*- C++ -*----------------------------------*\
| =========                 |                                                 |
| \\      /  F ield         | foam-extend: Open Source CFD                    |
|  \\    /   O peration     | Version:     5.0                                |
|   \\  /    A nd           | Web:         http://www.foam-extend.org         |
|    \\/     M anipulation  |                                                 |
\*---------------------------------------------------------------------------*/
FoamFile
{
    version     2.0;
    format      ascii;
    class       volVectorField;
    location    "70";
    object      U.water;
}
// * * * * * * * * * * * * * * * * * * * * * * * * * * * * * * * * * * * * * //

dimensions      [0 1 -1 0 0 0 0];

internalField   nonuniform List<vector> 
100
(
(5.71462e-06 0 0)
(1.7239e-05 0 0)
(3.99274e-05 0 0)
(6.83561e-05 0 0)
(8.38471e-05 0 0)
(7.57881e-05 0 0)
(7.18157e-05 0 0)
(7.56848e-05 0 0)
(7.20599e-05 0 0)
(7.2961e-05 0 0)
(7.37455e-05 0 0)
(7.26273e-05 0 0)
(7.36932e-05 0 0)
(7.40971e-05 0 0)
(7.30261e-05 0 0)
(7.38136e-05 0 0)
(7.49349e-05 0 0)
(7.7578e-05 0 0)
(9.10218e-05 0 0)
(0.000112562 0 0)
(0.000132723 0 0)
(0.000137128 0 0)
(0.000115865 0 0)
(0.000116252 0 0)
(0.000132469 0 0)
(0.000141127 0 0)
(0.000144526 0 0)
(0.000142704 0 0)
(0.000132513 0 0)
(0.000120538 0 0)
(0.000119579 0 0)
(0.000124432 0 0)
(0.000131369 0 0)
(0.00013513 0 0)
(0.000130467 0 0)
(0.000124686 0 0)
(0.000121683 0 0)
(0.000120934 0 0)
(0.000124782 0 0)
(0.000128217 0 0)
(0.00012729 0 0)
(0.000123893 0 0)
(0.000123435 0 0)
(0.000119831 0 0)
(0.000120322 0 0)
(0.00011845 0 0)
(0.000119212 0 0)
(0.000123599 0 0)
(0.000129833 0 0)
(0.000126937 0 0)
(0.000122818 0 0)
(0.000117149 0 0)
(0.000112667 0 0)
(0.000111314 0 0)
(0.000111992 0 0)
(0.000111947 0 0)
(0.000115026 0 0)
(0.000122511 0 0)
(0.000133425 0 0)
(0.000147867 0 0)
(0.000163762 0 0)
(0.000179499 0 0)
(0.000198846 0 0)
(0.000214836 0 0)
(0.000228646 0 0)
(0.000244089 0 0)
(0.000258968 0 0)
(0.000266098 0 0)
(0.00027495 0 0)
(0.000274459 0 0)
(0.000276568 0 0)
(0.000278492 0 0)
(0.000280933 0 0)
(0.000279986 0 0)
(0.000279774 0 0)
(0.000283096 0 0)
(0.000287706 0 0)
(0.00028954 0 0)
(0.000285602 0 0)
(0.000280689 0 0)
(0.000277967 0 0)
(0.000273501 0 0)
(0.000269785 0 0)
(0.000266432 0 0)
(0.000263597 0 0)
(0.000265552 0 0)
(0.000265815 0 0)
(0.00026212 0 0)
(0.000256562 0 0)
(0.000251322 0 0)
(0.000248123 0 0)
(0.000247442 0 0)
(0.000250627 0 0)
(0.000255302 0 0)
(0.000256313 0 0)
(0.000255526 0 0)
(0.000256074 0 0)
(0.000252787 0 0)
(0.000249129 0 0)
(0.000252195 0 0)
)
;

boundaryField
{
    inlet
    {
        type            fixedValue;
        value           uniform (0 0 0);
    }
    outlet
    {
        type            zeroGradient;
    }
    yzfaces
    {
        type            empty;
    }
}


// ************************************************************************* //
