/*--------------------------------*- C++ -*----------------------------------*\
| =========                 |                                                 |
| \\      /  F ield         | foam-extend: Open Source CFD                    |
|  \\    /   O peration     | Version:     5.0                                |
|   \\  /    A nd           | Web:         http://www.foam-extend.org         |
|    \\/     M anipulation  |                                                 |
\*---------------------------------------------------------------------------*/
FoamFile
{
    version     2.0;
    format      ascii;
    class       volScalarField;
    location    "6";
    object      alpha.gas;
}
// * * * * * * * * * * * * * * * * * * * * * * * * * * * * * * * * * * * * * //

dimensions      [0 0 0 0 0 0 0];

internalField   nonuniform List<scalar> 
100
(
0.16047
0.14772
0.138354
0.130273
0.125317
0.121556
0.1172
0.112751
0.108578
0.105299
0.101933
0.099101
0.0967605
0.0946721
0.0926684
0.0904916
0.088946
0.0874071
0.0863196
0.0855613
0.0845382
0.083221
0.0822559
0.0810802
0.0796552
0.0784303
0.0772486
0.0761298
0.0751601
0.0741516
0.0732268
0.0723341
0.071438
0.0706902
0.0700956
0.0691988
0.0682825
0.0675356
0.0666732
0.0660399
0.0652672
0.0645693
0.0638838
0.0631768
0.0625879
0.0621013
0.0615439
0.0608983
0.0602981
0.0596184
0.0590394
0.0585302
0.0578965
0.0573453
0.0567926
0.0562856
0.0557536
0.0553019
0.0548535
0.0543369
0.0538552
0.0533882
0.0529101
0.0524605
0.0520138
0.0515518
0.0511059
0.0506137
0.0501696
0.0496707
0.0492026
0.048656
0.0481304
0.0476209
0.0470133
0.046474
0.0458834
0.0453648
0.0447487
0.0441322
0.0435596
0.0429914
0.0423916
0.0418046
0.041176
0.0405459
0.0399357
0.0392868
0.0386274
0.0379449
0.0372145
0.0364709
0.0356998
0.0348857
0.0340096
0.0330568
0.0320429
0.0309603
0.0297827
0.0284731
)
;

boundaryField
{
    inlet
    {
        type            fixedValue;
        value           uniform 0.2;
    }
    outlet
    {
        type            zeroGradient;
    }
    yzfaces
    {
        type            empty;
    }
}


// ************************************************************************* //
