/*--------------------------------*- C++ -*----------------------------------*\
| =========                 |                                                 |
| \\      /  F ield         | foam-extend: Open Source CFD                    |
|  \\    /   O peration     | Version:     5.0                                |
|   \\  /    A nd           | Web:         http://www.foam-extend.org         |
|    \\/     M anipulation  |                                                 |
\*---------------------------------------------------------------------------*/
FoamFile
{
    version     2.0;
    format      ascii;
    class       volScalarField;
    location    "6";
    object      CO2.gas;
}
// * * * * * * * * * * * * * * * * * * * * * * * * * * * * * * * * * * * * * //

dimensions      [0 0 0 0 0 0 0];

internalField   nonuniform List<scalar> 
100
(
0.160157
0.147432
0.138085
0.130019
0.125073
0.121319
0.116971
0.112531
0.108366
0.105094
0.101734
0.098908
0.096572
0.0944878
0.0924879
0.0903154
0.0887728
0.0872369
0.0861515
0.0853947
0.0843735
0.0830589
0.0820957
0.0809223
0.0795
0.0782776
0.0770982
0.0759815
0.0750138
0.0740072
0.0730842
0.0721933
0.0712988
0.0705525
0.0699591
0.0690641
0.0681495
0.0674041
0.0665433
0.0659113
0.0651401
0.0644435
0.0637593
0.0630538
0.062466
0.0619804
0.0614241
0.0607797
0.0601807
0.0595023
0.0589244
0.0584162
0.0577837
0.0572336
0.056682
0.056176
0.055645
0.0551942
0.0547467
0.0542311
0.0537503
0.0532842
0.0528071
0.0523584
0.0519125
0.0514514
0.0510064
0.0505151
0.0500719
0.0495739
0.0491068
0.0485613
0.0480367
0.0475281
0.0469218
0.0463835
0.045794
0.0452764
0.0446616
0.0440463
0.0434748
0.0429077
0.0423091
0.0417232
0.0410958
0.0404669
0.0327896
0.0274487
0.0233733
0.0199898
0.0170736
0.0145392
0.0122859
0.010293
0.00851409
0.00694929
0.00558385
0.00440523
0.00339871
0.00254721
)
;

boundaryField
{
    inlet
    {
        type            fixedValue;
        value           uniform 0.2;
    }
    outlet
    {
        type            zeroGradient;
    }
    yzfaces
    {
        type            empty;
    }
}


// ************************************************************************* //
