/*--------------------------------*- C++ -*----------------------------------*\
| =========                 |                                                 |
| \\      /  F ield         | foam-extend: Open Source CFD                    |
|  \\    /   O peration     | Version:     5.0                                |
|   \\  /    A nd           | Web:         http://www.foam-extend.org         |
|    \\/     M anipulation  |                                                 |
\*---------------------------------------------------------------------------*/
FoamFile
{
    version     2.0;
    format      ascii;
    class       volScalarField;
    location    "6";
    object      H2O.water;
}
// * * * * * * * * * * * * * * * * * * * * * * * * * * * * * * * * * * * * * //

dimensions      [0 0 0 0 0 0 0];

internalField   nonuniform List<scalar> 
100
(
0.0223868
0.0288315
0.0339336
0.039057
0.0411953
0.0427846
0.0457795
0.0490104
0.0522727
0.054194
0.0563587
0.057548
0.0587215
0.0601159
0.0612657
0.0624229
0.0628965
0.0635398
0.0640421
0.0644535
0.0652702
0.066034
0.066466
0.0672678
0.0682707
0.0690007
0.069565
0.0701414
0.0707514
0.071433
0.0719633
0.0724214
0.0727488
0.0731002
0.0733469
0.0740231
0.0746731
0.0749897
0.0754435
0.0756971
0.0763557
0.0765607
0.0769687
0.0773973
0.0776288
0.0777014
0.0781066
0.0785172
0.0788228
0.0793002
0.0796251
0.0799852
0.0802993
0.0803989
0.0807472
0.08103
0.0813291
0.0815003
0.0817725
0.0821669
0.0824565
0.082686
0.0829103
0.0831014
0.0833858
0.0836365
0.0838053
0.0842477
0.0845328
0.0848528
0.0850292
0.0853784
0.0857153
0.0859927
0.0864766
0.0867198
0.0871391
0.0873685
0.0878103
0.0881393
0.0884387
0.0887525
0.0890887
0.0893838
0.0898115
0.0902006
0.0924872
0.0930234
0.0935071
0.0938605
0.0942325
0.0946913
0.0950934
0.0956086
0.0961444
0.096711
0.0973347
0.0979694
0.0986033
0.0992443
)
;

boundaryField
{
    inlet
    {
        type            fixedValue;
        value           uniform 0;
    }
    outlet
    {
        type            zeroGradient;
    }
    yzfaces
    {
        type            empty;
    }
}


// ************************************************************************* //
