/*--------------------------------*- C++ -*----------------------------------*\
| =========                 |                                                 |
| \\      /  F ield         | foam-extend: Open Source CFD                    |
|  \\    /   O peration     | Version:     5.0                                |
|   \\  /    A nd           | Web:         http://www.foam-extend.org         |
|    \\/     M anipulation  |                                                 |
\*---------------------------------------------------------------------------*/
FoamFile
{
    version     2.0;
    format      ascii;
    class       surfaceScalarField;
    location    "6";
    object      phi;
}
// * * * * * * * * * * * * * * * * * * * * * * * * * * * * * * * * * * * * * //

dimensions      [0 3 -1 0 0 0 0];

internalField   nonuniform List<scalar> 
99
(
1.23195e-06
1.23123e-06
1.23202e-06
1.23293e-06
1.2273e-06
1.23388e-06
1.22094e-06
1.22306e-06
1.22899e-06
1.22315e-06
1.21352e-06
1.21984e-06
1.21685e-06
1.21422e-06
1.21653e-06
1.22116e-06
1.22507e-06
1.23288e-06
1.23179e-06
1.23208e-06
1.22621e-06
1.23016e-06
1.23252e-06
1.22935e-06
1.22805e-06
1.22975e-06
1.22979e-06
1.22912e-06
1.22344e-06
1.22442e-06
1.22621e-06
1.22592e-06
1.2281e-06
1.22768e-06
1.22785e-06
1.22876e-06
1.22897e-06
1.22683e-06
1.22754e-06
1.22574e-06
1.22565e-06
1.22534e-06
1.2281e-06
1.2288e-06
1.22806e-06
1.23005e-06
1.22808e-06
1.23013e-06
1.23244e-06
1.23091e-06
1.22849e-06
1.22945e-06
1.23046e-06
1.23232e-06
1.23721e-06
1.23823e-06
1.23651e-06
1.23429e-06
1.23585e-06
1.23476e-06
1.23534e-06
1.23441e-06
1.23729e-06
1.23558e-06
1.23962e-06
1.24455e-06
1.24791e-06
1.24171e-06
1.2427e-06
1.23878e-06
1.23587e-06
1.23667e-06
1.23469e-06
1.23419e-06
1.23599e-06
1.23571e-06
1.23529e-06
1.23309e-06
1.23385e-06
1.23275e-06
1.23434e-06
1.2335e-06
1.23407e-06
1.23422e-06
1.23322e-06
1.23632e-06
1.23554e-06
1.23729e-06
1.23724e-06
1.23552e-06
1.23786e-06
1.23963e-06
1.2398e-06
1.2404e-06
1.24086e-06
1.24194e-06
1.24024e-06
1.23999e-06
1.24019e-06
)
;

boundaryField
{
    inlet
    {
        type            calculated;
        value           uniform -1.225e-06;
    }
    outlet
    {
        type            calculated;
        value           uniform 1.23739e-06;
    }
    yzfaces
    {
        type            empty;
    }
}


// ************************************************************************* //
