/*--------------------------------*- C++ -*----------------------------------*\
| =========                 |                                                 |
| \\      /  F ield         | foam-extend: Open Source CFD                    |
|  \\    /   O peration     | Version:     5.0                                |
|   \\  /    A nd           | Web:         http://www.foam-extend.org         |
|    \\/     M anipulation  |                                                 |
\*---------------------------------------------------------------------------*/
FoamFile
{
    version     2.0;
    format      ascii;
    class       surfaceScalarField;
    location    "6";
    object      phi.water;
}
// * * * * * * * * * * * * * * * * * * * * * * * * * * * * * * * * * * * * * //

dimensions      [0 3 -1 0 0 0 0];

internalField   nonuniform List<scalar> 
99
(
9.30729e-08
1.52556e-07
2.13551e-07
2.76633e-07
3.14199e-07
3.58215e-07
3.91458e-07
4.48905e-07
5.06539e-07
5.56168e-07
6.02146e-07
6.63267e-07
7.05102e-07
7.42228e-07
7.83778e-07
8.34432e-07
8.83488e-07
9.34289e-07
9.54715e-07
9.86718e-07
1.01364e-06
1.05231e-06
1.10137e-06
1.139e-06
1.1777e-06
1.22407e-06
1.26256e-06
1.2991e-06
1.32899e-06
1.36691e-06
1.41068e-06
1.44673e-06
1.48798e-06
1.52527e-06
1.55559e-06
1.6036e-06
1.63875e-06
1.66333e-06
1.70572e-06
1.72933e-06
1.76464e-06
1.80156e-06
1.84203e-06
1.87622e-06
1.90531e-06
1.9434e-06
1.97545e-06
2.01725e-06
2.05897e-06
2.09467e-06
2.12634e-06
2.16557e-06
2.19978e-06
2.24629e-06
2.29427e-06
2.32984e-06
2.35596e-06
2.38691e-06
2.42639e-06
2.46356e-06
2.50019e-06
2.53514e-06
2.57699e-06
2.60064e-06
2.64348e-06
2.6874e-06
2.72724e-06
2.74397e-06
2.78755e-06
2.81424e-06
2.84883e-06
2.89917e-06
2.93444e-06
2.97625e-06
3.0301e-06
3.07485e-06
3.11577e-06
3.16088e-06
3.22047e-06
3.26644e-06
3.3232e-06
3.3745e-06
3.43157e-06
3.48579e-06
3.54137e-06
3.61197e-06
3.66731e-06
3.73609e-06
3.79955e-06
3.86261e-06
3.9426e-06
4.02177e-06
4.10078e-06
4.18731e-06
4.27906e-06
4.37779e-06
4.47291e-06
4.58358e-06
4.70222e-06
)
;

boundaryField
{
    inlet
    {
        type            fixedValue;
        value           uniform 0;
    }
    outlet
    {
        type            calculated;
        value           uniform 4.83599e-06;
    }
    yzfaces
    {
        type            empty;
    }
}


// ************************************************************************* //
