/*--------------------------------*- C++ -*----------------------------------*\
| =========                 |                                                 |
| \\      /  F ield         | foam-extend: Open Source CFD                    |
|  \\    /   O peration     | Version:     5.0                                |
|   \\  /    A nd           | Web:         http://www.foam-extend.org         |
|    \\/     M anipulation  |                                                 |
\*---------------------------------------------------------------------------*/
FoamFile
{
    version     2.0;
    format      ascii;
    class       volVectorField;
    location    "6";
    object      U.gas;
}
// * * * * * * * * * * * * * * * * * * * * * * * * * * * * * * * * * * * * * //

dimensions      [0 1 -1 0 0 0 0];

internalField   nonuniform List<vector> 
100
(
(0.00624612 0 0)
(0.0067743 0 0)
(0.00723285 0 0)
(0.00763371 0 0)
(0.00785469 0 0)
(0.00810793 0 0)
(0.00830914 0 0)
(0.0085739 0 0)
(0.00886843 0 0)
(0.00910261 0 0)
(0.00926784 0 0)
(0.00948624 0 0)
(0.00966043 0 0)
(0.00978306 0 0)
(0.00993234 0 0)
(0.0101288 0 0)
(0.0103165 0 0)
(0.0104968 0 0)
(0.0105879 0 0)
(0.0106875 0 0)
(0.0107588 0 0)
(0.0108599 0 0)
(0.011026 0 0)
(0.011126 0 0)
(0.0112091 0 0)
(0.011324 0 0)
(0.011422 0 0)
(0.0115072 0 0)
(0.01156 0 0)
(0.0116177 0 0)
(0.0117255 0 0)
(0.0118066 0 0)
(0.0118956 0 0)
(0.0119735 0 0)
(0.0120315 0 0)
(0.0121313 0 0)
(0.0121877 0 0)
(0.0122229 0 0)
(0.0122928 0 0)
(0.0123172 0 0)
(0.0123711 0 0)
(0.0124293 0 0)
(0.0124946 0 0)
(0.012558 0 0)
(0.0125999 0 0)
(0.0126541 0 0)
(0.0126976 0 0)
(0.0127531 0 0)
(0.0128191 0 0)
(0.0128717 0 0)
(0.0128817 0 0)
(0.0129177 0 0)
(0.0129566 0 0)
(0.013024 0 0)
(0.0130932 0 0)
(0.0131455 0 0)
(0.013163 0 0)
(0.0131766 0 0)
(0.0132058 0 0)
(0.0132363 0 0)
(0.0132552 0 0)
(0.0132782 0 0)
(0.0133053 0 0)
(0.0133162 0 0)
(0.0133559 0 0)
(0.0134221 0 0)
(0.0134794 0 0)
(0.0134777 0 0)
(0.0134757 0 0)
(0.013466 0 0)
(0.0134472 0 0)
(0.0134599 0 0)
(0.0134539 0 0)
(0.0134479 0 0)
(0.0134694 0 0)
(0.0134737 0 0)
(0.0134724 0 0)
(0.0134657 0 0)
(0.0134589 0 0)
(0.0134408 0 0)
(0.0134379 0 0)
(0.0134283 0 0)
(0.013412 0 0)
(0.0133949 0 0)
(0.0133707 0 0)
(0.0133586 0 0)
(0.0133308 0 0)
(0.013305 0 0)
(0.0132662 0 0)
(0.0132161 0 0)
(0.0131712 0 0)
(0.013123 0 0)
(0.0130607 0 0)
(0.0129789 0 0)
(0.012886 0 0)
(0.0127788 0 0)
(0.0126413 0 0)
(0.0124765 0 0)
(0.0122861 0 0)
(0.0120449 0 0)
)
;

boundaryField
{
    inlet
    {
        type            fixedValue;
        value           uniform (0.005 0 0);
    }
    outlet
    {
        type            zeroGradient;
    }
    yzfaces
    {
        type            empty;
    }
}


// ************************************************************************* //
