/*--------------------------------*- C++ -*----------------------------------*\
| =========                 |                                                 |
| \\      /  F ield         | foam-extend: Open Source CFD                    |
|  \\    /   O peration     | Version:     5.0                                |
|   \\  /    A nd           | Web:         http://www.foam-extend.org         |
|    \\/     M anipulation  |                                                 |
\*---------------------------------------------------------------------------*/
FoamFile
{
    version     2.0;
    format      ascii;
    class       volVectorField;
    location    "6";
    object      U.water;
}
// * * * * * * * * * * * * * * * * * * * * * * * * * * * * * * * * * * * * * //

dimensions      [0 1 -1 0 0 0 0];

internalField   nonuniform List<vector> 
100
(
(4.39907e-05 0 0)
(0.00010149 0 0)
(0.000149926 0 0)
(0.000198961 0 0)
(0.000241591 0 0)
(0.000274429 0 0)
(0.000307479 0 0)
(0.000343082 0 0)
(0.000389734 0 0)
(0.000433844 0 0)
(0.000473189 0 0)
(0.000515686 0 0)
(0.000558345 0 0)
(0.000590959 0 0)
(0.0006231 0 0)
(0.000660141 0 0)
(0.000700289 0 0)
(0.000740052 0 0)
(0.000771278 0 0)
(0.000792688 0 0)
(0.000816942 0 0)
(0.000843726 0 0)
(0.00087853 0 0)
(0.000914635 0 0)
(0.000945967 0 0)
(0.000979767 0 0)
(0.00101469 0 0)
(0.0010457 0 0)
(0.00107315 0 0)
(0.0011009 0 0)
(0.00113331 0 0)
(0.00116627 0 0)
(0.00119749 0 0)
(0.00122937 0 0)
(0.00125795 0 0)
(0.00128858 0 0)
(0.00132293 0 0)
(0.00134853 0 0)
(0.00137457 0 0)
(0.00140251 0 0)
(0.00142615 0 0)
(0.00145514 0 0)
(0.00148656 0 0)
(0.00151731 0 0)
(0.00154367 0 0)
(0.00157091 0 0)
(0.00159956 0 0)
(0.00162926 0 0)
(0.00166353 0 0)
(0.00169497 0 0)
(0.00172294 0 0)
(0.00175134 0 0)
(0.0017818 0 0)
(0.00181371 0 0)
(0.00185211 0 0)
(0.0018871 0 0)
(0.00191326 0 0)
(0.00193644 0 0)
(0.00196481 0 0)
(0.0019959 0 0)
(0.00202606 0 0)
(0.00205486 0 0)
(0.00208584 0 0)
(0.00211317 0 0)
(0.00213958 0 0)
(0.00217476 0 0)
(0.00220987 0 0)
(0.00223414 0 0)
(0.00225827 0 0)
(0.00228751 0 0)
(0.00231264 0 0)
(0.00234613 0 0)
(0.00238144 0 0)
(0.00241312 0 0)
(0.00245115 0 0)
(0.00249159 0 0)
(0.00252739 0 0)
(0.0025627 0 0)
(0.00260463 0 0)
(0.00264788 0 0)
(0.00268966 0 0)
(0.00273375 0 0)
(0.00277784 0 0)
(0.00282349 0 0)
(0.00286821 0 0)
(0.0029193 0 0)
(0.00297172 0 0)
(0.00302271 0 0)
(0.00307682 0 0)
(0.00312724 0 0)
(0.00318499 0 0)
(0.00325138 0 0)
(0.00331703 0 0)
(0.00338459 0 0)
(0.00345651 0 0)
(0.00353395 0 0)
(0.00361313 0 0)
(0.00369657 0 0)
(0.00379072 0 0)
(0.0038877 0 0)
)
;

boundaryField
{
    inlet
    {
        type            fixedValue;
        value           uniform (0 0 0);
    }
    outlet
    {
        type            zeroGradient;
    }
    yzfaces
    {
        type            empty;
    }
}


// ************************************************************************* //
