/*--------------------------------*- C++ -*----------------------------------*\
| =========                 |                                                 |
| \\      /  F ield         | foam-extend: Open Source CFD                    |
|  \\    /   O peration     | Version:     5.0                                |
|   \\  /    A nd           | Web:         http://www.foam-extend.org         |
|    \\/     M anipulation  |                                                 |
\*---------------------------------------------------------------------------*/
FoamFile
{
    version     2.0;
    format      ascii;
    class       volVectorField;
    location    "6";
    object      U.water;
}
// * * * * * * * * * * * * * * * * * * * * * * * * * * * * * * * * * * * * * //

dimensions      [0 1 -1 0 0 0 0];

internalField   nonuniform List<vector> 
100
(
(4.36674e-05 0 0)
(0.000101496 0 0)
(0.000149655 0 0)
(0.000197158 0 0)
(0.000242695 0 0)
(0.000276155 0 0)
(0.000307255 0 0)
(0.000347168 0 0)
(0.000391048 0 0)
(0.000433057 0 0)
(0.000473899 0 0)
(0.000517944 0 0)
(0.000558598 0 0)
(0.000593784 0 0)
(0.000627009 0 0)
(0.000664749 0 0)
(0.000702032 0 0)
(0.0007332 0 0)
(0.00076369 0 0)
(0.000784622 0 0)
(0.000800777 0 0)
(0.000827786 0 0)
(0.000855899 0 0)
(0.000879552 0 0)
(0.000914187 0 0)
(0.000949121 0 0)
(0.000979904 0 0)
(0.00101243 0 0)
(0.0010445 0 0)
(0.00107646 0 0)
(0.00110946 0 0)
(0.00114024 0 0)
(0.00117234 0 0)
(0.0012026 0 0)
(0.00122448 0 0)
(0.00124657 0 0)
(0.00127901 0 0)
(0.00131261 0 0)
(0.00134462 0 0)
(0.0013779 0 0)
(0.00140751 0 0)
(0.00143876 0 0)
(0.00146947 0 0)
(0.00150117 0 0)
(0.0015289 0 0)
(0.00155073 0 0)
(0.00157381 0 0)
(0.00160375 0 0)
(0.00163592 0 0)
(0.00167022 0 0)
(0.00170771 0 0)
(0.00173566 0 0)
(0.00176316 0 0)
(0.00179657 0 0)
(0.00182652 0 0)
(0.00185336 0 0)
(0.00188047 0 0)
(0.00190593 0 0)
(0.00192625 0 0)
(0.00195281 0 0)
(0.00198613 0 0)
(0.002017 0 0)
(0.00204098 0 0)
(0.00206195 0 0)
(0.0020851 0 0)
(0.00211294 0 0)
(0.00214488 0 0)
(0.00217688 0 0)
(0.0022056 0 0)
(0.00223187 0 0)
(0.00225818 0 0)
(0.00228782 0 0)
(0.00232176 0 0)
(0.00235132 0 0)
(0.0023879 0 0)
(0.00242814 0 0)
(0.00246406 0 0)
(0.00249944 0 0)
(0.00253426 0 0)
(0.00257818 0 0)
(0.0026219 0 0)
(0.00266122 0 0)
(0.00270383 0 0)
(0.00274688 0 0)
(0.00279066 0 0)
(0.0028397 0 0)
(0.00288578 0 0)
(0.00293206 0 0)
(0.00298274 0 0)
(0.0030338 0 0)
(0.00308975 0 0)
(0.00314991 0 0)
(0.00321064 0 0)
(0.00327362 0 0)
(0.0033396 0 0)
(0.0034143 0 0)
(0.00349699 0 0)
(0.0035837 0 0)
(0.00367328 0 0)
(0.00377717 0 0)
)
;

boundaryField
{
    inlet
    {
        type            fixedValue;
        value           uniform (0 0 0);
    }
    outlet
    {
        type            zeroGradient;
    }
    yzfaces
    {
        type            empty;
    }
}


// ************************************************************************* //
