/*--------------------------------*- C++ -*----------------------------------*\
| =========                 |                                                 |
| \\      /  F ield         | foam-extend: Open Source CFD                    |
|  \\    /   O peration     | Version:     5.0                                |
|   \\  /    A nd           | Web:         http://www.foam-extend.org         |
|    \\/     M anipulation  |                                                 |
\*---------------------------------------------------------------------------*/
FoamFile
{
    version     2.0;
    format      ascii;
    class       volScalarField;
    location    "1";
    object      Cl.water;
}
// * * * * * * * * * * * * * * * * * * * * * * * * * * * * * * * * * * * * * //

dimensions      [0 0 0 0 0 0 0];

internalField   nonuniform List<scalar> 
100
(
0.0172512
0.0209271
0.0231788
0.0247837
0.0261103
0.0271675
0.027984
0.0287551
0.0293905
0.0301261
0.0307506
0.0313791
0.0318342
0.0324125
0.0329304
0.034488
0.0351484
0.03573
0.0363394
0.0369752
0.0376207
0.0382273
0.0387373
0.0391801
0.039522
0.0397318
0.0398267
0.0399207
0.0399633
0.0399687
0.0400061
0.0399657
0.0399978
0.0400038
0.0399966
0.0400178
0.0400057
0.0399935
0.0399896
0.0400074
0.0399881
0.039972
0.0399947
0.0399855
0.0400033
0.0400118
0.0400003
0.0400041
0.0399916
0.0400072
0.04003
0.0400562
0.0400123
0.040008
0.0400158
0.0400285
0.0400136
0.0400099
0.0400007
0.0399972
0.0399687
0.0399946
0.0399949
0.0400238
0.0400339
0.0400006
0.0400117
0.0399993
0.0399966
0.0400096
0.0400011
0.0400017
0.0400099
0.04004
0.0400359
0.0400231
0.0400013
0.0400007
0.0400066
0.0400012
0.0400057
0.0400259
0.0400063
0.0399995
0.0399801
0.0399985
0.0399976
0.0399999
0.0399908
0.0400377
0.0399859
0.0400388
0.0400154
0.0400189
0.0400067
0.0400186
0.0400297
0.0400439
0.0400498
0.0399632
)
;

boundaryField
{
    inlet
    {
        type            fixedValue;
        value           uniform 0;
    }
    outlet
    {
        type            zeroGradient;
    }
    yzfaces
    {
        type            empty;
    }
}


// ************************************************************************* //
