/*--------------------------------*- C++ -*----------------------------------*\
| =========                 |                                                 |
| \\      /  F ield         | foam-extend: Open Source CFD                    |
|  \\    /   O peration     | Version:     5.0                                |
|   \\  /    A nd           | Web:         http://www.foam-extend.org         |
|    \\/     M anipulation  |                                                 |
\*---------------------------------------------------------------------------*/
FoamFile
{
    version     2.0;
    format      ascii;
    class       volScalarField;
    location    "1";
    object      Na.water;
}
// * * * * * * * * * * * * * * * * * * * * * * * * * * * * * * * * * * * * * //

dimensions      [0 0 0 0 0 0 0];

internalField   nonuniform List<scalar> 
100
(
0.0172486
0.0209395
0.0231883
0.0247946
0.0261143
0.027158
0.0279969
0.0287683
0.0294004
0.0301303
0.030742
0.0313632
0.0318172
0.0324115
0.0329272
0.0344981
0.0351484
0.0357351
0.0363437
0.0369752
0.037618
0.0382251
0.0387338
0.039184
0.0395281
0.0397366
0.0398148
0.0399096
0.0399687
0.0399737
0.0400012
0.0399533
0.0399828
0.0399903
0.0400031
0.040019
0.0400185
0.0400261
0.0400164
0.0400226
0.0400013
0.0399874
0.0400171
0.0399947
0.0399995
0.040011
0.0400039
0.0400065
0.03998
0.0400056
0.0400034
0.0400143
0.0399739
0.0399715
0.0399876
0.0400091
0.0400074
0.0400147
0.0400092
0.040011
0.0399658
0.0399988
0.039991
0.0400177
0.0400239
0.0400012
0.0400116
0.0400041
0.0400128
0.0400201
0.0400022
0.0399885
0.0399983
0.0400258
0.0400288
0.0400234
0.0400129
0.0400173
0.0400073
0.0399881
0.039991
0.0400214
0.0400158
0.0399921
0.0399624
0.0399772
0.039995
0.0399956
0.0399812
0.0400307
0.0399765
0.040045
0.0400279
0.0400287
0.0400215
0.04003
0.0400427
0.0400443
0.0400516
0.0399604
)
;

boundaryField
{
    inlet
    {
        type            fixedValue;
        value           uniform 0;
    }
    outlet
    {
        type            zeroGradient;
    }
    yzfaces
    {
        type            empty;
    }
}


// ************************************************************************* //
