/*--------------------------------*- C++ -*----------------------------------*\
| =========                 |                                                 |
| \\      /  F ield         | foam-extend: Open Source CFD                    |
|  \\    /   O peration     | Version:     5.0                                |
|   \\  /    A nd           | Web:         http://www.foam-extend.org         |
|    \\/     M anipulation  |                                                 |
\*---------------------------------------------------------------------------*/
FoamFile
{
    version     2.0;
    format      ascii;
    class       volScalarField;
    location    "1";
    object      S.gas;
}
// * * * * * * * * * * * * * * * * * * * * * * * * * * * * * * * * * * * * * //

dimensions      [0 0 0 0 0 0 0];

internalField   nonuniform List<scalar> 
100
(
0.577959
0.486391
0.43103
0.391909
0.361489
0.337183
0.31538
0.296435
0.278583
0.262901
0.248047
0.234136
0.219916
0.206384
0.192826
0.179188
0.165266
0.150977
0.13639
0.121484
0.106692
0.0925748
0.0799472
0.069607
0.0619797
0.0568782
0.053779
0.0520031
0.0510499
0.0505382
0.0502644
0.0501299
0.0500629
0.0500135
0.0500003
0.0500103
0.0499992
0.0500008
0.0499978
0.0499957
0.0499999
0.0500075
0.0500005
0.0500027
0.0499931
0.0499938
0.0500054
0.0500054
0.0499985
0.0500038
0.0500146
0.0500032
0.0500088
0.050016
0.0500163
0.0500173
0.0500098
0.050011
0.049999
0.0499968
0.0499917
0.0500071
0.0500055
0.0500055
0.0500028
0.0500052
0.0499978
0.0500065
0.0499991
0.0499985
0.0499994
0.0500065
0.0500076
0.050017
0.0500048
0.0499988
0.0500096
0.0500138
0.0500055
0.049994
0.0499963
0.049995
0.0500088
0.050009
0.0500051
0.0500075
0.0500044
0.0500022
0.0500094
0.0500076
0.0500196
0.0500034
0.0499994
0.0500021
0.0500117
0.050015
0.0500129
0.0500075
0.0500045
0.0500027
)
;

boundaryField
{
    inlet
    {
        type            calculated;
        value           uniform 1;
    }
    outlet
    {
        type            calculated;
        value           uniform 0.0500027;
    }
    yzfaces
    {
        type            empty;
    }
}


// ************************************************************************* //
