/*--------------------------------*- C++ -*----------------------------------*\
| =========                 |                                                 |
| \\      /  F ield         | foam-extend: Open Source CFD                    |
|  \\    /   O peration     | Version:     5.0                                |
|   \\  /    A nd           | Web:         http://www.foam-extend.org         |
|    \\/     M anipulation  |                                                 |
\*---------------------------------------------------------------------------*/
FoamFile
{
    version     2.0;
    format      ascii;
    class       volVectorField;
    location    "1";
    object      U.gas;
}
// * * * * * * * * * * * * * * * * * * * * * * * * * * * * * * * * * * * * * //

dimensions      [0 1 -1 0 0 0 0];

internalField   nonuniform List<vector> 
100
(
(0.00852189 0 0)
(0.00983356 0 0)
(0.010749 0 0)
(0.011425 0 0)
(0.0119709 0 0)
(0.0123758 0 0)
(0.0127596 0 0)
(0.013058 0 0)
(0.0133101 0 0)
(0.0134756 0 0)
(0.0135932 0 0)
(0.0136404 0 0)
(0.0136744 0 0)
(0.0136265 0 0)
(0.0135188 0 0)
(0.0133323 0 0)
(0.0130525 0 0)
(0.0126586 0 0)
(0.0121242 0 0)
(0.0114472 0 0)
(0.0105997 0 0)
(0.00959099 0 0)
(0.00849906 0 0)
(0.00743068 0 0)
(0.00649499 0 0)
(0.00578296 0 0)
(0.00530096 0 0)
(0.00500894 0 0)
(0.00484738 0 0)
(0.00476022 0 0)
(0.00470918 0 0)
(0.00467799 0 0)
(0.0046627 0 0)
(0.00465437 0 0)
(0.0046476 0 0)
(0.00464587 0 0)
(0.00464685 0 0)
(0.004641 0 0)
(0.00463745 0 0)
(0.00463858 0 0)
(0.00463663 0 0)
(0.0046413 0 0)
(0.00464559 0 0)
(0.00464435 0 0)
(0.00465066 0 0)
(0.00465033 0 0)
(0.00464693 0 0)
(0.00464467 0 0)
(0.00464176 0 0)
(0.00463918 0 0)
(0.00463665 0 0)
(0.00463429 0 0)
(0.0046285 0 0)
(0.00463046 0 0)
(0.00463495 0 0)
(0.00463598 0 0)
(0.00463814 0 0)
(0.00463546 0 0)
(0.00462966 0 0)
(0.00462499 0 0)
(0.00462758 0 0)
(0.00463102 0 0)
(0.00463344 0 0)
(0.00463527 0 0)
(0.00463367 0 0)
(0.0046344 0 0)
(0.00463905 0 0)
(0.00464413 0 0)
(0.0046484 0 0)
(0.00464422 0 0)
(0.00464026 0 0)
(0.00464024 0 0)
(0.00464303 0 0)
(0.00464474 0 0)
(0.00464206 0 0)
(0.00463271 0 0)
(0.00462822 0 0)
(0.00462756 0 0)
(0.00462583 0 0)
(0.00462294 0 0)
(0.00462067 0 0)
(0.0046178 0 0)
(0.00461265 0 0)
(0.00461207 0 0)
(0.00461305 0 0)
(0.00461223 0 0)
(0.00460873 0 0)
(0.00460639 0 0)
(0.00460604 0 0)
(0.00460693 0 0)
(0.00461243 0 0)
(0.00461756 0 0)
(0.0046139 0 0)
(0.00461342 0 0)
(0.00461036 0 0)
(0.00460629 0 0)
(0.0046073 0 0)
(0.00461128 0 0)
(0.00461032 0 0)
(0.00461003 0 0)
)
;

boundaryField
{
    inlet
    {
        type            fixedValue;
        value           uniform (0.005 0 0);
    }
    outlet
    {
        type            zeroGradient;
    }
    yzfaces
    {
        type            empty;
    }
}


// ************************************************************************* //
