/*--------------------------------*- C++ -*----------------------------------*\
| =========                 |                                                 |
| \\      /  F ield         | foam-extend: Open Source CFD                    |
|  \\    /   O peration     | Version:     5.0                                |
|   \\  /    A nd           | Web:         http://www.foam-extend.org         |
|    \\/     M anipulation  |                                                 |
\*---------------------------------------------------------------------------*/
FoamFile
{
    version     2.0;
    format      ascii;
    class       volScalarField;
    location    "8";
    object      alpha.gas;
}
// * * * * * * * * * * * * * * * * * * * * * * * * * * * * * * * * * * * * * //

dimensions      [0 0 0 0 0 0 0];

internalField   nonuniform List<scalar> 
100
(
0.167643
0.153752
0.144302
0.137118
0.131767
0.127785
0.12674
0.1227
0.117056
0.112981
0.111196
0.108187
0.105749
0.103454
0.102073
0.10018
0.0982647
0.0966399
0.0949952
0.0931819
0.0915867
0.0897819
0.087644
0.08606
0.0850868
0.0844963
0.083852
0.0831933
0.0828098
0.0826162
0.0812112
0.0801271
0.0793622
0.0785233
0.0775107
0.0765074
0.0757246
0.075188
0.0746536
0.0741008
0.0732063
0.0721655
0.0711733
0.0703496
0.0696424
0.0691334
0.0684841
0.0677218
0.0669958
0.0662037
0.065713
0.0651561
0.0645625
0.0639963
0.0633662
0.062703
0.0621477
0.0615479
0.0608236
0.0599698
0.0592331
0.0585408
0.0577777
0.0569036
0.0558902
0.0547946
0.053732
0.0522686
0.0507545
0.0483768
0.0449098
0.0389544
0.0268644
7.30639e-05
0.0246236
0.024679
0.0247014
0.024659
0.0245854
0.0245094
0.0244507
0.0244182
0.0244156
0.0244349
0.0244785
0.0245334
0.0245926
0.0246698
0.0247591
0.0248461
0.0249375
0.0250217
0.0250968
0.0251684
0.0252317
0.0252968
0.0253595
0.0254037
0.0254338
0.0254549
)
;

boundaryField
{
    inlet
    {
        type            fixedValue;
        value           uniform 0.2;
    }
    outlet
    {
        type            zeroGradient;
    }
    yzfaces
    {
        type            empty;
    }
}


// ************************************************************************* //
