/*--------------------------------*- C++ -*----------------------------------*\
| =========                 |                                                 |
| \\      /  F ield         | foam-extend: Open Source CFD                    |
|  \\    /   O peration     | Version:     5.0                                |
|   \\  /    A nd           | Web:         http://www.foam-extend.org         |
|    \\/     M anipulation  |                                                 |
\*---------------------------------------------------------------------------*/
FoamFile
{
    version     2.0;
    format      ascii;
    class       volScalarField;
    location    "8";
    object      H2O.gas;
}
// * * * * * * * * * * * * * * * * * * * * * * * * * * * * * * * * * * * * * //

dimensions      [0 0 0 0 0 0 0];

internalField   nonuniform List<scalar> 
100
(
0.000326479
0.00020338
0.000149382
0.000112223
9.53071e-05
0.00010355
0.000246823
0.000238954
0.000227963
0.000220028
0.000216551
0.000210478
0.00020383
0.000201474
0.000198785
0.000183264
0.000164273
0.000145438
0.000126287
0.000107936
9.28903e-05
8.05361e-05
7.11789e-05
6.5887e-05
6.58287e-05
7.24967e-05
0.000133531
0.000162017
0.00016127
0.000160893
0.000155509
0.000152645
0.000150872
0.000149176
0.000147158
0.000145477
0.000144644
0.00014466
0.000145386
0.000142205
0.000139272
0.000135982
0.000133309
0.000130935
0.000129331
0.000128202
0.000126757
0.000125231
0.000125189
0.000124883
0.000124922
0.000123749
0.000122586
0.000121307
0.000120106
0.000118895
0.000117967
0.000117012
0.000115849
0.000114724
0.000113734
0.000112747
0.000111501
0.000110125
0.000108457
0.000106711
0.000104641
0.000101792
9.8867e-05
9.42125e-05
8.73546e-05
7.58626e-05
5.23176e-05
1.4229e-07
0.000651714
0.00105318
0.00150738
0.00201426
0.00257119
0.00317638
0.00382515
0.00452405
0.00526083
0.0060419
0.00686206
0.00770658
0.00858026
0.00948728
0.0104194
0.0113549
0.0122977
0.0132404
0.0141688
0.0150937
0.0159959
0.0168719
0.0177104
0.0184918
0.0192356
0.0199128
)
;

boundaryField
{
    inlet
    {
        type            fixedValue;
        value           uniform 0;
    }
    outlet
    {
        type            zeroGradient;
    }
    yzfaces
    {
        type            empty;
    }
}


// ************************************************************************* //
