/*--------------------------------*- C++ -*----------------------------------*\
| =========                 |                                                 |
| \\      /  F ield         | foam-extend: Open Source CFD                    |
|  \\    /   O peration     | Version:     5.0                                |
|   \\  /    A nd           | Web:         http://www.foam-extend.org         |
|    \\/     M anipulation  |                                                 |
\*---------------------------------------------------------------------------*/
FoamFile
{
    version     2.0;
    format      ascii;
    class       volScalarField;
    location    "8";
    object      Ns;
}
// * * * * * * * * * * * * * * * * * * * * * * * * * * * * * * * * * * * * * //

dimensions      [0 -3 0 0 1 0 0];

internalField   nonuniform List<scalar> 
100
(
3.10051
0.0956236
0.386413
1.56602
1.23512
0.596995
8.64083
8.78256
2.00963
1.44381
5.74205
0.502502
0.407106
0.714811
1.78572
0.467981
0.340787
0.521315
0.927578
0.785853
0.529943
0.149837
1.04526
0.204472
0.0946095
1.75477
1.02768
0.411686
2.3572
6.10318
0.42403
0.296423
0.0823887
0.391767
0.240091
0.158758
0.180113
0.154154
0.638554
0.281826
0.462121
0.65122
0.277294
0.0751517
0.20086
0.342269
0.328674
0.0237061
0.157361
0.0639718
0.388809
1.07818
0.0836603
0.160719
0.206463
0.462417
0.888669
0.169703
0.52131
0.737695
0.742936
0.0653899
0.742863
0.261124
0.307818
0.839608
0.526612
0.941537
0.00832217
0.145661
1.77074
3.33049
15.0579
62.3602
2
2
2
2
2
2
2
2
2
2
2
2
2
2
2
2
2
2
2
2
2
2
2
2
2
2
)
;

boundaryField
{
    inlet
    {
        type            fixedValue;
        value           uniform 0;
    }
    outlet
    {
        type            zeroGradient;
    }
    yzfaces
    {
        type            empty;
    }
}


// ************************************************************************* //
