/*--------------------------------*- C++ -*----------------------------------*\
| =========                 |                                                 |
| \\      /  F ield         | foam-extend: Open Source CFD                    |
|  \\    /   O peration     | Version:     5.0                                |
|   \\  /    A nd           | Web:         http://www.foam-extend.org         |
|    \\/     M anipulation  |                                                 |
\*---------------------------------------------------------------------------*/
FoamFile
{
    version     2.0;
    format      ascii;
    class       surfaceScalarField;
    location    "8";
    object      phi;
}
// * * * * * * * * * * * * * * * * * * * * * * * * * * * * * * * * * * * * * //

dimensions      [0 3 -1 0 0 0 0];

internalField   nonuniform List<scalar> 
99
(
1.22681e-06
1.23003e-06
1.22969e-06
1.2486e-06
1.26002e-06
1.25435e-06
1.25038e-06
1.24857e-06
1.25011e-06
1.24664e-06
1.23916e-06
1.24388e-06
1.2384e-06
1.24415e-06
1.24109e-06
1.23094e-06
1.22882e-06
1.22653e-06
1.21654e-06
1.21819e-06
1.21592e-06
1.20875e-06
1.20562e-06
1.2169e-06
1.21731e-06
1.22154e-06
1.22514e-06
1.22505e-06
1.22523e-06
1.21571e-06
1.21491e-06
1.21878e-06
1.21428e-06
1.21484e-06
1.20864e-06
1.20652e-06
1.21471e-06
1.21565e-06
1.21527e-06
1.21504e-06
1.21233e-06
1.2077e-06
1.21097e-06
1.21532e-06
1.21814e-06
1.21722e-06
1.21315e-06
1.216e-06
1.21357e-06
1.21331e-06
1.21397e-06
1.21887e-06
1.218e-06
1.21471e-06
1.21597e-06
1.22046e-06
1.21711e-06
1.21747e-06
1.21712e-06
1.22155e-06
1.21968e-06
1.22043e-06
1.22138e-06
1.2233e-06
1.22384e-06
1.22478e-06
1.22208e-06
1.22265e-06
1.22118e-06
1.21918e-06
1.22335e-06
1.22333e-06
1.22012e-06
1.2205e-06
1.22336e-06
1.22283e-06
1.22347e-06
1.22352e-06
1.22465e-06
1.22671e-06
1.22593e-06
1.22691e-06
1.22738e-06
1.22529e-06
1.22385e-06
1.22424e-06
1.22651e-06
1.22607e-06
1.2268e-06
1.22721e-06
1.22703e-06
1.22726e-06
1.22727e-06
1.22886e-06
1.23044e-06
1.23022e-06
1.22828e-06
1.22889e-06
1.2303e-06
)
;

boundaryField
{
    inlet
    {
        type            calculated;
        value           uniform -1.225e-06;
    }
    outlet
    {
        type            calculated;
        value           uniform 1.23155e-06;
    }
    yzfaces
    {
        type            empty;
    }
}


// ************************************************************************* //
