/*--------------------------------*- C++ -*----------------------------------*\
| =========                 |                                                 |
| \\      /  F ield         | foam-extend: Open Source CFD                    |
|  \\    /   O peration     | Version:     5.0                                |
|   \\  /    A nd           | Web:         http://www.foam-extend.org         |
|    \\/     M anipulation  |                                                 |
\*---------------------------------------------------------------------------*/
FoamFile
{
    version     2.0;
    format      ascii;
    class       volScalarField;
    location    "9";
    object      alpha.gas;
}
// * * * * * * * * * * * * * * * * * * * * * * * * * * * * * * * * * * * * * //

dimensions      [0 0 0 0 0 0 0];

internalField   nonuniform List<scalar> 
100
(
0.168732
0.156736
0.147861
0.140788
0.134914
0.130376
0.126374
0.123229
0.119842
0.116723
0.113749
0.111076
0.108444
0.106028
0.104071
0.10234
0.10095
0.0995675
0.0982791
0.0968891
0.0954207
0.09427
0.0929781
0.0915863
0.0897223
0.0880737
0.0868155
0.0858546
0.0849446
0.0845587
0.0839669
0.083278
0.082792
0.082193
0.081277
0.0804137
0.079539
0.0785988
0.0774633
0.076395
0.0755215
0.0747961
0.0740176
0.0733353
0.0726654
0.0719258
0.0712284
0.0704398
0.0699046
0.0694577
0.068934
0.0683153
0.0676577
0.066902
0.0662829
0.0657599
0.065309
0.0648022
0.0641353
0.0635024
0.0628687
0.0620848
0.0612831
0.0602981
0.0594254
0.0584276
0.057299
0.0561452
0.0545272
0.0527059
0.0503322
0.0466806
0.0404719
0.0283263
0.0283709
0.0284497
0.0284243
0.0282677
0.0280817
0.0279354
0.0278645
0.0278567
0.0279151
0.0280234
0.0281727
0.028352
0.0285452
0.0287595
0.0290158
0.0292677
0.0295502
0.0298338
0.0301392
0.0304531
0.0307633
0.0310808
0.0314087
0.0317498
0.0320675
0.0323599
)
;

boundaryField
{
    inlet
    {
        type            fixedValue;
        value           uniform 0.2;
    }
    outlet
    {
        type            zeroGradient;
    }
    yzfaces
    {
        type            empty;
    }
}


// ************************************************************************* //
