/*--------------------------------*- C++ -*----------------------------------*\
| =========                 |                                                 |
| \\      /  F ield         | foam-extend: Open Source CFD                    |
|  \\    /   O peration     | Version:     5.0                                |
|   \\  /    A nd           | Web:         http://www.foam-extend.org         |
|    \\/     M anipulation  |                                                 |
\*---------------------------------------------------------------------------*/
FoamFile
{
    version     2.0;
    format      ascii;
    class       volScalarField;
    location    "9";
    object      Cl.water;
}
// * * * * * * * * * * * * * * * * * * * * * * * * * * * * * * * * * * * * * //

dimensions      [0 0 0 0 0 0 0];

internalField   nonuniform List<scalar> 
100
(
0.00356964
0.00494924
0.00594212
0.00666027
0.00730129
0.00785153
0.00834187
0.00873328
0.00906869
0.0094227
0.00980607
0.0101232
0.0103986
0.0106777
0.0109337
0.0111313
0.0112996
0.0114703
0.0116521
0.0118176
0.0119618
0.0120943
0.0122379
0.0123675
0.0125147
0.0127589
0.0129432
0.0130602
0.0131903
0.0132485
0.0133119
0.0133769
0.013434
0.0135069
0.0135895
0.0136958
0.0137812
0.0138814
0.0139982
0.0141147
0.0142213
0.0143155
0.0143991
0.014477
0.0145576
0.014655
0.0147548
0.0148596
0.014933
0.0149842
0.0150474
0.015104
0.0151949
0.0152807
0.0153519
0.0154103
0.0154616
0.0155143
0.015583
0.0156704
0.0157376
0.0158264
0.0159222
0.0160446
0.0161388
0.0162419
0.0163627
0.0165165
0.0167123
0.0169196
0.01718
0.017595
0.0182679
0.0195504
0.0197463
0.0197109
0.0197141
0.0197313
0.0197512
0.0197679
0.0197739
0.0197738
0.0197634
0.0197467
0.0197269
0.0197078
0.0196858
0.0196611
0.0196299
0.0196036
0.0195684
0.0195397
0.0195049
0.0194687
0.0194378
0.0194007
0.0193604
0.0193213
0.0192872
0.0192613
)
;

boundaryField
{
    inlet
    {
        type            fixedValue;
        value           uniform 0;
    }
    outlet
    {
        type            zeroGradient;
    }
    yzfaces
    {
        type            empty;
    }
}


// ************************************************************************* //
