/*--------------------------------*- C++ -*----------------------------------*\
| =========                 |                                                 |
| \\      /  F ield         | foam-extend: Open Source CFD                    |
|  \\    /   O peration     | Version:     5.0                                |
|   \\  /    A nd           | Web:         http://www.foam-extend.org         |
|    \\/     M anipulation  |                                                 |
\*---------------------------------------------------------------------------*/
FoamFile
{
    version     2.0;
    format      ascii;
    class       volScalarField;
    location    "9";
    object      CO2.water;
}
// * * * * * * * * * * * * * * * * * * * * * * * * * * * * * * * * * * * * * //

dimensions      [0 0 0 0 0 0 0];

internalField   nonuniform List<scalar> 
100
(
0.000816262
0.00113217
0.00135869
0.00152352
0.00167083
0.00179614
0.00190789
0.00199682
0.00207394
0.00215518
0.00224236
0.00231534
0.00237837
0.00244158
0.00250052
0.0025464
0.00258456
0.00262334
0.0026656
0.00270314
0.0027356
0.00276672
0.00279908
0.00282751
0.00286256
0.00291762
0.00295932
0.00298616
0.00301695
0.00302972
0.00304485
0.0030591
0.0030731
0.00308994
0.00310776
0.00313228
0.00315123
0.0031747
0.00320164
0.00322817
0.00325062
0.00327313
0.00329225
0.00331071
0.00333128
0.00335362
0.00337525
0.00339817
0.0034144
0.00342721
0.00343987
0.00345222
0.00347458
0.00349461
0.00351136
0.00352489
0.00353623
0.00354904
0.00356466
0.00358426
0.00360006
0.00362016
0.00364118
0.00366844
0.00369163
0.0037147
0.003741
0.00377739
0.00382054
0.00386792
0.00392859
0.00402349
0.00417741
0.00447069
0.00161073
0.000530276
0.000176084
5.95599e-05
2.02771e-05
6.86868e-06
2.29957e-06
7.59373e-07
2.4713e-07
7.9241e-08
2.50274e-08
7.79098e-09
2.38741e-09
7.20182e-10
2.13914e-10
6.25088e-11
1.79705e-11
5.08299e-12
1.41534e-12
3.87819e-13
1.04631e-13
2.7845e-14
7.31699e-15
1.90294e-15
4.92206e-16
1.24396e-16
)
;

boundaryField
{
    inlet
    {
        type            fixedValue;
        value           uniform 0;
    }
    outlet
    {
        type            zeroGradient;
    }
    yzfaces
    {
        type            empty;
    }
}


// ************************************************************************* //
