/*--------------------------------*- C++ -*----------------------------------*\
| =========                 |                                                 |
| \\      /  F ield         | foam-extend: Open Source CFD                    |
|  \\    /   O peration     | Version:     5.0                                |
|   \\  /    A nd           | Web:         http://www.foam-extend.org         |
|    \\/     M anipulation  |                                                 |
\*---------------------------------------------------------------------------*/
FoamFile
{
    version     2.0;
    format      ascii;
    class       volScalarField;
    location    "9";
    object      CO2.gas;
}
// * * * * * * * * * * * * * * * * * * * * * * * * * * * * * * * * * * * * * //

dimensions      [0 0 0 0 0 0 0];

internalField   nonuniform List<scalar> 
100
(
0.167682
0.156069
0.146588
0.137739
0.131697
0.127923
0.124538
0.121967
0.117983
0.114935
0.112565
0.11007
0.107212
0.104847
0.103233
0.101555
0.100224
0.0989623
0.0979474
0.0966338
0.0949478
0.093774
0.0924674
0.0908354
0.088516
0.08729
0.0862987
0.085396
0.0846689
0.084394
0.0837284
0.0829373
0.0824892
0.0819145
0.0808304
0.0800219
0.0790634
0.0780916
0.0768961
0.0758137
0.0749784
0.0743163
0.0735085
0.0728385
0.0722421
0.071581
0.0709373
0.0702008
0.0697089
0.0692691
0.0687556
0.0680535
0.0675028
0.0667492
0.0661406
0.0656318
0.0651636
0.0646429
0.0639367
0.0633787
0.0627047
0.0619271
0.0611252
0.0601732
0.0592826
0.058259
0.0570875
0.0560131
0.0544211
0.0526033
0.0502342
0.0465897
0.040393
0.0282712
0.0282653
0.0283808
0.0283546
0.0281935
0.0279979
0.0278374
0.0277517
0.0277247
0.0277593
0.0278347
0.027948
0.0280734
0.0282078
0.0283501
0.0285251
0.0286729
0.0288385
0.0289747
0.0291158
0.0292388
0.0293136
0.0293816
0.0294193
0.0294371
0.0293726
0.0292381
)
;

boundaryField
{
    inlet
    {
        type            fixedValue;
        value           uniform 0.2;
    }
    outlet
    {
        type            zeroGradient;
    }
    yzfaces
    {
        type            empty;
    }
}


// ************************************************************************* //
