/*--------------------------------*- C++ -*----------------------------------*\
| =========                 |                                                 |
| \\      /  F ield         | foam-extend: Open Source CFD                    |
|  \\    /   O peration     | Version:     5.0                                |
|   \\  /    A nd           | Web:         http://www.foam-extend.org         |
|    \\/     M anipulation  |                                                 |
\*---------------------------------------------------------------------------*/
FoamFile
{
    version     2.0;
    format      ascii;
    class       volScalarField;
    location    "9";
    object      H2O.water;
}
// * * * * * * * * * * * * * * * * * * * * * * * * * * * * * * * * * * * * * //

dimensions      [0 0 0 0 0 0 0];

internalField   nonuniform List<scalar> 
100
(
0.0231251
0.0320727
0.0384915
0.0431506
0.0473356
0.0508986
0.0540531
0.056598
0.0587728
0.0610667
0.0635586
0.065609
0.0673872
0.0691765
0.0708362
0.07215
0.073218
0.0743404
0.0755076
0.0766115
0.0775248
0.0783491
0.0792923
0.0801111
0.0810603
0.0826596
0.0838339
0.0846013
0.085468
0.0858312
0.0862568
0.0866625
0.0870689
0.0875364
0.0880186
0.0887154
0.0892634
0.0899188
0.0906857
0.0914529
0.0921407
0.0927486
0.0932793
0.0937883
0.0943855
0.095036
0.09561
0.0962597
0.0967165
0.0970575
0.0974583
0.0977851
0.098439
0.0989985
0.0994754
0.0998591
0.100193
0.100551
0.100978
0.101541
0.101964
0.102563
0.10315
0.103934
0.104548
0.105241
0.105998
0.106996
0.108235
0.109577
0.111296
0.113984
0.118345
0.126653
0.130534
0.131608
0.131988
0.13223
0.132413
0.132536
0.132597
0.132604
0.132563
0.13248
0.13237
0.132225
0.132077
0.131911
0.13172
0.131522
0.131306
0.131082
0.13085
0.13061
0.130359
0.130119
0.129868
0.129614
0.129365
0.129131
)
;

boundaryField
{
    inlet
    {
        type            fixedValue;
        value           uniform 0;
    }
    outlet
    {
        type            zeroGradient;
    }
    yzfaces
    {
        type            empty;
    }
}


// ************************************************************************* //
