/*--------------------------------*- C++ -*----------------------------------*\
| =========                 |                                                 |
| \\      /  F ield         | foam-extend: Open Source CFD                    |
|  \\    /   O peration     | Version:     5.0                                |
|   \\  /    A nd           | Web:         http://www.foam-extend.org         |
|    \\/     M anipulation  |                                                 |
\*---------------------------------------------------------------------------*/
FoamFile
{
    version     2.0;
    format      ascii;
    class       volScalarField;
    location    "9";
    object      H2O.gas;
}
// * * * * * * * * * * * * * * * * * * * * * * * * * * * * * * * * * * * * * //

dimensions      [0 0 0 0 0 0 0];

internalField   nonuniform List<scalar> 
100
(
3.3643e-05
8.51926e-05
0.000130426
0.000155559
0.000164917
0.000162258
0.000151149
0.000135183
0.000116186
9.85293e-05
8.30348e-05
7.0296e-05
6.06954e-05
5.47282e-05
5.26128e-05
5.53147e-05
6.41403e-05
7.73891e-05
9.13783e-05
0.000103036
0.000111198
0.0001165
0.000119295
0.000120653
0.000120396
0.00012167
0.00012365
0.000126035
0.000132995
0.000164676
0.000159572
0.000160616
0.000160473
0.000159642
0.000157493
0.000155829
0.000153854
0.000151974
0.000149883
0.000147803
0.000146259
0.000145003
0.000143414
0.000142055
0.000140754
0.000139318
0.000138199
0.000136876
0.00013613
0.00013524
0.000134222
0.000132942
0.000131813
0.000130283
0.000129124
0.000128065
0.000127232
0.000126244
0.000124977
0.000123669
0.00012232
0.000120851
0.000119215
0.000117354
0.000115627
0.000113661
0.000111448
0.000109324
0.00010619
0.000102643
9.80205e-05
9.09092e-05
7.88178e-05
5.51647e-05
5.76345e-05
6.17061e-05
6.70424e-05
7.40473e-05
8.33408e-05
9.55765e-05
0.000111515
0.000131869
0.000157519
0.00018957
0.000229338
0.000277982
0.000336994
0.000408286
0.000494055
0.000595841
0.000716478
0.000857707
0.0010238
0.00121743
0.00143961
0.001695
0.00198679
0.00231932
0.00269413
0.00311522
)
;

boundaryField
{
    inlet
    {
        type            fixedValue;
        value           uniform 0;
    }
    outlet
    {
        type            zeroGradient;
    }
    yzfaces
    {
        type            empty;
    }
}


// ************************************************************************* //
