/*--------------------------------*- C++ -*----------------------------------*\
| =========                 |                                                 |
| \\      /  F ield         | foam-extend: Open Source CFD                    |
|  \\    /   O peration     | Version:     5.0                                |
|   \\  /    A nd           | Web:         http://www.foam-extend.org         |
|    \\/     M anipulation  |                                                 |
\*---------------------------------------------------------------------------*/
FoamFile
{
    version     2.0;
    format      ascii;
    class       volScalarField;
    location    "9";
    object      Na.water;
}
// * * * * * * * * * * * * * * * * * * * * * * * * * * * * * * * * * * * * * //

dimensions      [0 0 0 0 0 0 0];

internalField   nonuniform List<scalar> 
100
(
0.00356822
0.00494953
0.00594407
0.0066608
0.00730653
0.00785424
0.00834095
0.00874071
0.00907633
0.00942782
0.00980983
0.0101279
0.0104033
0.0106771
0.0109349
0.0111358
0.011299
0.0114661
0.0116469
0.0118166
0.0119606
0.0120944
0.0122421
0.0123615
0.0125055
0.0127489
0.0129356
0.0130556
0.0131869
0.0132445
0.0133106
0.0133712
0.0134305
0.0135034
0.0135848
0.013692
0.013778
0.0138776
0.0139911
0.0141079
0.0142118
0.0143062
0.0143893
0.014476
0.0145651
0.0146637
0.014755
0.0148548
0.0149208
0.0149732
0.0150365
0.015095
0.0151885
0.0152793
0.0153519
0.0154127
0.0154624
0.0155145
0.0155827
0.0156718
0.0157383
0.015824
0.0159163
0.0160376
0.0161316
0.0162417
0.0163501
0.0165067
0.0166961
0.016903
0.0171732
0.017588
0.018261
0.019543
0.0197385
0.0197015
0.0196976
0.0197114
0.0197338
0.0197535
0.019762
0.0197649
0.0197581
0.0197497
0.0197298
0.0197155
0.0196915
0.0196681
0.0196344
0.019607
0.0195754
0.0195447
0.0195062
0.0194678
0.0194398
0.019399
0.0193627
0.0193152
0.0192806
0.0192481
)
;

boundaryField
{
    inlet
    {
        type            fixedValue;
        value           uniform 0;
    }
    outlet
    {
        type            zeroGradient;
    }
    yzfaces
    {
        type            empty;
    }
}


// ************************************************************************* //
