/*--------------------------------*- C++ -*----------------------------------*\
| =========                 |                                                 |
| \\      /  F ield         | foam-extend: Open Source CFD                    |
|  \\    /   O peration     | Version:     5.0                                |
|   \\  /    A nd           | Web:         http://www.foam-extend.org         |
|    \\/     M anipulation  |                                                 |
\*---------------------------------------------------------------------------*/
FoamFile
{
    version     2.0;
    format      ascii;
    class       volScalarField;
    location    "9";
    object      Ns;
}
// * * * * * * * * * * * * * * * * * * * * * * * * * * * * * * * * * * * * * //

dimensions      [0 -3 0 0 1 0 0];

internalField   nonuniform List<scalar> 
100
(
0.188767
0.564995
0.209862
1.2177
0.905
0.26502
3.26736
0.551699
0.154177
0.432682
1.00067
0.743549
0.276955
0.103848
0.49506
1.2284
0.296797
0.396771
0.464081
0.00353546
0.869192
1.59519
0.723765
1.32578
0.791549
1.06187
0.118938
0.408535
0.0631243
3.22801
1.71312
1.62756
0.126671
0.809732
1.02849
0.508762
0.105095
1.65913
0.788189
0.137609
0.531862
0.221047
0.482118
0.299489
0.844229
0.420507
0.577689
0.243975
0.520442
0.604774
0.706739
0.667748
0.0621082
0.047899
0.369447
1.2226
0.0401255
0.331519
0.696631
1.10408
0.197641
0.80197
0.650256
0.141777
0.264782
0.38305
0.454179
1.00299
0.326138
0.975517
3.33031
4.74563
17.6241
53.8164
173.894
169.342
173.197
174.013
175.89
169.013
175.371
172.554
172.872
168.393
172.282
172.901
167.44
171.264
178.856
169.795
177.956
177.587
168.409
177.968
172.056
172.831
179.494
170.985
174.777
162.699
)
;

boundaryField
{
    inlet
    {
        type            fixedValue;
        value           uniform 0;
    }
    outlet
    {
        type            zeroGradient;
    }
    yzfaces
    {
        type            empty;
    }
}


// ************************************************************************* //
