/*--------------------------------*- C++ -*----------------------------------*\
| =========                 |                                                 |
| \\      /  F ield         | foam-extend: Open Source CFD                    |
|  \\    /   O peration     | Version:     5.0                                |
|   \\  /    A nd           | Web:         http://www.foam-extend.org         |
|    \\/     M anipulation  |                                                 |
\*---------------------------------------------------------------------------*/
FoamFile
{
    version     2.0;
    format      ascii;
    class       surfaceScalarField;
    location    "9";
    object      phi;
}
// * * * * * * * * * * * * * * * * * * * * * * * * * * * * * * * * * * * * * //

dimensions      [0 3 -1 0 0 0 0];

internalField   nonuniform List<scalar> 
99
(
1.22391e-06
1.21083e-06
1.21204e-06
1.20213e-06
1.20881e-06
1.21597e-06
1.21621e-06
1.20932e-06
1.21603e-06
1.22184e-06
1.22032e-06
1.22154e-06
1.21844e-06
1.22451e-06
1.22906e-06
1.22834e-06
1.23252e-06
1.23818e-06
1.24683e-06
1.23708e-06
1.24526e-06
1.23959e-06
1.2321e-06
1.23052e-06
1.23238e-06
1.23263e-06
1.23349e-06
1.23395e-06
1.23551e-06
1.23267e-06
1.23733e-06
1.24217e-06
1.24161e-06
1.24074e-06
1.24014e-06
1.24583e-06
1.25097e-06
1.25154e-06
1.25012e-06
1.25539e-06
1.26058e-06
1.25563e-06
1.25702e-06
1.26108e-06
1.26101e-06
1.26327e-06
1.26205e-06
1.26278e-06
1.26459e-06
1.26401e-06
1.26403e-06
1.26171e-06
1.25912e-06
1.26326e-06
1.26233e-06
1.25821e-06
1.25976e-06
1.25578e-06
1.2546e-06
1.2536e-06
1.2505e-06
1.25083e-06
1.24773e-06
1.24683e-06
1.2484e-06
1.24737e-06
1.25272e-06
1.25176e-06
1.25177e-06
1.25149e-06
1.24772e-06
1.24661e-06
1.24271e-06
1.2336e-06
1.2436e-06
1.24539e-06
1.24585e-06
1.24554e-06
1.24499e-06
1.24531e-06
1.24501e-06
1.24495e-06
1.24412e-06
1.24397e-06
1.24328e-06
1.24276e-06
1.24256e-06
1.24358e-06
1.24216e-06
1.24263e-06
1.24056e-06
1.24194e-06
1.24174e-06
1.24106e-06
1.2427e-06
1.24341e-06
1.24326e-06
1.24246e-06
1.24233e-06
)
;

boundaryField
{
    inlet
    {
        type            calculated;
        value           uniform -1.225e-06;
    }
    outlet
    {
        type            calculated;
        value           uniform 1.24317e-06;
    }
    yzfaces
    {
        type            empty;
    }
}


// ************************************************************************* //
