/*--------------------------------*- C++ -*----------------------------------*\
| =========                 |                                                 |
| \\      /  F ield         | foam-extend: Open Source CFD                    |
|  \\    /   O peration     | Version:     5.0                                |
|   \\  /    A nd           | Web:         http://www.foam-extend.org         |
|    \\/     M anipulation  |                                                 |
\*---------------------------------------------------------------------------*/
FoamFile
{
    version     2.0;
    format      ascii;
    class       volVectorField;
    location    "9";
    object      U.gas;
}
// * * * * * * * * * * * * * * * * * * * * * * * * * * * * * * * * * * * * * //

dimensions      [0 1 -1 0 0 0 0];

internalField   nonuniform List<vector> 
100
(
(0.00591816 0 0)
(0.0063206 0 0)
(0.00665034 0 0)
(0.00693969 0 0)
(0.00721011 0 0)
(0.00748125 0 0)
(0.00771867 0 0)
(0.00787141 0 0)
(0.00806895 0 0)
(0.00829942 0 0)
(0.00850122 0 0)
(0.00867332 0 0)
(0.00884379 0 0)
(0.00902041 0 0)
(0.0091957 0 0)
(0.00933421 0 0)
(0.00944664 0 0)
(0.00958829 0 0)
(0.00974257 0 0)
(0.00984771 0 0)
(0.00995792 0 0)
(0.0100558 0 0)
(0.0101083 0 0)
(0.0101865 0 0)
(0.0103487 0 0)
(0.0104925 0 0)
(0.0105974 0 0)
(0.0106787 0 0)
(0.0107641 0 0)
(0.0107807 0 0)
(0.0108431 0 0)
(0.0109472 0 0)
(0.0110045 0 0)
(0.0110527 0 0)
(0.0111337 0 0)
(0.0112311 0 0)
(0.0113587 0 0)
(0.0114709 0 0)
(0.0115745 0 0)
(0.0116869 0 0)
(0.011809 0 0)
(0.0118697 0 0)
(0.0119234 0 0)
(0.012008 0 0)
(0.012088 0 0)
(0.0121682 0 0)
(0.0122345 0 0)
(0.0123046 0 0)
(0.0123535 0 0)
(0.0123957 0 0)
(0.0124418 0 0)
(0.0124897 0 0)
(0.0125238 0 0)
(0.0126015 0 0)
(0.0126646 0 0)
(0.0126737 0 0)
(0.0127007 0 0)
(0.0127326 0 0)
(0.0127699 0 0)
(0.0128046 0 0)
(0.0128391 0 0)
(0.0128939 0 0)
(0.0129421 0 0)
(0.0130076 0 0)
(0.0130679 0 0)
(0.0131514 0 0)
(0.0132607 0 0)
(0.0133623 0 0)
(0.0134859 0 0)
(0.0136152 0 0)
(0.013756 0 0)
(0.0140043 0 0)
(0.0144072 0 0)
(0.0151307 0 0)
(0.0119317 0 0)
(0.0116223 0 0)
(0.0116614 0 0)
(0.0116664 0 0)
(0.0116278 0 0)
(0.0115805 0 0)
(0.011537 0 0)
(0.0115127 0 0)
(0.0115018 0 0)
(0.0115065 0 0)
(0.011526 0 0)
(0.0115544 0 0)
(0.0115914 0 0)
(0.0116377 0 0)
(0.0116805 0 0)
(0.0117346 0 0)
(0.0117804 0 0)
(0.0118378 0 0)
(0.0119017 0 0)
(0.011958 0 0)
(0.0120247 0 0)
(0.0120965 0 0)
(0.0121603 0 0)
(0.0122154 0 0)
(0.0122749 0 0)
(0.012331 0 0)
)
;

boundaryField
{
    inlet
    {
        type            fixedValue;
        value           uniform (0.005 0 0);
    }
    outlet
    {
        type            zeroGradient;
    }
    yzfaces
    {
        type            empty;
    }
}


// ************************************************************************* //
