/*--------------------------------*- C++ -*----------------------------------*\
| =========                 |                                                 |
| \\      /  F ield         | foam-extend: Open Source CFD                    |
|  \\    /   O peration     | Version:     5.0                                |
|   \\  /    A nd           | Web:         http://www.foam-extend.org         |
|    \\/     M anipulation  |                                                 |
\*---------------------------------------------------------------------------*/
FoamFile
{
    version     2.0;
    format      ascii;
    class       volVectorField;
    location    "9";
    object      U.water;
}
// * * * * * * * * * * * * * * * * * * * * * * * * * * * * * * * * * * * * * //

dimensions      [0 1 -1 0 0 0 0];

internalField   nonuniform List<vector> 
100
(
(3.10319e-05 0 0)
(7.18477e-05 0 0)
(0.00010746 0 0)
(0.000140988 0 0)
(0.00017383 0 0)
(0.000205814 0 0)
(0.000234773 0 0)
(0.000260827 0 0)
(0.000286151 0 0)
(0.000316081 0 0)
(0.000345504 0 0)
(0.000374293 0 0)
(0.000402559 0 0)
(0.000433149 0 0)
(0.000463396 0 0)
(0.000489013 0 0)
(0.000512859 0 0)
(0.000535363 0 0)
(0.000558398 0 0)
(0.000579046 0 0)
(0.000602487 0 0)
(0.000626727 0 0)
(0.000644725 0 0)
(0.000666029 0 0)
(0.000696029 0 0)
(0.000732768 0 0)
(0.000764724 0 0)
(0.000791135 0 0)
(0.000813403 0 0)
(0.00082968 0 0)
(0.00084202 0 0)
(0.00085997 0 0)
(0.000876257 0 0)
(0.000889154 0 0)
(0.000907025 0 0)
(0.000932741 0 0)
(0.000960028 0 0)
(0.000987084 0 0)
(0.00101587 0 0)
(0.00105042 0 0)
(0.00108525 0 0)
(0.00111194 0 0)
(0.00113532 0 0)
(0.001162 0 0)
(0.00118621 0 0)
(0.0012111 0 0)
(0.00123703 0 0)
(0.00126437 0 0)
(0.00129144 0 0)
(0.00131072 0 0)
(0.00132903 0 0)
(0.00134925 0 0)
(0.00137208 0 0)
(0.00140105 0 0)
(0.00143142 0 0)
(0.00145295 0 0)
(0.00147209 0 0)
(0.00149155 0 0)
(0.00151358 0 0)
(0.00154114 0 0)
(0.00156714 0 0)
(0.00159834 0 0)
(0.00163417 0 0)
(0.00167393 0 0)
(0.00172077 0 0)
(0.0017678 0 0)
(0.00182632 0 0)
(0.00189084 0 0)
(0.00196381 0 0)
(0.00206186 0 0)
(0.00218389 0 0)
(0.00236483 0 0)
(0.00268313 0 0)
(0.00331015 0 0)
(0.00391885 0 0)
(0.00399453 0 0)
(0.00399455 0 0)
(0.00400107 0 0)
(0.00401361 0 0)
(0.00402721 0 0)
(0.00403744 0 0)
(0.00404084 0 0)
(0.00403794 0 0)
(0.00403017 0 0)
(0.00401849 0 0)
(0.00400306 0 0)
(0.00398669 0 0)
(0.00397135 0 0)
(0.00395165 0 0)
(0.00392868 0 0)
(0.00390399 0 0)
(0.00387915 0 0)
(0.00385632 0 0)
(0.00382919 0 0)
(0.0038045 0 0)
(0.00378152 0 0)
(0.00375481 0 0)
(0.00372508 0 0)
(0.00369539 0 0)
(0.00367132 0 0)
)
;

boundaryField
{
    inlet
    {
        type            fixedValue;
        value           uniform (0 0 0);
    }
    outlet
    {
        type            zeroGradient;
    }
    yzfaces
    {
        type            empty;
    }
}


// ************************************************************************* //
