/*--------------------------------*- C++ -*----------------------------------*\
| =========                 |                                                 |
| \\      /  F ield         | foam-extend: Open Source CFD                    |
|  \\    /   O peration     | Version:     5.0                                |
|   \\  /    A nd           | Web:         http://www.foam-extend.org         |
|    \\/     M anipulation  |                                                 |
\*---------------------------------------------------------------------------*/
FoamFile
{
    version     2.0;
    format      ascii;
    class       volScalarField;
    location    "8";
    object      CO2.gas;
}
// * * * * * * * * * * * * * * * * * * * * * * * * * * * * * * * * * * * * * //

dimensions      [0 0 0 0 0 0 0];

internalField   nonuniform List<scalar> 
100
(
0.164818
0.152553
0.143443
0.13699
0.134891
0.13248
0.128757
0.124294
0.118804
0.114995
0.112196
0.109608
0.106445
0.104098
0.101886
0.0993314
0.0974479
0.0960262
0.0940559
0.092494
0.0912348
0.0895409
0.0879456
0.087322
0.086827
0.0867068
0.0858891
0.0847083
0.0834688
0.0827633
0.0816639
0.0804721
0.0796452
0.078748
0.0775234
0.0767059
0.0760537
0.0753922
0.0748614
0.0741282
0.0734688
0.0726788
0.0720079
0.0714025
0.0708017
0.0703165
0.0697741
0.0691313
0.0685646
0.0679424
0.0672984
0.0667884
0.0662844
0.0658201
0.0653333
0.064869
0.0644127
0.0638358
0.0632647
0.0627237
0.0622985
0.0617887
0.061419
0.0609587
0.0604973
0.0600261
0.0595367
0.0590725
0.0587181
0.0583371
0.0579255
0.0575181
0.0570459
0.0566263
0.0563007
0.055924
0.0555126
0.0552114
0.054856
0.0545422
0.0541701
0.0538161
0.0534531
0.0531278
0.0528216
0.0524926
0.0521574
0.051768
0.0514507
0.0511089
0.0507011
0.0503005
0.0498883
0.0494859
0.0490971
0.0487038
0.0482702
0.0478559
0.047452
0.0468993
)
;

boundaryField
{
    inlet
    {
        type            fixedValue;
        value           uniform 0.2;
    }
    outlet
    {
        type            zeroGradient;
    }
    yzfaces
    {
        type            empty;
    }
}


// ************************************************************************* //
