/*--------------------------------*- C++ -*----------------------------------*\
| =========                 |                                                 |
| \\      /  F ield         | foam-extend: Open Source CFD                    |
|  \\    /   O peration     | Version:     5.0                                |
|   \\  /    A nd           | Web:         http://www.foam-extend.org         |
|    \\/     M anipulation  |                                                 |
\*---------------------------------------------------------------------------*/
FoamFile
{
    version     2.0;
    format      ascii;
    class       volScalarField;
    location    "8";
    object      H2O.water;
}
// * * * * * * * * * * * * * * * * * * * * * * * * * * * * * * * * * * * * * //

dimensions      [0 0 0 0 0 0 0];

internalField   nonuniform List<scalar> 
100
(
0.0259384
0.0350821
0.0418737
0.046685
0.0482494
0.0500475
0.052823
0.0561501
0.0602426
0.0630826
0.0651694
0.0670983
0.069457
0.0712064
0.0728556
0.0747601
0.0761642
0.0772241
0.078693
0.0798574
0.0807962
0.082059
0.0832484
0.0837133
0.0840823
0.0841719
0.0847815
0.0856618
0.0865859
0.0871119
0.0879315
0.08882
0.0894365
0.0901054
0.0910183
0.0916278
0.092114
0.0926072
0.0930029
0.0935495
0.0940411
0.0946301
0.0951302
0.0955816
0.0960295
0.0963912
0.0967956
0.0972748
0.0976973
0.0981612
0.0986413
0.0990215
0.0993973
0.0997434
0.100106
0.100452
0.100793
0.101223
0.101648
0.102052
0.102369
0.102749
0.103025
0.103368
0.103712
0.104063
0.104428
0.104774
0.105038
0.105322
0.105629
0.105933
0.106285
0.106598
0.10684
0.107121
0.107428
0.107652
0.107917
0.108151
0.108429
0.108693
0.108963
0.109206
0.109434
0.109679
0.109929
0.110219
0.110456
0.110711
0.111015
0.111314
0.111621
0.111921
0.112211
0.112504
0.112827
0.113136
0.113437
0.113849
)
;

boundaryField
{
    inlet
    {
        type            fixedValue;
        value           uniform 0;
    }
    outlet
    {
        type            zeroGradient;
    }
    yzfaces
    {
        type            empty;
    }
}


// ************************************************************************* //
