/*--------------------------------*- C++ -*----------------------------------*\
| =========                 |                                                 |
| \\      /  F ield         | foam-extend: Open Source CFD                    |
|  \\    /   O peration     | Version:     5.0                                |
|   \\  /    A nd           | Web:         http://www.foam-extend.org         |
|    \\/     M anipulation  |                                                 |
\*---------------------------------------------------------------------------*/
FoamFile
{
    version     2.0;
    format      ascii;
    class       volScalarField;
    location    "8";
    object      Ns;
}
// * * * * * * * * * * * * * * * * * * * * * * * * * * * * * * * * * * * * * //

dimensions      [0 -3 0 0 1 0 0];

internalField   nonuniform List<scalar> 
100
(
33.752
93.4372
86.7969
160.695
308.126
242.775
222.948
204.671
78.8393
123.558
143.882
79.2597
81.1407
114.504
88.1709
92.2055
65.0623
86.8436
92.349
99.479
106.915
89.2538
81.5311
131.028
103.192
154.835
83.3444
110.876
100.056
143.535
99.1973
107.177
122.205
135.926
102.86
111.481
106.62
105.321
120.558
115.863
139.893
109.121
125.697
118.928
98.135
116.423
109.874
122.631
110.504
139.86
119.058
110.542
106.656
113.807
123.944
145.463
112.898
130.637
98.5849
112.63
98.6779
105.714
112.655
121.017
104.836
134.01
118.197
133.658
123.862
128.841
120.649
112.25
137.542
123.093
120.673
116.853
119.501
135.501
116.416
118.758
122.693
133.359
116.394
121.383
122.724
118.976
124.975
113.269
123.815
120.65
116.248
115.924
120.259
117.856
126.544
114.233
118.215
111.216
104.342
113.177
)
;

boundaryField
{
    inlet
    {
        type            fixedValue;
        value           uniform 0;
    }
    outlet
    {
        type            zeroGradient;
    }
    yzfaces
    {
        type            empty;
    }
}


// ************************************************************************* //
