/*--------------------------------*- C++ -*----------------------------------*\
| =========                 |                                                 |
| \\      /  F ield         | foam-extend: Open Source CFD                    |
|  \\    /   O peration     | Version:     5.0                                |
|   \\  /    A nd           | Web:         http://www.foam-extend.org         |
|    \\/     M anipulation  |                                                 |
\*---------------------------------------------------------------------------*/
FoamFile
{
    version     2.0;
    format      ascii;
    class       volScalarField;
    location    "8.85412";
    object      CO2.water;
}
// * * * * * * * * * * * * * * * * * * * * * * * * * * * * * * * * * * * * * //

dimensions      [0 0 0 0 0 0 0];

internalField   nonuniform List<scalar> 
100
(
6.04197e-05
1.43495e-05
2.82282e-06
5.02667e-07
8.39151e-08
1.33858e-08
2.06308e-09
3.09421e-10
4.53754e-11
6.53008e-12
9.24685e-13
1.29101e-13
1.77977e-14
2.42548e-15
3.27145e-16
4.37112e-17
5.78971e-18
7.60627e-19
9.917e-20
1.28389e-20
1.65112e-21
2.1097e-22
2.67949e-23
3.3841e-24
4.25033e-25
5.30987e-26
6.60105e-27
8.16653e-28
1.00556e-28
1.23275e-29
1.5047e-30
1.82888e-31
2.21397e-32
2.66962e-33
3.20645e-34
3.83753e-35
4.5757e-36
5.43664e-37
6.43826e-38
7.59795e-39
8.93816e-40
1.04803e-40
1.22505e-41
1.42774e-42
1.65909e-43
1.92218e-44
2.22077e-45
2.55857e-46
2.93969e-47
3.36858e-48
3.84967e-49
4.38862e-50
4.98972e-51
5.65957e-52
6.40356e-53
7.22827e-54
8.13954e-55
9.14362e-56
1.02493e-56
1.14615e-57
1.27899e-58
1.42407e-59
1.58218e-60
1.75408e-61
1.94048e-62
2.14236e-63
2.36052e-64
2.59599e-65
2.84937e-66
3.12135e-67
3.41262e-68
3.72391e-69
4.05604e-70
4.40971e-71
4.78619e-72
5.18548e-73
5.60833e-74
6.05485e-75
6.52563e-76
7.02119e-77
7.5421e-78
8.08714e-79
8.65859e-80
9.25498e-81
9.87586e-82
1.05232e-82
1.11937e-83
1.18895e-84
1.26088e-85
1.33538e-86
1.4122e-87
1.49131e-88
1.57229e-89
1.65534e-90
1.74035e-91
1.82725e-92
1.91566e-93
2.00572e-94
2.09717e-95
2.18969e-96
)
;

boundaryField
{
    inlet
    {
        type            fixedValue;
        value           uniform 0;
    }
    outlet
    {
        type            zeroGradient;
    }
    yzfaces
    {
        type            empty;
    }
}


// ************************************************************************* //
