/*--------------------------------*- C++ -*----------------------------------*\
| =========                 |                                                 |
| \\      /  F ield         | foam-extend: Open Source CFD                    |
|  \\    /   O peration     | Version:     5.0                                |
|   \\  /    A nd           | Web:         http://www.foam-extend.org         |
|    \\/     M anipulation  |                                                 |
\*---------------------------------------------------------------------------*/
FoamFile
{
    version     2.0;
    format      ascii;
    class       volScalarField;
    location    "2";
    object      Cl.water;
}
// * * * * * * * * * * * * * * * * * * * * * * * * * * * * * * * * * * * * * //

dimensions      [0 0 0 0 0 0 0];

internalField   nonuniform List<scalar> 
100
(
0.00760515
0.00966462
0.0108899
0.0117978
0.0125404
0.0131338
0.0136274
0.0140985
0.0145141
0.0149032
0.0152963
0.0156539
0.0159969
0.0163639
0.0167714
0.0172735
0.0179599
0.018994
0.0211362
0.0207616
0.0210263
0.0211118
0.0210875
0.0210739
0.0210628
0.0210578
0.0210523
0.021077
0.0211105
0.0211852
0.0212718
0.0213934
0.0215414
0.0217129
0.0219032
0.0221077
0.022304
0.022485
0.0226426
0.0227589
0.0228586
0.0229165
0.0229599
0.0229819
0.0229925
0.0229974
0.0230107
0.0229979
0.0230058
0.0229924
0.0230039
0.0230005
0.0229799
0.0229983
0.0229957
0.0230004
0.022994
0.0229955
0.0229943
0.0229963
0.0229872
0.0229939
0.0229985
0.0230051
0.0229954
0.022997
0.0230241
0.0230042
0.0230069
0.0230026
0.0229742
0.0229808
0.0229846
0.0229671
0.0229746
0.0229929
0.0229795
0.0229778
0.0229604
0.022957
0.0229606
0.0229891
0.022996
0.0229981
0.0230092
0.0230161
0.0230108
0.0230102
0.0229961
0.0229984
0.0229929
0.0230087
0.0230023
0.0229997
0.022994
0.023005
0.022987
0.0229841
0.0230124
0.0229875
)
;

boundaryField
{
    inlet
    {
        type            fixedValue;
        value           uniform 0;
    }
    outlet
    {
        type            zeroGradient;
    }
    yzfaces
    {
        type            empty;
    }
}


// ************************************************************************* //
