/*--------------------------------*- C++ -*----------------------------------*\
| =========                 |                                                 |
| \\      /  F ield         | foam-extend: Open Source CFD                    |
|  \\    /   O peration     | Version:     5.0                                |
|   \\  /    A nd           | Web:         http://www.foam-extend.org         |
|    \\/     M anipulation  |                                                 |
\*---------------------------------------------------------------------------*/
FoamFile
{
    version     2.0;
    format      ascii;
    class       volScalarField;
    location    "2";
    object      S.gas;
}
// * * * * * * * * * * * * * * * * * * * * * * * * * * * * * * * * * * * * * //

dimensions      [0 0 0 0 0 0 0];

internalField   nonuniform List<scalar> 
100
(
0.668137
0.578307
0.525233
0.485366
0.453202
0.427801
0.404981
0.384357
0.366841
0.350048
0.333514
0.318683
0.302714
0.28735
0.269568
0.247504
0.218774
0.17258
0.1454
0.131686
0.126558
0.125967
0.127111
0.128681
0.129997
0.130702
0.130604
0.129635
0.127786
0.12497
0.12121
0.116357
0.110431
0.103471
0.0955971
0.0871709
0.078728
0.0709074
0.0642994
0.0592496
0.0556965
0.0534037
0.0519666
0.0511406
0.050661
0.0503797
0.0502154
0.050128
0.0500793
0.0500518
0.0500327
0.0500235
0.0500171
0.050016
0.0500171
0.0500019
0.0500008
0.0500016
0.0500097
0.0500058
0.0499992
0.0499961
0.049986
0.0499841
0.049989
0.0499927
0.0499848
0.0499903
0.0499941
0.0499947
0.0499991
0.0500095
0.050006
0.0500125
0.0500101
0.0500055
0.0500055
0.0499995
0.0499914
0.0500029
0.0500085
0.0500036
0.0500077
0.0500044
0.0500036
0.0499942
0.0499936
0.0499969
0.0499975
0.0499994
0.049991
0.0500033
0.0499915
0.0500006
0.0500025
0.0500028
0.050002
0.0500026
0.0500063
0.0500263
)
;

boundaryField
{
    inlet
    {
        type            calculated;
        value           uniform 1;
    }
    outlet
    {
        type            calculated;
        value           uniform 0.0500263;
    }
    yzfaces
    {
        type            empty;
    }
}


// ************************************************************************* //
