/*--------------------------------*- C++ -*----------------------------------*\
| =========                 |                                                 |
| \\      /  F ield         | foam-extend: Open Source CFD                    |
|  \\    /   O peration     | Version:     5.0                                |
|   \\  /    A nd           | Web:         http://www.foam-extend.org         |
|    \\/     M anipulation  |                                                 |
\*---------------------------------------------------------------------------*/
FoamFile
{
    version     2.0;
    format      ascii;
    class       volVectorField;
    location    "2";
    object      U.gas;
}
// * * * * * * * * * * * * * * * * * * * * * * * * * * * * * * * * * * * * * //

dimensions      [0 1 -1 0 0 0 0];

internalField   nonuniform List<vector> 
100
(
(0.00743879 0 0)
(0.00848854 0 0)
(0.00920239 0 0)
(0.00976916 0 0)
(0.0102797 0 0)
(0.010718 0 0)
(0.0111059 0 0)
(0.01153 0 0)
(0.0118916 0 0)
(0.0121685 0 0)
(0.0124753 0 0)
(0.0127242 0 0)
(0.0130084 0 0)
(0.0132608 0 0)
(0.0135421 0 0)
(0.0138532 0 0)
(0.0142235 0 0)
(0.0148006 0 0)
(0.0133593 0 0)
(0.0119755 0 0)
(0.0111317 0 0)
(0.0107745 0 0)
(0.0107182 0 0)
(0.0107979 0 0)
(0.0109056 0 0)
(0.01098 0 0)
(0.0110103 0 0)
(0.0110089 0 0)
(0.010962 0 0)
(0.0108741 0 0)
(0.0107308 0 0)
(0.0105241 0 0)
(0.0102386 0 0)
(0.0098577 0 0)
(0.00937588 0 0)
(0.00878415 0 0)
(0.00809647 0 0)
(0.00736774 0 0)
(0.00666363 0 0)
(0.00605073 0 0)
(0.00557619 0 0)
(0.00524005 0 0)
(0.00502299 0 0)
(0.00488831 0 0)
(0.00481096 0 0)
(0.00476603 0 0)
(0.0047411 0 0)
(0.00472988 0 0)
(0.0047247 0 0)
(0.00472167 0 0)
(0.00472142 0 0)
(0.00472349 0 0)
(0.00472566 0 0)
(0.0047236 0 0)
(0.00472102 0 0)
(0.00472043 0 0)
(0.00471878 0 0)
(0.00471772 0 0)
(0.00471543 0 0)
(0.00471349 0 0)
(0.00471377 0 0)
(0.00471184 0 0)
(0.00470829 0 0)
(0.00470519 0 0)
(0.00470555 0 0)
(0.00471038 0 0)
(0.00471535 0 0)
(0.00471343 0 0)
(0.00471028 0 0)
(0.00470615 0 0)
(0.00470211 0 0)
(0.00470106 0 0)
(0.00469959 0 0)
(0.00470083 0 0)
(0.00470271 0 0)
(0.00470242 0 0)
(0.00470194 0 0)
(0.00470229 0 0)
(0.00470077 0 0)
(0.00469754 0 0)
(0.00469981 0 0)
(0.00470613 0 0)
(0.00471086 0 0)
(0.00471495 0 0)
(0.00471659 0 0)
(0.00471036 0 0)
(0.0047016 0 0)
(0.00469799 0 0)
(0.00469991 0 0)
(0.00470002 0 0)
(0.00469656 0 0)
(0.00469131 0 0)
(0.00468969 0 0)
(0.00468543 0 0)
(0.00468552 0 0)
(0.00468996 0 0)
(0.00468778 0 0)
(0.0046845 0 0)
(0.00468575 0 0)
(0.00468724 0 0)
)
;

boundaryField
{
    inlet
    {
        type            fixedValue;
        value           uniform (0.005 0 0);
    }
    outlet
    {
        type            zeroGradient;
    }
    yzfaces
    {
        type            empty;
    }
}


// ************************************************************************* //
