/*--------------------------------*- C++ -*----------------------------------*\
| =========                 |                                                 |
| \\      /  F ield         | foam-extend: Open Source CFD                    |
|  \\    /   O peration     | Version:     5.0                                |
|   \\  /    A nd           | Web:         http://www.foam-extend.org         |
|    \\/     M anipulation  |                                                 |
\*---------------------------------------------------------------------------*/
FoamFile
{
    version     2.0;
    format      ascii;
    class       volScalarField;
    location    "4";
    object      alpha.gas;
}
// * * * * * * * * * * * * * * * * * * * * * * * * * * * * * * * * * * * * * //

dimensions      [0 0 0 0 0 0 0];

internalField   nonuniform List<scalar> 
100
(
0.152076
0.136078
0.129941
0.120876
0.11213
0.106702
0.102484
0.0980033
0.0944806
0.0914038
0.0885718
0.0861646
0.0839693
0.0819518
0.0798595
0.0780744
0.0761447
0.0746406
0.0730305
0.0713466
0.0696708
0.0680393
0.0662688
0.0647006
0.0631107
0.061114
0.0592071
0.0570947
0.0543177
0.0513025
0.0469485
0.0403104
0.028891
0.0318315
0.0323973
0.0326502
0.032774
0.0328859
0.0329224
0.0329991
0.0331146
0.033269
0.0333789
0.0335726
0.0337494
0.0339374
0.0341293
0.0342736
0.0344051
0.0345054
0.0345459
0.034512
0.0344353
0.0342663
0.0340525
0.0337731
0.0334174
0.0330005
0.0324931
0.0319041
0.0312138
0.0304256
0.0295319
0.0285145
0.0273648
0.0260617
0.0246155
0.0229907
0.0212262
0.0193751
0.0174865
0.0156936
0.0140917
0.0127804
0.0118002
0.0111233
0.0106801
0.0104052
0.0102416
0.0101437
0.0100848
0.0100498
0.0100353
0.0100256
0.0100243
0.0100209
0.0100134
0.0100117
0.0100102
0.0100061
0.0100092
0.0100035
0.0100015
0.00999446
0.00999775
0.00999397
0.00999727
0.0100029
0.0100005
0.0100006
)
;

boundaryField
{
    inlet
    {
        type            fixedValue;
        value           uniform 0.2;
    }
    outlet
    {
        type            zeroGradient;
    }
    yzfaces
    {
        type            empty;
    }
}


// ************************************************************************* //
