/*--------------------------------*- C++ -*----------------------------------*\
| =========                 |                                                 |
| \\      /  F ield         | foam-extend: Open Source CFD                    |
|  \\    /   O peration     | Version:     5.0                                |
|   \\  /    A nd           | Web:         http://www.foam-extend.org         |
|    \\/     M anipulation  |                                                 |
\*---------------------------------------------------------------------------*/
FoamFile
{
    version     2.0;
    format      ascii;
    class       volScalarField;
    location    "4";
    object      Cl.water;
}
// * * * * * * * * * * * * * * * * * * * * * * * * * * * * * * * * * * * * * //

dimensions      [0 0 0 0 0 0 0];

internalField   nonuniform List<scalar> 
100
(
0.0054999
0.00728396
0.00799259
0.00904925
0.0100892
0.0106802
0.0111624
0.0116105
0.0120217
0.0124025
0.0127156
0.0130267
0.0132673
0.0135239
0.013724
0.0139591
0.0141736
0.0143853
0.0145633
0.0147725
0.0149295
0.015132
0.0153607
0.0155311
0.0157131
0.0159461
0.0161668
0.0163979
0.0167203
0.0170405
0.0175108
0.018217
0.019393
0.0193953
0.0192674
0.019225
0.0192169
0.0191868
0.0191902
0.019171
0.0191642
0.0191403
0.019139
0.0191074
0.019089
0.0190704
0.0190442
0.0190367
0.0190105
0.018995
0.0189906
0.0190067
0.0190111
0.0190326
0.0190508
0.0190949
0.0191213
0.0191735
0.0192366
0.0192956
0.0193855
0.0194749
0.0195726
0.0196991
0.0198267
0.0199719
0.0201395
0.020333
0.0205313
0.0207423
0.0209584
0.0211732
0.0213567
0.0215043
0.0216245
0.0217094
0.0217295
0.0217606
0.0217832
0.021792
0.0217952
0.021798
0.0218131
0.0218159
0.021807
0.0218221
0.0218199
0.0218172
0.0218076
0.0218178
0.0218206
0.0218113
0.0218223
0.0218246
0.0218214
0.0218085
0.0218021
0.0218222
0.0218143
0.021828
)
;

boundaryField
{
    inlet
    {
        type            fixedValue;
        value           uniform 0;
    }
    outlet
    {
        type            zeroGradient;
    }
    yzfaces
    {
        type            empty;
    }
}


// ************************************************************************* //
