/*--------------------------------*- C++ -*----------------------------------*\
| =========                 |                                                 |
| \\      /  F ield         | foam-extend: Open Source CFD                    |
|  \\    /   O peration     | Version:     5.0                                |
|   \\  /    A nd           | Web:         http://www.foam-extend.org         |
|    \\/     M anipulation  |                                                 |
\*---------------------------------------------------------------------------*/
FoamFile
{
    version     2.0;
    format      ascii;
    class       volScalarField;
    location    "4";
    object      CO2.gas;
}
// * * * * * * * * * * * * * * * * * * * * * * * * * * * * * * * * * * * * * //

dimensions      [0 0 0 0 0 0 0];

internalField   nonuniform List<scalar> 
100
(
0.151865
0.134768
0.129688
0.12064
0.111912
0.106198
0.101962
0.0969619
0.0935523
0.090759
0.0878594
0.0857134
0.0834657
0.0816215
0.0793363
0.0776792
0.0757336
0.0744347
0.0728019
0.0711802
0.0693517
0.0677868
0.0661398
0.0645746
0.0629878
0.060995
0.0590918
0.0569835
0.0542119
0.0512026
0.046857
0.0402319
0.0288347
0.0315719
0.0321316
0.0322663
0.0321964
0.0320995
0.0318278
0.031542
0.0311928
0.0308118
0.0302707
0.029739
0.0290693
0.028307
0.0274463
0.0264336
0.0253363
0.0241084
0.0227524
0.0212728
0.019735
0.0181144
0.016467
0.0147942
0.0131447
0.0115237
0.00995881
0.00848014
0.00709388
0.00582588
0.00468555
0.00367677
0.00280814
0.00207553
0.00147466
0.000999478
0.000640352
0.000383082
0.000211146
0.00010603
4.81534e-05
1.97841e-05
7.44579e-06
2.62497e-06
8.9369e-07
3.03526e-07
1.06988e-07
3.94559e-08
1.50609e-08
5.88442e-09
2.35785e-09
9.77746e-10
4.05201e-10
1.67463e-10
6.90208e-11
2.82644e-11
1.15768e-11
4.75265e-12
1.94979e-12
8.01407e-13
3.29481e-13
1.35127e-13
5.5304e-14
2.25527e-14
9.14492e-15
3.69548e-15
1.48459e-15
7.39713e-16
)
;

boundaryField
{
    inlet
    {
        type            fixedValue;
        value           uniform 0.2;
    }
    outlet
    {
        type            zeroGradient;
    }
    yzfaces
    {
        type            empty;
    }
}


// ************************************************************************* //
