/*--------------------------------*- C++ -*----------------------------------*\
| =========                 |                                                 |
| \\      /  F ield         | foam-extend: Open Source CFD                    |
|  \\    /   O peration     | Version:     5.0                                |
|   \\  /    A nd           | Web:         http://www.foam-extend.org         |
|    \\/     M anipulation  |                                                 |
\*---------------------------------------------------------------------------*/
FoamFile
{
    version     2.0;
    format      ascii;
    class       volScalarField;
    location    "4";
    object      H2O.gas;
}
// * * * * * * * * * * * * * * * * * * * * * * * * * * * * * * * * * * * * * //

dimensions      [0 0 0 0 0 0 0];

internalField   nonuniform List<scalar> 
100
(
0.000149496
0.000195006
0.000253057
0.000235402
0.00021837
0.000196731
0.000179239
0.000161141
0.000147553
0.000136721
0.000127336
0.000120625
0.000121776
0.000122494
0.000120534
0.000120821
0.00012078
0.000121101
0.000120208
0.000129713
0.000121974
0.000126501
0.000129057
0.000126003
0.000122906
0.000119018
0.000115304
0.00011119
0.000105782
9.99101e-05
9.14308e-05
7.85033e-05
5.62643e-05
0.000134107
0.000234606
0.000371917
0.000554686
0.000793411
0.00109302
0.00146674
0.00192027
0.00246315
0.00309428
0.00383563
0.00467496
0.0056238
0.00667833
0.00782717
0.00907606
0.0104061
0.0118047
0.0132336
0.0147016
0.0161509
0.0175931
0.0189706
0.0202843
0.0214808
0.0225328
0.0234347
0.0241115
0.0245918
0.0248487
0.0248294
0.0245536
0.0239892
0.0231441
0.0219886
0.0205879
0.0189962
0.0172773
0.0155822
0.0140381
0.0127573
0.0117876
0.0111129
0.0106823
0.0104062
0.0102411
0.0101448
0.0100864
0.0100517
0.0100339
0.0100253
0.0100289
0.0100184
0.0100124
0.0100136
0.0100143
0.0100068
0.0100071
0.0100063
0.0100005
0.00999358
0.00999767
0.00999838
0.0100034
0.0100003
0.010002
0.0099967
)
;

boundaryField
{
    inlet
    {
        type            fixedValue;
        value           uniform 0;
    }
    outlet
    {
        type            zeroGradient;
    }
    yzfaces
    {
        type            empty;
    }
}


// ************************************************************************* //
