/*--------------------------------*- C++ -*----------------------------------*\
| =========                 |                                                 |
| \\      /  F ield         | foam-extend: Open Source CFD                    |
|  \\    /   O peration     | Version:     5.0                                |
|   \\  /    A nd           | Web:         http://www.foam-extend.org         |
|    \\/     M anipulation  |                                                 |
\*---------------------------------------------------------------------------*/
FoamFile
{
    version     2.0;
    format      ascii;
    class       volScalarField;
    location    "4";
    object      Na.water;
}
// * * * * * * * * * * * * * * * * * * * * * * * * * * * * * * * * * * * * * //

dimensions      [0 0 0 0 0 0 0];

internalField   nonuniform List<scalar> 
100
(
0.00550213
0.00727721
0.00798859
0.00904706
0.0100892
0.0106796
0.0111617
0.0116048
0.0120146
0.0123952
0.0127079
0.0130158
0.0132615
0.0135191
0.0137257
0.0139495
0.0141644
0.014372
0.0145458
0.0147611
0.0149237
0.0151209
0.0153514
0.0155319
0.0157135
0.0159442
0.0161629
0.0163905
0.016714
0.0170425
0.0175182
0.0182168
0.0193936
0.0193947
0.019265
0.0192249
0.0192197
0.0191867
0.0191832
0.0191707
0.0191676
0.0191469
0.0191455
0.0191141
0.0191009
0.019078
0.0190578
0.0190412
0.0190118
0.0190028
0.018995
0.019008
0.0190125
0.0190309
0.0190518
0.0190932
0.0191222
0.0191756
0.019236
0.0192952
0.0193908
0.0194828
0.0195747
0.0196992
0.0198275
0.0199699
0.0201343
0.0203273
0.0205226
0.0207318
0.020953
0.0211734
0.0213585
0.0215058
0.0216202
0.0217037
0.0217374
0.0217776
0.0217998
0.0218067
0.021814
0.0218175
0.0218232
0.0218169
0.0218036
0.0218229
0.0218185
0.0218078
0.0218071
0.0218136
0.021825
0.0218119
0.02182
0.0218167
0.0218168
0.0218079
0.0218057
0.0218285
0.0218163
0.0218273
)
;

boundaryField
{
    inlet
    {
        type            fixedValue;
        value           uniform 0;
    }
    outlet
    {
        type            zeroGradient;
    }
    yzfaces
    {
        type            empty;
    }
}


// ************************************************************************* //
