/*--------------------------------*- C++ -*----------------------------------*\
| =========                 |                                                 |
| \\      /  F ield         | foam-extend: Open Source CFD                    |
|  \\    /   O peration     | Version:     5.0                                |
|   \\  /    A nd           | Web:         http://www.foam-extend.org         |
|    \\/     M anipulation  |                                                 |
\*---------------------------------------------------------------------------*/
FoamFile
{
    version     2.0;
    format      ascii;
    class       volScalarField;
    location    "4";
    object      Ns;
}
// * * * * * * * * * * * * * * * * * * * * * * * * * * * * * * * * * * * * * //

dimensions      [0 -3 0 0 1 0 0];

internalField   nonuniform List<scalar> 
100
(
0.0748908
0.736055
17.5479
12.2228
0.404235
1.00545
1.10335
0.194552
1.12556
1.59626
0.0844663
0.921074
2.5481
1.05292
0.601859
1.00002
0.00476475
0.00133543
1.97369
0.154819
1.7876
3.81301
0.253631
1.75045
1.98859
1.16646
0.943709
5.19525
3.88323
10.954
19.6222
38.8968
82.3345
165.16
161.764
168.06
168.795
172.12
168.953
177.917
170.518
172.249
170.756
173.996
174.828
171.713
172.587
168.714
175.882
170.236
173.447
171.105
173.051
173.419
173.834
173.102
170.765
172.712
176.124
167.901
172.138
171.949
176.196
171.652
178.43
172.877
174.761
169.528
177.686
176.458
178.549
174.179
173.266
175.474
176.521
172.938
173.027
171.134
175.742
175.49
173.104
175.987
171.766
175.683
175.376
172.726
174.034
173.05
172.64
173.96
170.755
171.485
174.336
175.319
175.35
174.811
175.002
172.382
172.292
167.63
)
;

boundaryField
{
    inlet
    {
        type            fixedValue;
        value           uniform 0;
    }
    outlet
    {
        type            zeroGradient;
    }
    yzfaces
    {
        type            empty;
    }
}


// ************************************************************************* //
