/*--------------------------------*- C++ -*----------------------------------*\
| =========                 |                                                 |
| \\      /  F ield         | foam-extend: Open Source CFD                    |
|  \\    /   O peration     | Version:     5.0                                |
|   \\  /    A nd           | Web:         http://www.foam-extend.org         |
|    \\/     M anipulation  |                                                 |
\*---------------------------------------------------------------------------*/
FoamFile
{
    version     2.0;
    format      ascii;
    class       surfaceScalarField;
    location    "4";
    object      phi;
}
// * * * * * * * * * * * * * * * * * * * * * * * * * * * * * * * * * * * * * //

dimensions      [0 3 -1 0 0 0 0];

internalField   nonuniform List<scalar> 
99
(
1.2248e-06
1.24088e-06
1.2257e-06
1.21452e-06
1.21932e-06
1.22391e-06
1.20931e-06
1.21103e-06
1.21356e-06
1.21439e-06
1.21484e-06
1.21179e-06
1.21163e-06
1.21255e-06
1.22085e-06
1.21745e-06
1.22056e-06
1.22072e-06
1.2205e-06
1.22682e-06
1.22128e-06
1.22916e-06
1.23272e-06
1.22955e-06
1.22541e-06
1.2277e-06
1.2283e-06
1.22485e-06
1.22705e-06
1.22553e-06
1.22211e-06
1.21661e-06
1.20811e-06
1.22304e-06
1.22561e-06
1.22778e-06
1.2292e-06
1.2302e-06
1.23099e-06
1.22959e-06
1.23036e-06
1.22982e-06
1.23241e-06
1.23161e-06
1.23263e-06
1.23197e-06
1.23196e-06
1.23392e-06
1.23291e-06
1.23125e-06
1.23043e-06
1.23065e-06
1.23129e-06
1.23019e-06
1.23055e-06
1.23042e-06
1.22988e-06
1.22867e-06
1.22973e-06
1.22806e-06
1.22996e-06
1.23115e-06
1.23105e-06
1.23187e-06
1.23303e-06
1.23213e-06
1.23083e-06
1.23134e-06
1.23108e-06
1.22951e-06
1.22973e-06
1.23121e-06
1.23279e-06
1.23352e-06
1.23545e-06
1.23686e-06
1.23579e-06
1.23565e-06
1.23554e-06
1.23465e-06
1.23343e-06
1.23207e-06
1.23334e-06
1.23345e-06
1.23131e-06
1.23086e-06
1.23205e-06
1.2313e-06
1.23048e-06
1.23037e-06
1.2309e-06
1.23072e-06
1.23116e-06
1.23224e-06
1.23203e-06
1.231e-06
1.22982e-06
1.2304e-06
1.22978e-06
)
;

boundaryField
{
    inlet
    {
        type            calculated;
        value           uniform -1.225e-06;
    }
    outlet
    {
        type            calculated;
        value           uniform 1.23019e-06;
    }
    yzfaces
    {
        type            empty;
    }
}


// ************************************************************************* //
