/*--------------------------------*- C++ -*----------------------------------*\
| =========                 |                                                 |
| \\      /  F ield         | foam-extend: Open Source CFD                    |
|  \\    /   O peration     | Version:     5.0                                |
|   \\  /    A nd           | Web:         http://www.foam-extend.org         |
|    \\/     M anipulation  |                                                 |
\*---------------------------------------------------------------------------*/
FoamFile
{
    version     2.0;
    format      ascii;
    class       volVectorField;
    location    "4";
    object      U.gas;
}
// * * * * * * * * * * * * * * * * * * * * * * * * * * * * * * * * * * * * * //

dimensions      [0 1 -1 0 0 0 0];

internalField   nonuniform List<vector> 
100
(
(0.00655669 0 0)
(0.00732928 0 0)
(0.00762182 0 0)
(0.00811016 0 0)
(0.00859627 0 0)
(0.00899418 0 0)
(0.00925205 0 0)
(0.00954075 0 0)
(0.00982311 0 0)
(0.0100803 0 0)
(0.0103168 0 0)
(0.0105013 0 0)
(0.0106712 0 0)
(0.0108462 0 0)
(0.0110727 0 0)
(0.0112449 0 0)
(0.0114191 0 0)
(0.0115558 0 0)
(0.011702 0 0)
(0.0118828 0 0)
(0.0120336 0 0)
(0.0121852 0 0)
(0.012388 0 0)
(0.0125254 0 0)
(0.0126293 0 0)
(0.0127747 0 0)
(0.0129535 0 0)
(0.0130989 0 0)
(0.0133033 0 0)
(0.0135141 0 0)
(0.0138188 0 0)
(0.0141424 0 0)
(0.0146728 0 0)
(0.0117151 0 0)
(0.0120852 0 0)
(0.0122371 0 0)
(0.0123102 0 0)
(0.0123419 0 0)
(0.0123779 0 0)
(0.0123762 0 0)
(0.0123793 0 0)
(0.0123934 0 0)
(0.0124336 0 0)
(0.0124509 0 0)
(0.0124834 0 0)
(0.0125091 0 0)
(0.0125328 0 0)
(0.0125756 0 0)
(0.0126021 0 0)
(0.0126114 0 0)
(0.0126194 0 0)
(0.0126299 0 0)
(0.0126343 0 0)
(0.0126321 0 0)
(0.0126103 0 0)
(0.012588 0 0)
(0.0125523 0 0)
(0.0124976 0 0)
(0.0124404 0 0)
(0.0123614 0 0)
(0.0122712 0 0)
(0.0121715 0 0)
(0.0120351 0 0)
(0.0118632 0 0)
(0.011653 0 0)
(0.0113856 0 0)
(0.0110425 0 0)
(0.0106322 0 0)
(0.010127 0 0)
(0.00951826 0 0)
(0.00882617 0 0)
(0.00807172 0 0)
(0.00731346 0 0)
(0.00660211 0 0)
(0.00600061 0 0)
(0.00554571 0 0)
(0.00522441 0 0)
(0.00501069 0 0)
(0.00488037 0 0)
(0.00480069 0 0)
(0.00474987 0 0)
(0.00471761 0 0)
(0.00470093 0 0)
(0.00469649 0 0)
(0.00468888 0 0)
(0.00468439 0 0)
(0.00468382 0 0)
(0.00468039 0 0)
(0.00467686 0 0)
(0.00467439 0 0)
(0.00467336 0 0)
(0.00467554 0 0)
(0.00467321 0 0)
(0.004675 0 0)
(0.00467296 0 0)
(0.00467222 0 0)
(0.00466675 0 0)
(0.00466694 0 0)
(0.00466916 0 0)
(0.00466759 0 0)
)
;

boundaryField
{
    inlet
    {
        type            fixedValue;
        value           uniform (0.005 0 0);
    }
    outlet
    {
        type            zeroGradient;
    }
    yzfaces
    {
        type            empty;
    }
}


// ************************************************************************* //
