/*--------------------------------*- C++ -*----------------------------------*\
| =========                 |                                                 |
| \\      /  F ield         | foam-extend: Open Source CFD                    |
|  \\    /   O peration     | Version:     5.0                                |
|   \\  /    A nd           | Web:         http://www.foam-extend.org         |
|    \\/     M anipulation  |                                                 |
\*---------------------------------------------------------------------------*/
FoamFile
{
    version     2.0;
    format      ascii;
    class       volVectorField;
    location    "4";
    object      U.water;
}
// * * * * * * * * * * * * * * * * * * * * * * * * * * * * * * * * * * * * * //

dimensions      [0 1 -1 0 0 0 0];

internalField   nonuniform List<vector> 
100
(
(5.84556e-05 0 0)
(0.000141511 0 0)
(0.000204358 0 0)
(0.000251817 0 0)
(0.000327874 0 0)
(0.000402376 0 0)
(0.000461042 0 0)
(0.000518329 0 0)
(0.000583157 0 0)
(0.000641087 0 0)
(0.000697722 0 0)
(0.00075219 0 0)
(0.000802344 0 0)
(0.000852135 0 0)
(0.000906968 0 0)
(0.000961942 0 0)
(0.00101412 0 0)
(0.00106822 0 0)
(0.0011169 0 0)
(0.00117449 0 0)
(0.00123409 0 0)
(0.00129664 0 0)
(0.00136577 0 0)
(0.00143221 0 0)
(0.00149791 0 0)
(0.00157601 0 0)
(0.00166768 0 0)
(0.00176776 0 0)
(0.00189065 0 0)
(0.00204887 0 0)
(0.00226367 0 0)
(0.00260128 0 0)
(0.00319236 0 0)
(0.00368319 0 0)
(0.00362715 0 0)
(0.00359629 0 0)
(0.00358434 0 0)
(0.00357819 0 0)
(0.00357356 0 0)
(0.00356832 0 0)
(0.00356006 0 0)
(0.00354964 0 0)
(0.0035408 0 0)
(0.00353136 0 0)
(0.00351581 0 0)
(0.00350127 0 0)
(0.00348434 0 0)
(0.00347243 0 0)
(0.00346205 0 0)
(0.00344796 0 0)
(0.00343791 0 0)
(0.00343613 0 0)
(0.00344161 0 0)
(0.0034503 0 0)
(0.00346477 0 0)
(0.00348527 0 0)
(0.00351023 0 0)
(0.00353931 0 0)
(0.00357718 0 0)
(0.00362174 0 0)
(0.00367472 0 0)
(0.00374002 0 0)
(0.00381046 0 0)
(0.00388955 0 0)
(0.00398064 0 0)
(0.00407879 0 0)
(0.00418209 0 0)
(0.00429652 0 0)
(0.00441962 0 0)
(0.00453928 0 0)
(0.00465408 0 0)
(0.00476267 0 0)
(0.00485539 0 0)
(0.00492619 0 0)
(0.0049784 0 0)
(0.00501608 0 0)
(0.00503618 0 0)
(0.00504558 0 0)
(0.00505203 0 0)
(0.00505406 0 0)
(0.00505215 0 0)
(0.00504825 0 0)
(0.00504891 0 0)
(0.0050521 0 0)
(0.00504815 0 0)
(0.00504281 0 0)
(0.0050444 0 0)
(0.00504551 0 0)
(0.00504233 0 0)
(0.00504044 0 0)
(0.00504141 0 0)
(0.00504204 0 0)
(0.00504273 0 0)
(0.00504588 0 0)
(0.00504785 0 0)
(0.00504523 0 0)
(0.00504077 0 0)
(0.00503948 0 0)
(0.00503928 0 0)
(0.00503892 0 0)
)
;

boundaryField
{
    inlet
    {
        type            fixedValue;
        value           uniform (0 0 0);
    }
    outlet
    {
        type            zeroGradient;
    }
    yzfaces
    {
        type            empty;
    }
}


// ************************************************************************* //
