/*--------------------------------*- C++ -*----------------------------------*\
| =========                 |                                                 |
| \\      /  F ield         | foam-extend: Open Source CFD                    |
|  \\    /   O peration     | Version:     5.0                                |
|   \\  /    A nd           | Web:         http://www.foam-extend.org         |
|    \\/     M anipulation  |                                                 |
\*---------------------------------------------------------------------------*/
FoamFile
{
    version     2.0;
    format      ascii;
    class       volScalarField;
    location    "7.02275";
    object      CO2.water;
}
// * * * * * * * * * * * * * * * * * * * * * * * * * * * * * * * * * * * * * //

dimensions      [0 0 0 0 0 0 0];

internalField   nonuniform List<scalar> 
100
(
7.43962e-05
3.75685e-06
1.5358e-07
5.65828e-09
1.95494e-10
6.45659e-12
2.06135e-13
6.4073e-15
1.94877e-16
5.81962e-18
1.71063e-19
4.95985e-21
1.42074e-22
4.0259e-24
1.12965e-25
3.14195e-27
8.66738e-29
2.37297e-30
6.45222e-32
1.74302e-33
4.68027e-35
1.2497e-36
3.31903e-38
8.7708e-40
2.30671e-41
6.0397e-43
1.57444e-44
4.08756e-46
1.05723e-47
2.72397e-49
6.99472e-51
1.78992e-52
4.56625e-54
1.16137e-55
2.94535e-57
7.44881e-59
1.87869e-60
4.72549e-62
1.18575e-63
2.96803e-65
7.41325e-67
1.84729e-68
4.59437e-70
1.14042e-71
2.82568e-73
6.98831e-75
1.72549e-76
4.25478e-78
1.04745e-79
2.57446e-81
6.3181e-83
1.54744e-84
3.78189e-86
9.22096e-88
2.24377e-89
5.45036e-91
1.32141e-92
3.19911e-94
7.73399e-96
1.86733e-97
4.50199e-99
1.08371e-100
2.60462e-102
6.25064e-104
1.4981e-105
3.5861e-107
8.57541e-109
2.04784e-110
4.88325e-112
1.16301e-113
2.76563e-115
6.57107e-117
1.55937e-118
3.69625e-120
8.75097e-122
2.06916e-123
4.88739e-125
1.15335e-126
2.71892e-128
6.40208e-130
1.50626e-131
3.54031e-133
8.3143e-135
1.95117e-136
4.57493e-138
1.07188e-139
2.50969e-141
5.87226e-143
1.37353e-144
3.21154e-146
7.50378e-148
1.75213e-149
4.08912e-151
9.53831e-153
2.22433e-154
5.18574e-156
1.20832e-157
2.81412e-159
6.5541e-161
1.52635e-162
)
;

boundaryField
{
    inlet
    {
        type            fixedValue;
        value           uniform 0;
    }
    outlet
    {
        type            zeroGradient;
    }
    yzfaces
    {
        type            empty;
    }
}


// ************************************************************************* //
