/*--------------------------------*- C++ -*----------------------------------*\
| =========                 |                                                 |
| \\      /  F ield         | foam-extend: Open Source CFD                    |
|  \\    /   O peration     | Version:     5.0                                |
|   \\  /    A nd           | Web:         http://www.foam-extend.org         |
|    \\/     M anipulation  |                                                 |
\*---------------------------------------------------------------------------*/
FoamFile
{
    version     2.0;
    format      ascii;
    class       volScalarField;
    location    "7.77427";
    object      CO2.water;
}
// * * * * * * * * * * * * * * * * * * * * * * * * * * * * * * * * * * * * * //

dimensions      [0 0 0 0 0 0 0];

internalField   nonuniform List<scalar> 
100
(
6.7038e-05
9.22708e-06
1.03005e-06
1.03523e-07
9.74501e-09
8.76344e-10
7.61223e-11
6.43337e-12
5.31636e-13
4.31097e-14
3.43955e-15
2.7051e-16
2.10031e-17
1.61231e-18
1.22492e-19
9.21753e-21
6.87576e-22
5.08743e-23
3.73553e-24
2.72308e-25
1.97205e-26
1.41907e-27
1.01488e-28
7.21792e-30
5.10495e-31
3.59194e-32
2.51447e-33
1.75165e-34
1.2149e-35
8.38881e-37
5.76727e-38
3.94882e-39
2.69267e-40
1.82923e-41
1.23794e-42
8.34758e-44
5.60865e-45
3.75582e-46
2.50655e-47
1.66734e-48
1.10568e-49
7.30968e-51
4.81863e-52
3.16712e-53
2.07553e-54
1.35645e-55
8.84004e-57
5.74561e-58
3.72484e-59
2.40839e-60
1.55321e-61
9.99312e-63
6.41372e-64
4.10714e-65
2.6239e-66
1.67277e-67
1.0639e-68
6.75208e-70
4.27596e-71
2.70267e-72
1.70448e-73
1.07267e-74
6.73645e-76
4.22271e-77
2.64135e-78
1.64933e-79
1.02787e-80
6.39395e-82
3.96953e-83
2.45998e-84
1.52193e-85
9.40021e-87
5.7967e-88
3.56808e-89
2.19263e-90
1.34523e-91
8.24092e-93
5.03917e-94
3.07757e-95
1.87657e-96
1.14265e-97
6.94503e-99
4.21514e-100
2.55452e-101
1.54565e-102
9.33876e-104
5.63494e-105
3.39574e-106
2.04381e-107
1.22858e-108
7.37503e-110
4.42172e-111
2.64739e-112
1.58293e-113
9.4496e-115
5.63406e-116
3.35528e-117
1.99586e-118
1.18597e-119
7.03853e-121
)
;

boundaryField
{
    inlet
    {
        type            fixedValue;
        value           uniform 0;
    }
    outlet
    {
        type            zeroGradient;
    }
    yzfaces
    {
        type            empty;
    }
}


// ************************************************************************* //
