/*--------------------------------*- C++ -*----------------------------------*\
| =========                 |                                                 |
| \\      /  F ield         | foam-extend: Open Source CFD                    |
|  \\    /   O peration     | Version:     5.0                                |
|   \\  /    A nd           | Web:         http://www.foam-extend.org         |
|    \\/     M anipulation  |                                                 |
\*---------------------------------------------------------------------------*/
FoamFile
{
    version     2.0;
    format      ascii;
    class       volScalarField;
    location    "10";
    object      alpha.gas;
}
// * * * * * * * * * * * * * * * * * * * * * * * * * * * * * * * * * * * * * //

dimensions      [0 0 0 0 0 0 0];

internalField   nonuniform List<scalar> 
100
(
0.170061
0.158162
0.149719
0.14309
0.137702
0.132699
0.127577
0.123767
0.120742
0.118055
0.115817
0.113611
0.112115
0.110322
0.108681
0.107008
0.105477
0.103911
0.103012
0.102093
0.101602
0.100507
0.0989339
0.0973759
0.0956558
0.0943182
0.0925546
0.0907138
0.088821
0.0865855
0.0844382
0.0826089
0.0810477
0.0796662
0.0790207
0.078531
0.0779167
0.0774365
0.0771357
0.0773815
0.078061
0.0788542
0.0799664
0.0808831
0.0814072
0.0815953
0.0812469
0.0811865
0.0809395
0.0804798
0.0795748
0.0782488
0.0764777
0.0747574
0.0731979
0.0720732
0.0711691
0.0704954
0.0699895
0.0696861
0.0695469
0.0692499
0.0689518
0.0686698
0.068335
0.0677758
0.0672817
0.0668324
0.0662549
0.0656506
0.0649909
0.0642627
0.0636572
0.0630613
0.0624832
0.0619704
0.0615734
0.0610972
0.0605595
0.0600495
0.0595421
0.059211
0.0588436
0.0584949
0.0580909
0.0577692
0.0573811
0.0568984
0.0564165
0.0558723
0.0554348
0.0548771
0.0543602
0.0539124
0.053373
0.0528206
0.0522291
0.0516047
0.0508001
0.0499009
)
;

boundaryField
{
    inlet
    {
        type            fixedValue;
        value           uniform 0.2;
    }
    outlet
    {
        type            zeroGradient;
    }
    yzfaces
    {
        type            empty;
    }
}


// ************************************************************************* //
