/*--------------------------------*- C++ -*----------------------------------*\
| =========                 |                                                 |
| \\      /  F ield         | foam-extend: Open Source CFD                    |
|  \\    /   O peration     | Version:     5.0                                |
|   \\  /    A nd           | Web:         http://www.foam-extend.org         |
|    \\/     M anipulation  |                                                 |
\*---------------------------------------------------------------------------*/
FoamFile
{
    version     2.0;
    format      ascii;
    class       volScalarField;
    location    "10";
    object      Cl.water;
}
// * * * * * * * * * * * * * * * * * * * * * * * * * * * * * * * * * * * * * //

dimensions      [0 0 0 0 0 0 0];

internalField   nonuniform List<scalar> 
100
(
0
0.00114038
0.00251984
0.00390284
0.00489606
0.00543288
0.00571623
0.00593245
0.00621414
0.00659676
0.00697586
0.00725668
0.00741234
0.0075026
0.00760767
0.00774763
0.00791306
0.0080573
0.00813492
0.00818996
0.00823971
0.00831289
0.00839463
0.00848354
0.00857491
0.00870409
0.00885803
0.00908379
0.00936484
0.00961034
0.00985569
0.0100569
0.010216
0.0103559
0.0104421
0.0104673
0.0104957
0.0105832
0.0107018
0.0108291
0.0109282
0.0109356
0.0108961
0.010828
0.0107961
0.0107927
0.0107932
0.0107793
0.0107418
0.0107568
0.0108226
0.0108958
0.0109664
0.0110396
0.0111297
0.0112568
0.0113835
0.0114586
0.0114659
0.0114355
0.0113799
0.0113003
0.0111968
0.0110908
0.0110385
0.0111394
0.0113283
0.0115043
0.0115915
0.0116039
0.0116448
0.0117955
0.0119958
0.0120841
0.012035
0.0119452
0.011897
0.0118297
0.0116734
0.0114958
0.0114955
0.0118457
0.0122974
0.0124293
0.012196
0.0119843
0.0121435
0.01278
0.013102
0.0126635
0.0120576
0.0120589
0.0128698
0.0141187
0.0134635
0.0119968
0.0117109
0.0128409
0.0145322
0.0113477
)
;

boundaryField
{
    inlet
    {
        type            fixedValue;
        value           uniform 0;
    }
    outlet
    {
        type            zeroGradient;
    }
    yzfaces
    {
        type            empty;
    }
}


// ************************************************************************* //
