/*--------------------------------*- C++ -*----------------------------------*\
| =========                 |                                                 |
| \\      /  F ield         | foam-extend: Open Source CFD                    |
|  \\    /   O peration     | Version:     5.0                                |
|   \\  /    A nd           | Web:         http://www.foam-extend.org         |
|    \\/     M anipulation  |                                                 |
\*---------------------------------------------------------------------------*/
FoamFile
{
    version     2.0;
    format      ascii;
    class       volScalarField;
    location    "10";
    object      CO2.water;
}
// * * * * * * * * * * * * * * * * * * * * * * * * * * * * * * * * * * * * * //

dimensions      [0 0 0 0 0 0 0];

internalField   nonuniform List<scalar> 
100
(
0.000788281
0.00085042
0.000771458
0.000647612
0.000568094
0.000568012
0.000625595
0.000692793
0.000729409
0.000729767
0.000713591
0.000706926
0.000720397
0.00074494
0.000765588
0.000775783
0.000782304
0.000793252
0.000806633
0.000820441
0.000827416
0.000831023
0.000836084
0.000846178
0.000858832
0.000867112
0.000862466
0.000850788
0.000840093
0.000833339
0.000839399
0.00085428
0.000874873
0.000901665
0.000931179
0.000957992
0.000977579
0.000985024
0.000976013
0.000958196
0.000943307
0.000932891
0.000924245
0.000909048
0.000889926
0.000874727
0.000871466
0.000877112
0.000881485
0.000880593
0.000876618
0.000874847
0.000884368
0.000903026
0.00091952
0.000927452
0.000927986
0.000932494
0.000947278
0.000967121
0.000985014
0.00100322
0.0010276
0.00105471
0.00106898
0.00105857
0.0010264
0.000995296
0.000986619
0.000997761
0.0010035
0.000987524
0.000964621
0.000962634
0.000992617
0.00102687
0.00104611
0.00106788
0.00111505
0.00117037
0.00118547
0.00112208
0.00103135
0.00100737
0.00106458
0.0011255
0.00110175
0.000970269
0.000913728
0.00102539
0.00117172
0.00118557
0.00103254
0.000781468
0.000933172
0.00126258
0.0013405
0.00111101
0.000761693
0.0014764
)
;

boundaryField
{
    inlet
    {
        type            fixedValue;
        value           uniform 0;
    }
    outlet
    {
        type            zeroGradient;
    }
    yzfaces
    {
        type            empty;
    }
}


// ************************************************************************* //
