/*--------------------------------*- C++ -*----------------------------------*\
| =========                 |                                                 |
| \\      /  F ield         | foam-extend: Open Source CFD                    |
|  \\    /   O peration     | Version:     5.0                                |
|   \\  /    A nd           | Web:         http://www.foam-extend.org         |
|    \\/     M anipulation  |                                                 |
\*---------------------------------------------------------------------------*/
FoamFile
{
    version     2.0;
    format      ascii;
    class       volScalarField;
    location    "10";
    object      CO2.gas;
}
// * * * * * * * * * * * * * * * * * * * * * * * * * * * * * * * * * * * * * //

dimensions      [0 0 0 0 0 0 0];

internalField   nonuniform List<scalar> 
100
(
0.170489
0.158031
0.149454
0.143031
0.137126
0.131073
0.125103
0.122357
0.120431
0.11843
0.116604
0.114202
0.113064
0.111087
0.109463
0.107575
0.106097
0.104521
0.103876
0.103047
0.10275
0.101296
0.0990186
0.0970454
0.0949155
0.093653
0.0913352
0.0891681
0.0873193
0.0847804
0.0827413
0.0812794
0.0801741
0.0793959
0.0795197
0.0794751
0.0790635
0.0788968
0.078844
0.0794835
0.080753
0.0818593
0.0833688
0.0842124
0.0844689
0.0844183
0.0837254
0.0836729
0.0831623
0.0824183
0.0811619
0.0792581
0.0769483
0.0749751
0.0733196
0.0723351
0.071497
0.0708995
0.0704556
0.0702532
0.0701723
0.0697391
0.0693263
0.0689679
0.0684853
0.067849
0.0672586
0.0667353
0.0660548
0.0654174
0.0647401
0.063986
0.0634554
0.0628665
0.0623546
0.0618638
0.0614534
0.0608886
0.060354
0.0599109
0.0594151
0.0591433
0.0587368
0.0583381
0.0578616
0.057643
0.0572523
0.0566797
0.0562179
0.0556819
0.0552851
0.0547122
0.0543171
0.0539836
0.0533691
0.0527426
0.0521524
0.0514981
0.0506116
0.0497092
)
;

boundaryField
{
    inlet
    {
        type            fixedValue;
        value           uniform 0.2;
    }
    outlet
    {
        type            zeroGradient;
    }
    yzfaces
    {
        type            empty;
    }
}


// ************************************************************************* //
