/*--------------------------------*- C++ -*----------------------------------*\
| =========                 |                                                 |
| \\      /  F ield         | foam-extend: Open Source CFD                    |
|  \\    /   O peration     | Version:     5.0                                |
|   \\  /    A nd           | Web:         http://www.foam-extend.org         |
|    \\/     M anipulation  |                                                 |
\*---------------------------------------------------------------------------*/
FoamFile
{
    version     2.0;
    format      ascii;
    class       volScalarField;
    location    "10";
    object      Na.water;
}
// * * * * * * * * * * * * * * * * * * * * * * * * * * * * * * * * * * * * * //

dimensions      [0 0 0 0 0 0 0];

internalField   nonuniform List<scalar> 
100
(
0
0.00113987
0.00251974
0.0039025
0.00489589
0.00543179
0.0057142
0.00593025
0.00621196
0.00659349
0.00697463
0.00725944
0.00741217
0.00749991
0.00760258
0.00773765
0.0079075
0.00804949
0.00812344
0.00818418
0.0082319
0.0083073
0.00839386
0.00848337
0.0085787
0.00870503
0.00885792
0.00908118
0.00936634
0.00960876
0.00984849
0.0100495
0.0102129
0.0103564
0.0104423
0.010468
0.0104931
0.0105785
0.0107029
0.0108327
0.0109328
0.0109411
0.0108971
0.0108323
0.0108009
0.0108004
0.010798
0.0107742
0.0107388
0.0107549
0.01083
0.0108997
0.0109684
0.011045
0.0111348
0.0112672
0.0113907
0.0114656
0.0114734
0.0114405
0.0113886
0.0113141
0.0112099
0.0111048
0.0110515
0.0111495
0.0113399
0.0115188
0.011601
0.0116091
0.0116487
0.0117994
0.0120029
0.0120884
0.0120425
0.0119532
0.0119054
0.0118337
0.0116783
0.0115008
0.0114999
0.0118526
0.0123074
0.0124405
0.0122083
0.0119946
0.0121495
0.0127856
0.0131103
0.0126665
0.012061
0.012062
0.0128715
0.0141163
0.0134607
0.0119922
0.0117131
0.0128392
0.0145257
0.0113442
)
;

boundaryField
{
    inlet
    {
        type            fixedValue;
        value           uniform 0;
    }
    outlet
    {
        type            zeroGradient;
    }
    yzfaces
    {
        type            empty;
    }
}


// ************************************************************************* //
