/*--------------------------------*- C++ -*----------------------------------*\
| =========                 |                                                 |
| \\      /  F ield         | foam-extend: Open Source CFD                    |
|  \\    /   O peration     | Version:     5.0                                |
|   \\  /    A nd           | Web:         http://www.foam-extend.org         |
|    \\/     M anipulation  |                                                 |
\*---------------------------------------------------------------------------*/
FoamFile
{
    version     2.0;
    format      ascii;
    class       surfaceScalarField;
    location    "10";
    object      phi;
}
// * * * * * * * * * * * * * * * * * * * * * * * * * * * * * * * * * * * * * //

dimensions      [0 3 -1 0 0 0 0];

internalField   nonuniform List<scalar> 
99
(
1.22301e-06
1.22767e-06
1.22791e-06
1.22668e-06
1.22439e-06
1.21599e-06
1.21081e-06
1.21466e-06
1.21803e-06
1.20899e-06
1.20255e-06
1.20566e-06
1.2066e-06
1.20971e-06
1.20474e-06
1.2066e-06
1.20078e-06
1.19852e-06
1.20139e-06
1.20199e-06
1.19992e-06
1.20107e-06
1.20149e-06
1.1971e-06
1.2008e-06
1.19278e-06
1.19017e-06
1.1821e-06
1.17667e-06
1.17504e-06
1.18016e-06
1.18936e-06
1.19459e-06
1.20452e-06
1.20848e-06
1.21322e-06
1.21749e-06
1.22098e-06
1.22474e-06
1.23523e-06
1.23953e-06
1.24701e-06
1.24437e-06
1.24328e-06
1.23829e-06
1.23723e-06
1.23163e-06
1.22536e-06
1.21993e-06
1.21863e-06
1.20949e-06
1.20132e-06
1.19609e-06
1.19464e-06
1.19806e-06
1.19925e-06
1.20034e-06
1.2038e-06
1.20649e-06
1.20709e-06
1.20646e-06
1.20005e-06
1.19565e-06
1.19882e-06
1.19128e-06
1.18983e-06
1.1875e-06
1.18822e-06
1.18507e-06
1.18486e-06
1.18471e-06
1.18279e-06
1.18575e-06
1.18431e-06
1.182e-06
1.18112e-06
1.17968e-06
1.17624e-06
1.17463e-06
1.17361e-06
1.176e-06
1.17482e-06
1.17656e-06
1.17442e-06
1.17455e-06
1.17292e-06
1.17327e-06
1.17383e-06
1.17421e-06
1.18056e-06
1.17974e-06
1.18213e-06
1.18227e-06
1.18054e-06
1.18085e-06
1.18151e-06
1.1829e-06
1.17878e-06
1.18098e-06
)
;

boundaryField
{
    inlet
    {
        type            calculated;
        value           uniform -1.225e-06;
    }
    outlet
    {
        type            calculated;
        value           uniform 1.17662e-06;
    }
    yzfaces
    {
        type            empty;
    }
}


// ************************************************************************* //
