/*--------------------------------*- C++ -*----------------------------------*\
| =========                 |                                                 |
| \\      /  F ield         | foam-extend: Open Source CFD                    |
|  \\    /   O peration     | Version:     5.0                                |
|   \\  /    A nd           | Web:         http://www.foam-extend.org         |
|    \\/     M anipulation  |                                                 |
\*---------------------------------------------------------------------------*/
FoamFile
{
    version     2.0;
    format      ascii;
    class       surfaceScalarField;
    location    "10";
    object      phi.water;
}
// * * * * * * * * * * * * * * * * * * * * * * * * * * * * * * * * * * * * * //

dimensions      [0 3 -1 0 0 0 0];

internalField   nonuniform List<scalar> 
99
(
5.99289e-08
1.05353e-07
1.46262e-07
1.83945e-07
2.18614e-07
2.54648e-07
2.97901e-07
3.32018e-07
3.61008e-07
3.86149e-07
4.08748e-07
4.36809e-07
4.5532e-07
4.79638e-07
5.00839e-07
5.26843e-07
5.46799e-07
5.70385e-07
5.86543e-07
6.01383e-07
6.08062e-07
6.29577e-07
6.61169e-07
6.90553e-07
7.29762e-07
7.52941e-07
7.9319e-07
8.31759e-07
8.73349e-07
9.29715e-07
9.92018e-07
1.04988e-06
1.09637e-06
1.1432e-06
1.16067e-06
1.17651e-06
1.19819e-06
1.21522e-06
1.2271e-06
1.22326e-06
1.19849e-06
1.17485e-06
1.13372e-06
1.10376e-06
1.08474e-06
1.07824e-06
1.08899e-06
1.08588e-06
1.09113e-06
1.10583e-06
1.13214e-06
1.17341e-06
1.23556e-06
1.30157e-06
1.36541e-06
1.41176e-06
1.4514e-06
1.4838e-06
1.50866e-06
1.52181e-06
1.5271e-06
1.53549e-06
1.54469e-06
1.56354e-06
1.57051e-06
1.59606e-06
1.61882e-06
1.64272e-06
1.66805e-06
1.69743e-06
1.73069e-06
1.76486e-06
1.80078e-06
1.82888e-06
1.8544e-06
1.88308e-06
1.90264e-06
1.92489e-06
1.95219e-06
1.97946e-06
2.01252e-06
2.02917e-06
2.05518e-06
2.07523e-06
2.09867e-06
2.11424e-06
2.14105e-06
2.17213e-06
2.20261e-06
2.25045e-06
2.27565e-06
2.315e-06
2.34589e-06
2.37072e-06
2.41188e-06
2.45312e-06
2.49609e-06
2.53326e-06
2.59826e-06
)
;

boundaryField
{
    inlet
    {
        type            fixedValue;
        value           uniform 0;
    }
    outlet
    {
        type            calculated;
        value           uniform 2.66681e-06;
    }
    yzfaces
    {
        type            empty;
    }
}


// ************************************************************************* //
