/*--------------------------------*- C++ -*----------------------------------*\
| =========                 |                                                 |
| \\      /  F ield         | foam-extend: Open Source CFD                    |
|  \\    /   O peration     | Version:     5.0                                |
|   \\  /    A nd           | Web:         http://www.foam-extend.org         |
|    \\/     M anipulation  |                                                 |
\*---------------------------------------------------------------------------*/
FoamFile
{
    version     2.0;
    format      ascii;
    class       volVectorField;
    location    "10";
    object      U.gas;
}
// * * * * * * * * * * * * * * * * * * * * * * * * * * * * * * * * * * * * * //

dimensions      [0 1 -1 0 0 0 0];

internalField   nonuniform List<vector> 
100
(
(0.0058703 0 0)
(0.00630635 0 0)
(0.00665981 0 0)
(0.00694816 0 0)
(0.00719117 0 0)
(0.00740923 0 0)
(0.00763843 0 0)
(0.00784236 0 0)
(0.00803851 0 0)
(0.00817907 0 0)
(0.00826156 0 0)
(0.00838813 0 0)
(0.0084942 0 0)
(0.0086273 0 0)
(0.00872918 0 0)
(0.00883101 0 0)
(0.00892076 0 0)
(0.00900074 0 0)
(0.00906093 0 0)
(0.00913958 0 0)
(0.0091655 0 0)
(0.00924636 0 0)
(0.00937303 0 0)
(0.00947423 0 0)
(0.00960399 0 0)
(0.00968536 0 0)
(0.00978518 0 0)
(0.00988751 0 0)
(0.00998301 0 0)
(0.0101408 0 0)
(0.0103323 0 0)
(0.0105422 0 0)
(0.0107334 0 0)
(0.0109166 0 0)
(0.0110168 0 0)
(0.0110941 0 0)
(0.011192 0 0)
(0.0112654 0 0)
(0.0113196 0 0)
(0.0113482 0 0)
(0.0113445 0 0)
(0.0113265 0 0)
(0.0112433 0 0)
(0.0111527 0 0)
(0.0110908 0 0)
(0.0110567 0 0)
(0.01107 0 0)
(0.0110141 0 0)
(0.0109877 0 0)
(0.0110027 0 0)
(0.0110444 0 0)
(0.0110908 0 0)
(0.0111959 0 0)
(0.0113126 0 0)
(0.0114531 0 0)
(0.0115583 0 0)
(0.0116375 0 0)
(0.0117071 0 0)
(0.0117728 0 0)
(0.0118059 0 0)
(0.0118105 0 0)
(0.0118071 0 0)
(0.0117788 0 0)
(0.011796 0 0)
(0.0118042 0 0)
(0.0118159 0 0)
(0.0118345 0 0)
(0.0118601 0 0)
(0.0119002 0 0)
(0.0119327 0 0)
(0.0119858 0 0)
(0.0120358 0 0)
(0.0120803 0 0)
(0.0121323 0 0)
(0.0121565 0 0)
(0.0121736 0 0)
(0.012183 0 0)
(0.0121974 0 0)
(0.0122123 0 0)
(0.0122306 0 0)
(0.0122715 0 0)
(0.0122882 0 0)
(0.0123185 0 0)
(0.012337 0 0)
(0.0123563 0 0)
(0.0123625 0 0)
(0.0123821 0 0)
(0.0124234 0 0)
(0.0124579 0 0)
(0.0125285 0 0)
(0.0125726 0 0)
(0.0126217 0 0)
(0.012658 0 0)
(0.0126649 0 0)
(0.0126909 0 0)
(0.0127211 0 0)
(0.0127627 0 0)
(0.0127777 0 0)
(0.0128138 0 0)
(0.0128368 0 0)
)
;

boundaryField
{
    inlet
    {
        type            fixedValue;
        value           uniform (0.005 0 0);
    }
    outlet
    {
        type            zeroGradient;
    }
    yzfaces
    {
        type            empty;
    }
}


// ************************************************************************* //
