/*--------------------------------*- C++ -*----------------------------------*\
| =========                 |                                                 |
| \\      /  F ield         | foam-extend: Open Source CFD                    |
|  \\    /   O peration     | Version:     5.0                                |
|   \\  /    A nd           | Web:         http://www.foam-extend.org         |
|    \\/     M anipulation  |                                                 |
\*---------------------------------------------------------------------------*/
FoamFile
{
    version     2.0;
    format      ascii;
    class       volVectorField;
    location    "10";
    object      U.water;
}
// * * * * * * * * * * * * * * * * * * * * * * * * * * * * * * * * * * * * * //

dimensions      [0 1 -1 0 0 0 0];

internalField   nonuniform List<vector> 
100
(
(2.93384e-05 0 0)
(6.82705e-05 0 0)
(0.000102906 0 0)
(0.000134609 0 0)
(0.000163698 0 0)
(0.000191367 0 0)
(0.000221547 0 0)
(0.000253995 0 0)
(0.000281915 0 0)
(0.000305549 0 0)
(0.00032633 0 0)
(0.000346758 0 0)
(0.000367167 0 0)
(0.00038436 0 0)
(0.000402965 0 0)
(0.000421869 0 0)
(0.000440842 0 0)
(0.000458234 0 0)
(0.000476055 0 0)
(0.000489012 0 0)
(0.000499333 0 0)
(0.000509306 0 0)
(0.000527669 0 0)
(0.000550105 0 0)
(0.000575529 0 0)
(0.000600534 0 0)
(0.000623296 0 0)
(0.000652791 0 0)
(0.000684139 0 0)
(0.000721513 0 0)
(0.000768987 0 0)
(0.000820072 0 0)
(0.000866915 0 0)
(0.000910339 0 0)
(0.00094511 0 0)
(0.000964984 0 0)
(0.00098365 0 0)
(0.0010031 0 0)
(0.00101825 0 0)
(0.00102697 0 0)
(0.00102139 0 0)
(0.00100517 0 0)
(0.000981447 0 0)
(0.000951196 0 0)
(0.000927667 0 0)
(0.000914194 0 0)
(0.000911946 0 0)
(0.00091452 0 0)
(0.000913335 0 0)
(0.000918995 0 0)
(0.00093182 0 0)
(0.000954128 0 0)
(0.000990146 0 0)
(0.0010389 0 0)
(0.00109046 0 0)
(0.00113698 0 0)
(0.0011736 0 0)
(0.0012045 0 0)
(0.00122926 0 0)
(0.00124641 0 0)
(0.00125516 0 0)
(0.00125896 0 0)
(0.00126417 0 0)
(0.00127397 0 0)
(0.00128289 0 0)
(0.00129363 0 0)
(0.00131174 0 0)
(0.00132948 0 0)
(0.00134769 0 0)
(0.00136903 0 0)
(0.00139399 0 0)
(0.0014209 0 0)
(0.00145038 0 0)
(0.00147725 0 0)
(0.00149988 0 0)
(0.00152237 0 0)
(0.00154195 0 0)
(0.00155771 0 0)
(0.0015775 0 0)
(0.00160074 0 0)
(0.00162579 0 0)
(0.00164727 0 0)
(0.001664 0 0)
(0.00168146 0 0)
(0.0016981 0 0)
(0.0017154 0 0)
(0.00173281 0 0)
(0.00175488 0 0)
(0.00177984 0 0)
(0.00181186 0 0)
(0.00184299 0 0)
(0.00187004 0 0)
(0.00190176 0 0)
(0.00192772 0 0)
(0.00195378 0 0)
(0.00198592 0 0)
(0.00201987 0 0)
(0.00205237 0 0)
(0.00209265 0 0)
(0.00214336 0 0)
)
;

boundaryField
{
    inlet
    {
        type            fixedValue;
        value           uniform (0 0 0);
    }
    outlet
    {
        type            zeroGradient;
    }
    yzfaces
    {
        type            empty;
    }
}


// ************************************************************************* //
