/*--------------------------------*- C++ -*----------------------------------*\
| =========                 |                                                 |
| \\      /  F ield         | foam-extend: Open Source CFD                    |
|  \\    /   O peration     | Version:     5.0                                |
|   \\  /    A nd           | Web:         http://www.foam-extend.org         |
|    \\/     M anipulation  |                                                 |
\*---------------------------------------------------------------------------*/
FoamFile
{
    version     2.0;
    format      ascii;
    class       volScalarField;
    location    "3";
    object      Na.water;
}
// * * * * * * * * * * * * * * * * * * * * * * * * * * * * * * * * * * * * * //

dimensions      [0 0 0 0 0 0 0];

internalField   nonuniform List<scalar> 
100
(
0.0112399
0.0146294
0.0167518
0.0182382
0.019555
0.0205235
0.0213397
0.0220756
0.0227879
0.0234396
0.0240274
0.0244799
0.0249167
0.0253928
0.0258221
0.0260541
0.02644
0.0267701
0.0270575
0.0274254
0.0277179
0.0280146
0.0283327
0.0285437
0.0287947
0.0290042
0.0291807
0.0294317
0.0296244
0.0298899
0.0301477
0.030292
0.0305478
0.0307229
0.0309069
0.0311185
0.0312944
0.0315114
0.0317078
0.0319605
0.0322171
0.0324056
0.0326386
0.0337931
0.0340475
0.034336
0.0346215
0.0349072
0.0351844
0.0354812
0.0358045
0.0361791
0.0365669
0.0369735
0.0374194
0.0378789
0.0382818
0.0386973
0.0390212
0.0392979
0.0395515
0.0397276
0.0398549
0.0398951
0.0398823
0.0399469
0.0399686
0.0399775
0.0399996
0.0400068
0.0400158
0.0400647
0.040036
0.0400435
0.040026
0.0400125
0.0399846
0.0400036
0.0399804
0.0399985
0.0400108
0.0400229
0.0399955
0.0400028
0.0399841
0.0400019
0.0400217
0.040039
0.0400103
0.0400216
0.0400135
0.0400058
0.0400205
0.0400059
0.0400656
0.0400057
0.0399909
0.0399871
0.0400206
0.0399859
)
;

boundaryField
{
    inlet
    {
        type            fixedValue;
        value           uniform 0;
    }
    outlet
    {
        type            zeroGradient;
    }
    yzfaces
    {
        type            empty;
    }
}


// ************************************************************************* //
