/*--------------------------------*- C++ -*----------------------------------*\
| =========                 |                                                 |
| \\      /  F ield         | foam-extend: Open Source CFD                    |
|  \\    /   O peration     | Version:     5.0                                |
|   \\  /    A nd           | Web:         http://www.foam-extend.org         |
|    \\/     M anipulation  |                                                 |
\*---------------------------------------------------------------------------*/
FoamFile
{
    version     2.0;
    format      ascii;
    class       surfaceScalarField;
    location    "3";
    object      phi;
}
// * * * * * * * * * * * * * * * * * * * * * * * * * * * * * * * * * * * * * //

dimensions      [0 3 -1 0 0 0 0];

internalField   nonuniform List<scalar> 
99
(
1.22799e-06
1.22625e-06
1.21714e-06
1.22233e-06
1.23043e-06
1.2263e-06
1.23042e-06
1.23079e-06
1.23289e-06
1.22721e-06
1.22677e-06
1.22737e-06
1.23069e-06
1.22631e-06
1.22322e-06
1.22076e-06
1.21593e-06
1.2141e-06
1.21615e-06
1.21364e-06
1.21514e-06
1.21521e-06
1.21591e-06
1.21669e-06
1.21886e-06
1.21798e-06
1.2224e-06
1.22101e-06
1.22159e-06
1.22387e-06
1.2267e-06
1.22202e-06
1.221e-06
1.22016e-06
1.22148e-06
1.22031e-06
1.21695e-06
1.2159e-06
1.21257e-06
1.21482e-06
1.21201e-06
1.21244e-06
1.21179e-06
1.2117e-06
1.21286e-06
1.21304e-06
1.21523e-06
1.21249e-06
1.21274e-06
1.21079e-06
1.21003e-06
1.21124e-06
1.21106e-06
1.21007e-06
1.21069e-06
1.21032e-06
1.20974e-06
1.21002e-06
1.20951e-06
1.21059e-06
1.2118e-06
1.21163e-06
1.21031e-06
1.21019e-06
1.21241e-06
1.21137e-06
1.21188e-06
1.21173e-06
1.21265e-06
1.21297e-06
1.21414e-06
1.21408e-06
1.21443e-06
1.21484e-06
1.21435e-06
1.21409e-06
1.21143e-06
1.21045e-06
1.21096e-06
1.21181e-06
1.21218e-06
1.21159e-06
1.21248e-06
1.21087e-06
1.20924e-06
1.21049e-06
1.21069e-06
1.21021e-06
1.21186e-06
1.21107e-06
1.21012e-06
1.20925e-06
1.20844e-06
1.20741e-06
1.20643e-06
1.20451e-06
1.20606e-06
1.20568e-06
1.2063e-06
)
;

boundaryField
{
    inlet
    {
        type            calculated;
        value           uniform -1.225e-06;
    }
    outlet
    {
        type            calculated;
        value           uniform 1.20543e-06;
    }
    yzfaces
    {
        type            empty;
    }
}


// ************************************************************************* //
