/*--------------------------------*- C++ -*----------------------------------*\
| =========                 |                                                 |
| \\      /  F ield         | foam-extend: Open Source CFD                    |
|  \\    /   O peration     | Version:     5.0                                |
|   \\  /    A nd           | Web:         http://www.foam-extend.org         |
|    \\/     M anipulation  |                                                 |
\*---------------------------------------------------------------------------*/
FoamFile
{
    version     2.0;
    format      ascii;
    class       surfaceScalarField;
    location    "3";
    object      phi.water;
}
// * * * * * * * * * * * * * * * * * * * * * * * * * * * * * * * * * * * * * //

dimensions      [0 3 -1 0 0 0 0];

internalField   nonuniform List<scalar> 
99
(
1.60538e-07
2.80966e-07
3.77447e-07
4.77921e-07
5.76161e-07
6.66674e-07
7.58589e-07
8.45946e-07
9.31559e-07
9.93138e-07
1.07048e-06
1.14939e-06
1.23286e-06
1.29251e-06
1.36186e-06
1.43831e-06
1.5058e-06
1.57848e-06
1.65925e-06
1.72452e-06
1.8081e-06
1.87773e-06
1.94907e-06
2.02148e-06
2.09009e-06
2.15519e-06
2.24641e-06
2.31101e-06
2.39083e-06
2.47076e-06
2.54626e-06
2.60587e-06
2.68006e-06
2.75838e-06
2.84361e-06
2.91849e-06
2.99184e-06
3.07672e-06
3.16183e-06
3.26299e-06
3.34963e-06
3.44932e-06
3.54919e-06
3.66143e-06
3.77851e-06
3.89409e-06
4.02674e-06
4.14746e-06
4.2899e-06
4.43305e-06
4.59008e-06
4.76289e-06
4.9392e-06
5.11698e-06
5.30106e-06
5.47697e-06
5.63543e-06
5.77277e-06
5.87916e-06
5.95803e-06
6.00882e-06
6.03699e-06
6.05041e-06
6.06555e-06
6.08173e-06
6.07506e-06
6.07803e-06
6.07601e-06
6.07927e-06
6.08052e-06
6.08257e-06
6.08134e-06
6.08524e-06
6.0887e-06
6.08919e-06
6.09139e-06
6.08003e-06
6.07593e-06
6.07838e-06
6.08019e-06
6.07963e-06
6.07737e-06
6.08317e-06
6.07599e-06
6.0689e-06
6.07257e-06
6.0704e-06
6.06844e-06
6.07759e-06
6.07338e-06
6.07032e-06
6.06647e-06
6.06284e-06
6.05499e-06
6.0503e-06
6.04592e-06
6.05515e-06
6.05104e-06
6.05401e-06
)
;

boundaryField
{
    inlet
    {
        type            fixedValue;
        value           uniform 0;
    }
    outlet
    {
        type            calculated;
        value           uniform 6.05214e-06;
    }
    yzfaces
    {
        type            empty;
    }
}


// ************************************************************************* //
