/*--------------------------------*- C++ -*----------------------------------*\
| =========                 |                                                 |
| \\      /  F ield         | foam-extend: Open Source CFD                    |
|  \\    /   O peration     | Version:     5.0                                |
|   \\  /    A nd           | Web:         http://www.foam-extend.org         |
|    \\/     M anipulation  |                                                 |
\*---------------------------------------------------------------------------*/
FoamFile
{
    version     2.0;
    format      ascii;
    class       volScalarField;
    location    "5";
    object      alpha.gas;
}
// * * * * * * * * * * * * * * * * * * * * * * * * * * * * * * * * * * * * * //

dimensions      [0 0 0 0 0 0 0];

internalField   nonuniform List<scalar> 
100
(
0.156365
0.141682
0.133796
0.126576
0.120667
0.114571
0.110307
0.106178
0.102806
0.0991172
0.0966903
0.0938361
0.0917282
0.0891701
0.0874849
0.0857468
0.0846431
0.0830338
0.0815998
0.0800991
0.0786568
0.0776777
0.0764078
0.0752369
0.0742604
0.0729718
0.0720161
0.071056
0.0701531
0.0692055
0.0683172
0.0672316
0.066469
0.0656899
0.0647619
0.0638929
0.0630404
0.0623697
0.0615726
0.0607594
0.0599834
0.059165
0.058571
0.057908
0.0573543
0.0567549
0.0561075
0.0555346
0.0548674
0.0541971
0.0535372
0.0529882
0.0524127
0.0518419
0.0513317
0.0507488
0.0501456
0.0495585
0.0488585
0.0482286
0.0477171
0.0471301
0.0463994
0.0457331
0.0450743
0.0444324
0.0437665
0.0431051
0.0424251
0.0416922
0.0409843
0.0402362
0.0395009
0.038772
0.0380008
0.0371934
0.0363625
0.0354588
0.0345077
0.033488
0.0324076
0.0312214
0.0299532
0.0285968
0.027128
0.0255211
0.023787
0.0219464
0.0200239
0.0180922
0.0162453
0.0145851
0.0131897
0.0121127
0.0113401
0.0108235
0.0104987
0.0102947
0.0101743
0.0101013
)
;

boundaryField
{
    inlet
    {
        type            fixedValue;
        value           uniform 0.2;
    }
    outlet
    {
        type            zeroGradient;
    }
    yzfaces
    {
        type            empty;
    }
}


// ************************************************************************* //
