/*--------------------------------*- C++ -*----------------------------------*\
| =========                 |                                                 |
| \\      /  F ield         | foam-extend: Open Source CFD                    |
|  \\    /   O peration     | Version:     5.0                                |
|   \\  /    A nd           | Web:         http://www.foam-extend.org         |
|    \\/     M anipulation  |                                                 |
\*---------------------------------------------------------------------------*/
FoamFile
{
    version     2.0;
    format      ascii;
    class       volScalarField;
    location    "5";
    object      alpha.gas;
}
// * * * * * * * * * * * * * * * * * * * * * * * * * * * * * * * * * * * * * //

dimensions      [0 0 0 0 0 0 0];

internalField   nonuniform List<scalar> 
100
(
0.155978
0.142568
0.134307
0.126505
0.120776
0.115088
0.110172
0.105962
0.103175
0.100013
0.0969905
0.0943036
0.0919583
0.0897966
0.0879946
0.086422
0.0849757
0.0835429
0.0817232
0.0798763
0.0783914
0.0772338
0.0760462
0.0751374
0.0741245
0.072897
0.0719405
0.070959
0.069984
0.0690485
0.0680854
0.0673632
0.0662573
0.0655304
0.0646452
0.0637266
0.0628823
0.0621837
0.0613369
0.0606149
0.059912
0.0591715
0.0585194
0.0578282
0.0571772
0.0564939
0.0558671
0.0552103
0.0546016
0.0541185
0.0535319
0.0529012
0.0523342
0.0518288
0.051239
0.0506778
0.0500034
0.0494927
0.0488761
0.0482755
0.0476821
0.0469994
0.0462718
0.0456223
0.0449793
0.0443155
0.0436867
0.0430048
0.0423411
0.0416244
0.0409047
0.0401744
0.0394234
0.0386384
0.0378549
0.0370231
0.0361883
0.035273
0.0343041
0.0332731
0.0321932
0.0310134
0.0297391
0.0283482
0.0268373
0.0252044
0.0234274
0.0215546
0.0196029
0.0176651
0.0158286
0.014211
0.0128843
0.0118905
0.011189
0.0107254
0.0104353
0.0102571
0.0101524
0.0100917
)
;

boundaryField
{
    inlet
    {
        type            fixedValue;
        value           uniform 0.2;
    }
    outlet
    {
        type            zeroGradient;
    }
    yzfaces
    {
        type            empty;
    }
}


// ************************************************************************* //
