/*--------------------------------*- C++ -*----------------------------------*\
| =========                 |                                                 |
| \\      /  F ield         | foam-extend: Open Source CFD                    |
|  \\    /   O peration     | Version:     5.0                                |
|   \\  /    A nd           | Web:         http://www.foam-extend.org         |
|    \\/     M anipulation  |                                                 |
\*---------------------------------------------------------------------------*/
FoamFile
{
    version     2.0;
    format      ascii;
    class       volScalarField;
    location    "5";
    object      alpha.gas;
}
// * * * * * * * * * * * * * * * * * * * * * * * * * * * * * * * * * * * * * //

dimensions      [0 0 0 0 0 0 0];

internalField   nonuniform List<scalar> 
100
(
0.156025
0.141213
0.133989
0.126052
0.121092
0.116152
0.11103
0.106427
0.103068
0.0995473
0.0961534
0.0939894
0.0916478
0.0896129
0.0877292
0.0863089
0.0850077
0.0831468
0.0818137
0.080364
0.0789222
0.0775959
0.076236
0.0752404
0.0743121
0.073261
0.0720788
0.0709531
0.0698879
0.0690898
0.0680894
0.0671676
0.0662759
0.065561
0.0647182
0.0638566
0.0630195
0.0622207
0.0615245
0.060824
0.0601082
0.059324
0.0587067
0.0580416
0.0572168
0.0566004
0.0558613
0.0552296
0.0546938
0.0540702
0.0534193
0.0528532
0.0521989
0.0516837
0.0511225
0.050516
0.0499504
0.049375
0.0487843
0.0481484
0.0475587
0.0469504
0.046277
0.045669
0.0450131
0.0443824
0.0437097
0.043043
0.0423363
0.0417002
0.0409707
0.0402665
0.0395118
0.0387154
0.0379498
0.0371163
0.0362083
0.035306
0.0343449
0.0333157
0.0322492
0.0310799
0.029808
0.0283927
0.0268815
0.0252268
0.0234515
0.0215537
0.0196073
0.0176659
0.0158369
0.0142245
0.0129029
0.0119016
0.0111952
0.0107309
0.0104383
0.0102599
0.0101538
0.0100875
)
;

boundaryField
{
    inlet
    {
        type            fixedValue;
        value           uniform 0.2;
    }
    outlet
    {
        type            zeroGradient;
    }
    yzfaces
    {
        type            empty;
    }
}


// ************************************************************************* //
