/*--------------------------------*- C++ -*----------------------------------*\
| =========                 |                                                 |
| \\      /  F ield         | foam-extend: Open Source CFD                    |
|  \\    /   O peration     | Version:     5.0                                |
|   \\  /    A nd           | Web:         http://www.foam-extend.org         |
|    \\/     M anipulation  |                                                 |
\*---------------------------------------------------------------------------*/
FoamFile
{
    version     2.0;
    format      ascii;
    class       volScalarField;
    location    "5";
    object      Cl.water;
}
// * * * * * * * * * * * * * * * * * * * * * * * * * * * * * * * * * * * * * //

dimensions      [0 0 0 0 0 0 0];

internalField   nonuniform List<scalar> 
100
(
0.00504585
0.00673681
0.00759409
0.00847281
0.00908365
0.00964392
0.010224
0.0107364
0.0111423
0.0115473
0.0119184
0.0121797
0.0124365
0.0126742
0.0128827
0.0130578
0.0132168
0.0134141
0.0135761
0.0137335
0.0139061
0.0140532
0.0142023
0.0143279
0.0144459
0.0145628
0.0146899
0.0148212
0.0149376
0.0150401
0.0151459
0.0152538
0.0153478
0.0154398
0.0155356
0.0156273
0.0157273
0.0158209
0.0159013
0.0159806
0.0160651
0.0161513
0.0162348
0.0163115
0.0163969
0.0164763
0.0165565
0.0166332
0.0166969
0.0167622
0.0168335
0.016901
0.0169726
0.017035
0.017103
0.017167
0.0172315
0.017302
0.0173691
0.017441
0.0175137
0.0175887
0.0176622
0.017733
0.017798
0.0178731
0.0179523
0.0180273
0.0181013
0.0181779
0.018258
0.0183381
0.0184228
0.0185133
0.0186117
0.0187085
0.0188066
0.0189121
0.0190103
0.0191194
0.0191963
0.0190773
0.0205343
0.0207299
0.020926
0.0211401
0.021358
0.0216006
0.0218398
0.0220869
0.022314
0.0224926
0.0226521
0.0227582
0.0228574
0.0228987
0.0229389
0.0229659
0.0229986
0.0229904
)
;

boundaryField
{
    inlet
    {
        type            fixedValue;
        value           uniform 0;
    }
    outlet
    {
        type            zeroGradient;
    }
    yzfaces
    {
        type            empty;
    }
}


// ************************************************************************* //
