/*--------------------------------*- C++ -*----------------------------------*\
| =========                 |                                                 |
| \\      /  F ield         | foam-extend: Open Source CFD                    |
|  \\    /   O peration     | Version:     5.0                                |
|   \\  /    A nd           | Web:         http://www.foam-extend.org         |
|    \\/     M anipulation  |                                                 |
\*---------------------------------------------------------------------------*/
FoamFile
{
    version     2.0;
    format      ascii;
    class       volScalarField;
    location    "5";
    object      Cl.water;
}
// * * * * * * * * * * * * * * * * * * * * * * * * * * * * * * * * * * * * * //

dimensions      [0 0 0 0 0 0 0];

internalField   nonuniform List<scalar> 
100
(
0.00501112
0.00669251
0.00762333
0.00842441
0.00912167
0.00980281
0.0102996
0.0107792
0.0111633
0.0115852
0.0118778
0.0121885
0.0124442
0.0127286
0.0129268
0.0131108
0.0132438
0.0134286
0.0135908
0.0137699
0.0139279
0.0140596
0.0141927
0.0143202
0.0144419
0.0145811
0.0146963
0.0148073
0.0149104
0.0150201
0.015121
0.015242
0.0153442
0.0154343
0.015537
0.0156392
0.0157341
0.0158181
0.0159058
0.0159933
0.0160866
0.0161705
0.0162456
0.0163138
0.0163859
0.0164565
0.0165248
0.0165967
0.0166683
0.0167484
0.016819
0.0168868
0.0169497
0.017015
0.0170786
0.0171403
0.0172158
0.0172841
0.0173562
0.0174247
0.0174947
0.0175623
0.0176367
0.017715
0.0177915
0.0178703
0.0179441
0.0180181
0.0180894
0.0181252
0.0179947
0.0192897
0.0194285
0.0195287
0.0196152
0.0196886
0.0198084
0.0199065
0.0200199
0.0201433
0.0202801
0.0204179
0.0206016
0.0207847
0.0209412
0.0211192
0.0213221
0.0215364
0.0217507
0.0219871
0.02223
0.0224365
0.0225891
0.0227286
0.0228243
0.0229091
0.0229606
0.0229834
0.022986
0.023012
)
;

boundaryField
{
    inlet
    {
        type            fixedValue;
        value           uniform 0;
    }
    outlet
    {
        type            zeroGradient;
    }
    yzfaces
    {
        type            empty;
    }
}


// ************************************************************************* //
