/*--------------------------------*- C++ -*----------------------------------*\
| =========                 |                                                 |
| \\      /  F ield         | foam-extend: Open Source CFD                    |
|  \\    /   O peration     | Version:     5.0                                |
|   \\  /    A nd           | Web:         http://www.foam-extend.org         |
|    \\/     M anipulation  |                                                 |
\*---------------------------------------------------------------------------*/
FoamFile
{
    version     2.0;
    format      ascii;
    class       volScalarField;
    location    "5";
    object      Cl.water;
}
// * * * * * * * * * * * * * * * * * * * * * * * * * * * * * * * * * * * * * //

dimensions      [0 0 0 0 0 0 0];

internalField   nonuniform List<scalar> 
100
(
0.00505283
0.0065874
0.00756833
0.00844143
0.00910301
0.00975347
0.0103177
0.0107964
0.0111301
0.0114752
0.0118247
0.0121298
0.0124095
0.012648
0.012848
0.0130421
0.0132197
0.0133767
0.0135835
0.0137825
0.0139554
0.014093
0.0142287
0.0143437
0.0144635
0.0145974
0.0147094
0.0148211
0.0149244
0.0150388
0.0151453
0.0152327
0.015351
0.0154486
0.0155459
0.01564
0.0157419
0.0158258
0.0159211
0.0160034
0.0160816
0.0161669
0.0162463
0.0163272
0.0164011
0.0164743
0.0165524
0.0166255
0.016696
0.0167613
0.0168201
0.0168912
0.0169543
0.0170191
0.0170904
0.0171511
0.0172195
0.017284
0.0173486
0.0174166
0.0174896
0.0175661
0.0176438
0.0177252
0.0177976
0.0178747
0.0179484
0.0180202
0.0180894
0.018125
0.0180007
0.0193271
0.0194404
0.0195412
0.0196345
0.0197342
0.0198563
0.0199547
0.0200814
0.0202146
0.0203667
0.0204794
0.0206251
0.0207974
0.0209848
0.0211714
0.0213674
0.0215891
0.0218276
0.0220796
0.0222837
0.0224888
0.0226454
0.0227721
0.0228457
0.0229131
0.0229491
0.0229861
0.023007
0.0230072
)
;

boundaryField
{
    inlet
    {
        type            fixedValue;
        value           uniform 0;
    }
    outlet
    {
        type            zeroGradient;
    }
    yzfaces
    {
        type            empty;
    }
}


// ************************************************************************* //
