/*--------------------------------*- C++ -*----------------------------------*\
| =========                 |                                                 |
| \\      /  F ield         | foam-extend: Open Source CFD                    |
|  \\    /   O peration     | Version:     5.0                                |
|   \\  /    A nd           | Web:         http://www.foam-extend.org         |
|    \\/     M anipulation  |                                                 |
\*---------------------------------------------------------------------------*/
FoamFile
{
    version     2.0;
    format      ascii;
    class       volScalarField;
    location    "5";
    object      CO2.water;
}
// * * * * * * * * * * * * * * * * * * * * * * * * * * * * * * * * * * * * * //

dimensions      [0 0 0 0 0 0 0];

internalField   nonuniform List<scalar> 
100
(
0.00115499
0.00154401
0.00173374
0.00194221
0.00207248
0.00220222
0.00233675
0.00245766
0.00254589
0.00263834
0.00272748
0.00278432
0.00284582
0.00289927
0.00294874
0.00298605
0.00302022
0.0030691
0.00310411
0.00314218
0.00318005
0.00321489
0.00325061
0.00327675
0.00330113
0.00332874
0.00335979
0.00338936
0.00341733
0.0034383
0.00346457
0.00348878
0.0035122
0.00353098
0.00355311
0.00357574
0.00359773
0.00361871
0.00363699
0.00365539
0.00367419
0.00369479
0.003711
0.00372847
0.00375013
0.00376632
0.00378574
0.00380233
0.0038164
0.00383278
0.00384987
0.00386474
0.00388193
0.00389546
0.0039102
0.00392613
0.00394098
0.0039561
0.00397161
0.00398831
0.0040038
0.00401978
0.00403746
0.00405343
0.00407066
0.00408723
0.00410489
0.0041224
0.00414096
0.00415767
0.00417683
0.00419533
0.00421515
0.00423606
0.00425617
0.00427807
0.00430191
0.00432561
0.00435085
0.00437789
0.0044059
0.00443661
0.000252401
6.21669e-05
1.57789e-05
4.13553e-06
1.12222e-06
3.14057e-07
9.0114e-08
2.62364e-08
7.34635e-09
1.96005e-09
7.46834e-10
3.02602e-10
1.23156e-10
5.02887e-11
2.05527e-11
8.43706e-12
3.44527e-12
1.77388e-12
)
;

boundaryField
{
    inlet
    {
        type            fixedValue;
        value           uniform 0;
    }
    outlet
    {
        type            zeroGradient;
    }
    yzfaces
    {
        type            empty;
    }
}


// ************************************************************************* //
