/*--------------------------------*- C++ -*----------------------------------*\
| =========                 |                                                 |
| \\      /  F ield         | foam-extend: Open Source CFD                    |
|  \\    /   O peration     | Version:     5.0                                |
|   \\  /    A nd           | Web:         http://www.foam-extend.org         |
|    \\/     M anipulation  |                                                 |
\*---------------------------------------------------------------------------*/
FoamFile
{
    version     2.0;
    format      ascii;
    class       volScalarField;
    location    "5";
    object      CO2.gas;
}
// * * * * * * * * * * * * * * * * * * * * * * * * * * * * * * * * * * * * * //

dimensions      [0 0 0 0 0 0 0];

internalField   nonuniform List<scalar> 
100
(
0.156061
0.141406
0.133536
0.12633
0.120432
0.114348
0.110092
0.105971
0.102605
0.0989242
0.096502
0.0936533
0.0915496
0.0889964
0.0873146
0.0855799
0.0844782
0.0828721
0.0814409
0.0799431
0.0785036
0.0775264
0.076259
0.0750904
0.0741158
0.0728297
0.0718758
0.0709176
0.0700164
0.0690707
0.0681842
0.0671007
0.0663396
0.065562
0.0646357
0.0637685
0.0629176
0.0622482
0.0614527
0.0606411
0.0598666
0.0590498
0.0584569
0.0577952
0.0572426
0.0566444
0.0559983
0.0554264
0.0547605
0.0540915
0.053433
0.052885
0.0523106
0.051741
0.0512317
0.05065
0.0500479
0.049462
0.0487634
0.0481347
0.0476242
0.0470383
0.046309
0.0456441
0.0449865
0.0443459
0.0436813
0.0430212
0.0423424
0.041611
0.0409045
0.0331319
0.0293431
0.0258322
0.0225586
0.0195148
0.0167622
0.0141959
0.0118866
0.00981955
0.00799808
0.0063905
0.00501167
0.00383853
0.00285394
0.00205249
0.00141837
0.000933133
0.000577943
0.000333247
0.000176996
8.55212e-05
3.74013e-05
1.4882e-05
5.42121e-06
1.83485e-06
5.78058e-07
1.67455e-07
4.15811e-08
0
)
;

boundaryField
{
    inlet
    {
        type            fixedValue;
        value           uniform 0.2;
    }
    outlet
    {
        type            zeroGradient;
    }
    yzfaces
    {
        type            empty;
    }
}


// ************************************************************************* //
