/*--------------------------------*- C++ -*----------------------------------*\
| =========                 |                                                 |
| \\      /  F ield         | foam-extend: Open Source CFD                    |
|  \\    /   O peration     | Version:     5.0                                |
|   \\  /    A nd           | Web:         http://www.foam-extend.org         |
|    \\/     M anipulation  |                                                 |
\*---------------------------------------------------------------------------*/
FoamFile
{
    version     2.0;
    format      ascii;
    class       volScalarField;
    location    "5";
    object      CO2.gas;
}
// * * * * * * * * * * * * * * * * * * * * * * * * * * * * * * * * * * * * * //

dimensions      [0 0 0 0 0 0 0];

internalField   nonuniform List<scalar> 
100
(
0.155675
0.14229
0.134045
0.126259
0.120541
0.114863
0.109958
0.105756
0.102974
0.0998181
0.0968016
0.0941199
0.0917792
0.0896218
0.0878232
0.0862537
0.0848103
0.0833802
0.081564
0.0797208
0.0782387
0.0770834
0.0758981
0.074991
0.0739801
0.0727551
0.0718004
0.0708208
0.0698477
0.068914
0.0679528
0.067232
0.0661282
0.0654027
0.0645193
0.0636025
0.0627599
0.0620626
0.0612174
0.0604969
0.0597953
0.0590563
0.0584055
0.0577156
0.0570659
0.0563838
0.0557583
0.0551028
0.0544953
0.0540131
0.0534277
0.0527981
0.0522323
0.0517278
0.0511392
0.0505791
0.049906
0.0493963
0.0487809
0.0481814
0.0475893
0.0469078
0.0461817
0.0455334
0.0448917
0.0442292
0.0436016
0.042921
0.0422586
0.0415434
0.040825
0.0330058
0.0291034
0.0254938
0.0221951
0.0191424
0.0163819
0.013839
0.0115512
0.00951153
0.00772113
0.00613979
0.00478275
0.00363432
0.00268459
0.00191349
0.00130553
0.000846571
0.000514956
0.000291031
0.000150811
7.13022e-05
3.06842e-05
1.21485e-05
4.47943e-06
1.57552e-06
5.45471e-07
1.90623e-07
6.59126e-08
1.91941e-08
)
;

boundaryField
{
    inlet
    {
        type            fixedValue;
        value           uniform 0.2;
    }
    outlet
    {
        type            zeroGradient;
    }
    yzfaces
    {
        type            empty;
    }
}


// ************************************************************************* //
