/*--------------------------------*- C++ -*----------------------------------*\
| =========                 |                                                 |
| \\      /  F ield         | foam-extend: Open Source CFD                    |
|  \\    /   O peration     | Version:     5.0                                |
|   \\  /    A nd           | Web:         http://www.foam-extend.org         |
|    \\/     M anipulation  |                                                 |
\*---------------------------------------------------------------------------*/
FoamFile
{
    version     2.0;
    format      ascii;
    class       volScalarField;
    location    "5";
    object      CO2.water;
}
// * * * * * * * * * * * * * * * * * * * * * * * * * * * * * * * * * * * * * //

dimensions      [0 0 0 0 0 0 0];

internalField   nonuniform List<scalar> 
100
(
0.00115621
0.00150842
0.0017254
0.0019303
0.00208077
0.00223019
0.00235928
0.00246986
0.00254307
0.00262612
0.0027055
0.00277607
0.00283767
0.00289444
0.00294177
0.00298307
0.00302106
0.00305869
0.00310649
0.00315499
0.00319399
0.0032244
0.00325559
0.00327946
0.00330606
0.0033383
0.00336342
0.0033892
0.00341481
0.00343938
0.00346468
0.00348365
0.00351269
0.00353178
0.00355503
0.00357916
0.00360133
0.00361968
0.00364192
0.00366089
0.00367935
0.00369879
0.00371592
0.00373408
0.00375117
0.00376912
0.00378559
0.00380283
0.00381882
0.00383151
0.00384692
0.00386348
0.00387837
0.00389165
0.00390714
0.00392188
0.00393959
0.003953
0.0039692
0.00398498
0.00400056
0.00401849
0.0040376
0.00405466
0.00407155
0.00408898
0.0041055
0.00412341
0.00414084
0.00415966
0.00417857
0.000169112
3.58351e-05
7.91217e-06
1.82578e-06
4.41999e-07
1.13175e-07
3.07886e-08
8.42567e-09
2.2202e-09
5.46917e-10
1.16046e-10
1.54041e-11
0
0
0
0
0
0
0
0
0
0
0
0
0
0
0
0
0
)
;

boundaryField
{
    inlet
    {
        type            fixedValue;
        value           uniform 0;
    }
    outlet
    {
        type            zeroGradient;
    }
    yzfaces
    {
        type            empty;
    }
}


// ************************************************************************* //
