/*--------------------------------*- C++ -*----------------------------------*\
| =========                 |                                                 |
| \\      /  F ield         | foam-extend: Open Source CFD                    |
|  \\    /   O peration     | Version:     5.0                                |
|   \\  /    A nd           | Web:         http://www.foam-extend.org         |
|    \\/     M anipulation  |                                                 |
\*---------------------------------------------------------------------------*/
FoamFile
{
    version     2.0;
    format      ascii;
    class       volScalarField;
    location    "5";
    object      CO2.gas;
}
// * * * * * * * * * * * * * * * * * * * * * * * * * * * * * * * * * * * * * //

dimensions      [0 0 0 0 0 0 0];

internalField   nonuniform List<scalar> 
100
(
0.155721
0.140938
0.133729
0.125807
0.120856
0.115926
0.110814
0.106219
0.102867
0.0993535
0.0959661
0.0938063
0.0914693
0.0894383
0.0875583
0.0861408
0.0848422
0.0829849
0.0816543
0.0802075
0.0787685
0.0774448
0.0760875
0.0750939
0.0741674
0.0731184
0.0719384
0.0708149
0.0697518
0.0689552
0.0679568
0.0670368
0.0661468
0.0654333
0.0645922
0.0637323
0.0628968
0.0620995
0.0614047
0.0607056
0.0599911
0.0592085
0.0585923
0.0579285
0.0571054
0.0564902
0.0557525
0.055122
0.0545873
0.0539649
0.0533153
0.0527503
0.0520973
0.0515831
0.051023
0.0504176
0.0498531
0.0492789
0.0486893
0.0480547
0.0474661
0.0468589
0.0461869
0.04558
0.0449255
0.044296
0.0436246
0.0429592
0.0422539
0.041619
0.0408909
0.0401881
0.0394349
0.03864
0.0378759
0.037044
0.0361378
0.0352372
0.034278
0.0332508
0.0321864
0.0310193
0.0179326
0.0130369
0.0092968
0.00643712
0.00429568
0.00273211
0.00164058
0.000917821
0.000472501
0.00022185
9.49877e-05
3.72885e-05
1.36271e-05
4.71468e-06
1.5709e-06
5.12749e-07
1.65891e-07
5.84787e-08
)
;

boundaryField
{
    inlet
    {
        type            fixedValue;
        value           uniform 0.2;
    }
    outlet
    {
        type            zeroGradient;
    }
    yzfaces
    {
        type            empty;
    }
}


// ************************************************************************* //
