/*--------------------------------*- C++ -*----------------------------------*\
| =========                 |                                                 |
| \\      /  F ield         | foam-extend: Open Source CFD                    |
|  \\    /   O peration     | Version:     5.0                                |
|   \\  /    A nd           | Web:         http://www.foam-extend.org         |
|    \\/     M anipulation  |                                                 |
\*---------------------------------------------------------------------------*/
FoamFile
{
    version     2.0;
    format      ascii;
    class       volScalarField;
    location    "5";
    object      H2O.gas;
}
// * * * * * * * * * * * * * * * * * * * * * * * * * * * * * * * * * * * * * //

dimensions      [0 0 0 0 0 0 0];

internalField   nonuniform List<scalar> 
100
(
0.000303853
0.000275009
0.000260941
0.000245483
0.000235823
0.000226203
0.000216228
0.000207263
0.000200721
0.000193866
0.000187256
0.000183042
0.000178481
0.000174518
0.00017085
0.000168084
0.00016555
0.000161926
0.00015933
0.000156507
0.000153699
0.000151116
0.000148467
0.000146529
0.000144721
0.000142674
0.000140371
0.000138179
0.000136105
0.00013455
0.000132602
0.000130807
0.00012907
0.000127678
0.000126037
0.000124359
0.000122729
0.000121173
0.000119817
0.000118453
0.000117059
0.000115532
0.00011433
0.000113034
0.000111428
0.000110228
0.000108788
0.000107558
0.000106515
0.0001053
0.000104033
0.00010293
0.000101656
0.000100653
9.95596e-05
9.83784e-05
9.7277e-05
9.61564e-05
9.5006e-05
9.37677e-05
9.26191e-05
9.14345e-05
9.01232e-05
8.8939e-05
8.76618e-05
8.64334e-05
8.51234e-05
8.3825e-05
8.24488e-05
8.121e-05
7.97893e-05
7.84178e-05
7.69481e-05
7.53972e-05
7.39061e-05
7.22828e-05
7.05147e-05
6.87574e-05
6.68857e-05
6.48813e-05
6.28044e-05
6.05271e-05
0.011878
0.0153253
0.0175572
0.0187722
0.0191452
0.0188228
0.0179733
0.016764
0.0153762
0.0139975
0.0128026
0.0118549
0.0111813
0.01072
0.0104318
0.0102558
0.0101607
0.0100894
)
;

boundaryField
{
    inlet
    {
        type            fixedValue;
        value           uniform 0;
    }
    outlet
    {
        type            zeroGradient;
    }
    yzfaces
    {
        type            empty;
    }
}


// ************************************************************************* //
