/*--------------------------------*- C++ -*----------------------------------*\
| =========                 |                                                 |
| \\      /  F ield         | foam-extend: Open Source CFD                    |
|  \\    /   O peration     | Version:     5.0                                |
|   \\  /    A nd           | Web:         http://www.foam-extend.org         |
|    \\/     M anipulation  |                                                 |
\*---------------------------------------------------------------------------*/
FoamFile
{
    version     2.0;
    format      ascii;
    class       volScalarField;
    location    "5";
    object      H2O.gas;
}
// * * * * * * * * * * * * * * * * * * * * * * * * * * * * * * * * * * * * * //

dimensions      [0 0 0 0 0 0 0];

internalField   nonuniform List<scalar> 
100
(
0.000304517
0.000275921
0.000260564
0.000246503
0.000234995
0.000223124
0.00021482
0.000206779
0.000200211
0.000193028
0.000188302
0.000182743
0.000178638
0.000173656
0.000170374
0.000166989
0.00016484
0.000161706
0.000158913
0.000155991
0.000153182
0.000151275
0.000148802
0.000146522
0.00014462
0.00014211
0.000140249
0.000138379
0.000136621
0.000134776
0.000133046
0.000130932
0.000129447
0.000127929
0.000126122
0.00012443
0.000122769
0.000121463
0.000119911
0.000118327
0.000116816
0.000115222
0.000114065
0.000112774
0.000111696
0.000110529
0.000109268
0.000108152
0.000106853
0.000105547
0.000104262
0.000103193
0.000102072
0.000100961
9.9967e-05
9.88318e-05
9.7657e-05
9.65137e-05
9.51505e-05
9.39239e-05
9.29277e-05
9.17844e-05
9.03614e-05
8.90639e-05
8.77808e-05
8.65308e-05
8.52341e-05
8.3946e-05
8.26216e-05
8.11943e-05
7.98157e-05
0.00709021
0.0101616
0.0129569
0.0154571
0.0176628
0.0196255
0.021261
0.0226085
0.0236495
0.0244065
0.024822
0.0249659
0.0248047
0.024283
0.0234545
0.0223466
0.0209882
0.0194107
0.0177288
0.0160526
0.0144899
0.0131371
0.0120901
0.0113221
0.0108176
0.0104983
0.0102941
0.0101689
0.010106
)
;

boundaryField
{
    inlet
    {
        type            fixedValue;
        value           uniform 0;
    }
    outlet
    {
        type            zeroGradient;
    }
    yzfaces
    {
        type            empty;
    }
}


// ************************************************************************* //
