/*--------------------------------*- C++ -*----------------------------------*\
| =========                 |                                                 |
| \\      /  F ield         | foam-extend: Open Source CFD                    |
|  \\    /   O peration     | Version:     5.0                                |
|   \\  /    A nd           | Web:         http://www.foam-extend.org         |
|    \\/     M anipulation  |                                                 |
\*---------------------------------------------------------------------------*/
FoamFile
{
    version     2.0;
    format      ascii;
    class       volScalarField;
    location    "5";
    object      H2O.gas;
}
// * * * * * * * * * * * * * * * * * * * * * * * * * * * * * * * * * * * * * //

dimensions      [0 0 0 0 0 0 0];

internalField   nonuniform List<scalar> 
100
(
0.000303763
0.000277647
0.000261559
0.000246366
0.000235208
0.00022413
0.000214558
0.000206358
0.00020093
0.000194772
0.000188886
0.000183654
0.000179086
0.000174876
0.000171367
0.000168304
0.000165488
0.000162697
0.000159154
0.000155557
0.000152665
0.000150411
0.000148098
0.000146328
0.000144355
0.000141965
0.000140102
0.000138191
0.000136292
0.00013447
0.000132594
0.000131188
0.000129034
0.000127618
0.000125895
0.000124106
0.000122462
0.000121101
0.000119452
0.000118046
0.000116677
0.000115235
0.000113965
0.000112619
0.000111351
0.00011002
0.000108799
0.00010752
0.000106335
0.000105394
0.000104252
0.000103023
0.000101919
0.000100935
9.97865e-05
9.86936e-05
9.73801e-05
9.63856e-05
9.51848e-05
9.40151e-05
9.28596e-05
9.15299e-05
9.01129e-05
8.88481e-05
8.75959e-05
8.63032e-05
8.50786e-05
8.37506e-05
8.2458e-05
8.10624e-05
7.96607e-05
0.00725661
0.0103643
0.0131677
0.0156813
0.0178988
0.0198585
0.0214777
0.0228056
0.0238228
0.0245622
0.0249201
0.0249805
0.0247377
0.024177
0.0232999
0.0221093
0.0206947
0.0190751
0.017374
0.0156658
0.014137
0.0128506
0.0118761
0.0111787
0.0107264
0.0104378
0.010269
0.0101693
0.0101041
)
;

boundaryField
{
    inlet
    {
        type            fixedValue;
        value           uniform 0;
    }
    outlet
    {
        type            zeroGradient;
    }
    yzfaces
    {
        type            empty;
    }
}


// ************************************************************************* //
