/*--------------------------------*- C++ -*----------------------------------*\
| =========                 |                                                 |
| \\      /  F ield         | foam-extend: Open Source CFD                    |
|  \\    /   O peration     | Version:     5.0                                |
|   \\  /    A nd           | Web:         http://www.foam-extend.org         |
|    \\/     M anipulation  |                                                 |
\*---------------------------------------------------------------------------*/
FoamFile
{
    version     2.0;
    format      ascii;
    class       volScalarField;
    location    "5";
    object      Na.water;
}
// * * * * * * * * * * * * * * * * * * * * * * * * * * * * * * * * * * * * * //

dimensions      [0 0 0 0 0 0 0];

internalField   nonuniform List<scalar> 
100
(
0.0050518
0.00658536
0.00756012
0.00843765
0.00910049
0.00974542
0.010315
0.0107971
0.0111364
0.011491
0.0118319
0.0121247
0.0124029
0.0126552
0.0128532
0.0130513
0.0132179
0.0133802
0.0135851
0.0137843
0.0139609
0.0140969
0.0142287
0.0143408
0.0144551
0.0145932
0.0147031
0.0148169
0.0149285
0.0150394
0.0151482
0.015242
0.0153512
0.0154469
0.0155425
0.0156437
0.0157373
0.0158218
0.0159127
0.0160031
0.0160935
0.016172
0.0162484
0.0163259
0.0164019
0.0164787
0.0165505
0.0166214
0.0166935
0.0167555
0.0168237
0.0168863
0.0169588
0.0170219
0.0170817
0.017152
0.0172244
0.0172905
0.017355
0.0174341
0.0175076
0.0175726
0.0176514
0.0177278
0.0178051
0.0178756
0.0179525
0.0180276
0.0180977
0.0181383
0.0180097
0.0193346
0.019447
0.0195504
0.0196488
0.0197488
0.0198652
0.0199731
0.0200948
0.0202167
0.02037
0.020483
0.0206273
0.0207993
0.0209827
0.0211684
0.0213683
0.021599
0.021833
0.0220765
0.0222828
0.0224901
0.0226449
0.0227705
0.0228467
0.0229139
0.0229507
0.0229904
0.0230145
0.0230139
)
;

boundaryField
{
    inlet
    {
        type            fixedValue;
        value           uniform 0;
    }
    outlet
    {
        type            zeroGradient;
    }
    yzfaces
    {
        type            empty;
    }
}


// ************************************************************************* //
