/*--------------------------------*- C++ -*----------------------------------*\
| =========                 |                                                 |
| \\      /  F ield         | foam-extend: Open Source CFD                    |
|  \\    /   O peration     | Version:     5.0                                |
|   \\  /    A nd           | Web:         http://www.foam-extend.org         |
|    \\/     M anipulation  |                                                 |
\*---------------------------------------------------------------------------*/
FoamFile
{
    version     2.0;
    format      ascii;
    class       volScalarField;
    location    "5";
    object      Na.water;
}
// * * * * * * * * * * * * * * * * * * * * * * * * * * * * * * * * * * * * * //

dimensions      [0 0 0 0 0 0 0];

internalField   nonuniform List<scalar> 
100
(
0.00501015
0.00669077
0.00763113
0.00843557
0.00913125
0.00979989
0.0102962
0.0107762
0.0111624
0.0115768
0.0118705
0.0121777
0.0124404
0.0127229
0.0129206
0.0131119
0.013251
0.013437
0.0135952
0.0137727
0.0139321
0.0140586
0.0141967
0.0143249
0.0144453
0.0145859
0.0146961
0.0148049
0.0149096
0.015018
0.0151274
0.0152373
0.0153321
0.0154228
0.0155247
0.0156266
0.0157166
0.0157984
0.015886
0.0159776
0.0160627
0.0161566
0.0162324
0.0163141
0.0163828
0.0164541
0.0165255
0.0165909
0.0166613
0.0167323
0.0168084
0.0168778
0.0169448
0.0170084
0.017074
0.0171426
0.0172077
0.0172718
0.017344
0.0174203
0.0174898
0.0175582
0.0176297
0.0177102
0.0177878
0.0178599
0.0179348
0.0180127
0.018083
0.0181174
0.017991
0.0192824
0.0194283
0.0195333
0.0196227
0.0196998
0.0198197
0.0199178
0.0200322
0.0201516
0.0202909
0.020425
0.020605
0.0207843
0.0209388
0.0211195
0.0213226
0.0215413
0.021762
0.0219963
0.0222261
0.0224353
0.0225866
0.0227249
0.0228145
0.0228924
0.0229372
0.0229632
0.0229689
0.0230084
)
;

boundaryField
{
    inlet
    {
        type            fixedValue;
        value           uniform 0;
    }
    outlet
    {
        type            zeroGradient;
    }
    yzfaces
    {
        type            empty;
    }
}


// ************************************************************************* //
