/*--------------------------------*- C++ -*----------------------------------*\
| =========                 |                                                 |
| \\      /  F ield         | foam-extend: Open Source CFD                    |
|  \\    /   O peration     | Version:     5.0                                |
|   \\  /    A nd           | Web:         http://www.foam-extend.org         |
|    \\/     M anipulation  |                                                 |
\*---------------------------------------------------------------------------*/
FoamFile
{
    version     2.0;
    format      ascii;
    class       volScalarField;
    location    "5";
    object      Na.water;
}
// * * * * * * * * * * * * * * * * * * * * * * * * * * * * * * * * * * * * * //

dimensions      [0 0 0 0 0 0 0];

internalField   nonuniform List<scalar> 
100
(
0.00504598
0.00673675
0.00759788
0.00847547
0.00908517
0.00964157
0.0102246
0.0107444
0.0111393
0.0115482
0.0119164
0.0121779
0.0124349
0.012672
0.0128846
0.0130505
0.013213
0.0134084
0.0135757
0.0137286
0.0138985
0.0140533
0.0142013
0.0143219
0.0144344
0.0145464
0.0146802
0.014815
0.0149394
0.0150409
0.0151454
0.0152558
0.0153609
0.0154455
0.0155367
0.0156334
0.0157299
0.0158214
0.0159036
0.0159815
0.0160624
0.0161512
0.0162256
0.0162995
0.016376
0.0164611
0.0165318
0.0166124
0.0166776
0.0167477
0.0168184
0.016894
0.0169625
0.0170326
0.0170958
0.0171589
0.0172232
0.0172928
0.0173638
0.0174342
0.0175039
0.0175704
0.0176408
0.0177183
0.017794
0.0178729
0.0179427
0.0180201
0.018098
0.0181814
0.0182631
0.0183512
0.0184335
0.0185207
0.0186099
0.0187007
0.0187983
0.0189072
0.0190088
0.0191207
0.0192036
0.0190903
0.0205457
0.0207528
0.0209471
0.0211516
0.0213631
0.0215958
0.0218384
0.0220871
0.0223035
0.0224703
0.0226212
0.0227394
0.0228407
0.0228916
0.0229338
0.0229635
0.0229976
0.0230062
)
;

boundaryField
{
    inlet
    {
        type            fixedValue;
        value           uniform 0;
    }
    outlet
    {
        type            zeroGradient;
    }
    yzfaces
    {
        type            empty;
    }
}


// ************************************************************************* //
