/*--------------------------------*- C++ -*----------------------------------*\
| =========                 |                                                 |
| \\      /  F ield         | foam-extend: Open Source CFD                    |
|  \\    /   O peration     | Version:     5.0                                |
|   \\  /    A nd           | Web:         http://www.foam-extend.org         |
|    \\/     M anipulation  |                                                 |
\*---------------------------------------------------------------------------*/
FoamFile
{
    version     2.0;
    format      ascii;
    class       volScalarField;
    location    "5";
    object      Ns;
}
// * * * * * * * * * * * * * * * * * * * * * * * * * * * * * * * * * * * * * //

dimensions      [0 -3 0 0 1 0 0];

internalField   nonuniform List<scalar> 
100
(
53.8711
121.997
88.192
132.259
100.383
73.3066
48.2165
48.7923
81.6285
57.7565
25.9084
89.9465
2.96796
67.6677
82.9782
53.8537
71.0316
61.9972
28.6182
47.1295
36.6932
63.8759
42.0207
36.2034
57.0704
42.0519
67.0176
57.8123
60.3633
47.5915
43.6805
77.2011
46.0722
50.7229
49.4178
50.4899
34.0819
48.5899
52.0504
46.4665
57.6137
62.6225
61.4087
69.4046
53.2813
58.9691
66.0605
54.9101
76.7209
53.649
59.1987
51.0884
55.0716
62.5815
60.8884
59.4821
56.2173
73.6425
61.0812
49.3908
59.5673
53.7161
48.3099
51.3012
52.5857
50.8578
57.7325
52.1551
55.9069
59.5538
85.6467
2
2
2
2
2
2
2
2
2
2
2
2
2
2
2
2
2
2
2
2
2
2
2
2
2
2
2
2
2
)
;

boundaryField
{
    inlet
    {
        type            fixedValue;
        value           uniform 0;
    }
    outlet
    {
        type            zeroGradient;
    }
    yzfaces
    {
        type            empty;
    }
}


// ************************************************************************* //
