/*--------------------------------*- C++ -*----------------------------------*\
| =========                 |                                                 |
| \\      /  F ield         | foam-extend: Open Source CFD                    |
|  \\    /   O peration     | Version:     5.0                                |
|   \\  /    A nd           | Web:         http://www.foam-extend.org         |
|    \\/     M anipulation  |                                                 |
\*---------------------------------------------------------------------------*/
FoamFile
{
    version     2.0;
    format      ascii;
    class       volScalarField;
    location    "5";
    object      Ns;
}
// * * * * * * * * * * * * * * * * * * * * * * * * * * * * * * * * * * * * * //

dimensions      [0 -3 0 0 1 0 0];

internalField   nonuniform List<scalar> 
100
(
69.8785
81.3468
115.482
103.65
72.1542
66.3934
72.4143
28.8291
36.9848
58.3021
45.843
76.6986
30.3688
41.6773
65.8693
23.4442
59.3152
49.4778
23.9309
65.8774
40.115
53.8565
44.2955
47.0651
62.1122
56.8546
67.0804
50.7923
62.8953
48.9442
60.0894
43.1108
44.8911
67.1311
44.8353
41.6363
63.7202
58.0029
56.6187
52.8398
53.271
54.7175
64.1007
38.8524
56.1988
58.9357
56.2582
58.6133
51.2456
54.3201
58.0005
51.0659
61.8528
60.8599
60.7884
47.5224
69.0676
52.5823
56.7471
51.3299
58.6308
56.1619
48.929
55.9061
51.6854
52.2305
46.2962
53.333
50.7829
57.1233
84.1696
2
2
2
2
2
2
2
2
2
2
2
2
2
2
2
2
2
2
2
2
2
2
2
2
2
2
2
2
2
)
;

boundaryField
{
    inlet
    {
        type            fixedValue;
        value           uniform 0;
    }
    outlet
    {
        type            zeroGradient;
    }
    yzfaces
    {
        type            empty;
    }
}


// ************************************************************************* //
