/*--------------------------------*- C++ -*----------------------------------*\
| =========                 |                                                 |
| \\      /  F ield         | foam-extend: Open Source CFD                    |
|  \\    /   O peration     | Version:     5.0                                |
|   \\  /    A nd           | Web:         http://www.foam-extend.org         |
|    \\/     M anipulation  |                                                 |
\*---------------------------------------------------------------------------*/
FoamFile
{
    version     2.0;
    format      ascii;
    class       volScalarField;
    location    "5";
    object      Ns;
}
// * * * * * * * * * * * * * * * * * * * * * * * * * * * * * * * * * * * * * //

dimensions      [0 -3 0 0 1 0 0];

internalField   nonuniform List<scalar> 
100
(
54.1029
73.6289
121.593
106.386
102.057
94.1501
68.5851
20.9519
62.0632
12.4841
53.9376
74.1097
54.8881
50.8267
55.3625
35.2263
74.7446
27.9399
79.5488
48.9228
49.3534
34.3981
26.8794
61.4408
56.551
73.8181
34.0804
38.3425
50.5234
51.9665
49.1258
67.3107
57.6245
70.0751
46.4626
61.053
55.3265
61.6272
69.4023
53.762
57.1566
48.0313
50.0286
63.4532
49.3595
58.8523
49.7016
56.0344
54.7515
42.3036
47.9649
50.1579
58.8441
54.2718
61.9357
61.7717
43.3375
49.4978
53.2417
49.0994
57.5683
50.062
48.0549
68.7491
40.9288
49.1004
46.9395
45.6828
45.0551
50.9225
55.3909
49.6459
47.1923
43.5326
49.5238
51.8428
46.332
48.0973
50.8495
62.7751
58.4157
83.2277
2
2
2
2
2
2
2
2
2
2
2
2
2
2
2
2
2
2
)
;

boundaryField
{
    inlet
    {
        type            fixedValue;
        value           uniform 0;
    }
    outlet
    {
        type            zeroGradient;
    }
    yzfaces
    {
        type            empty;
    }
}


// ************************************************************************* //
