/*--------------------------------*- C++ -*----------------------------------*\
| =========                 |                                                 |
| \\      /  F ield         | foam-extend: Open Source CFD                    |
|  \\    /   O peration     | Version:     5.0                                |
|   \\  /    A nd           | Web:         http://www.foam-extend.org         |
|    \\/     M anipulation  |                                                 |
\*---------------------------------------------------------------------------*/
FoamFile
{
    version     2.0;
    format      ascii;
    class       surfaceScalarField;
    location    "5";
    object      phi;
}
// * * * * * * * * * * * * * * * * * * * * * * * * * * * * * * * * * * * * * //

dimensions      [0 3 -1 0 0 0 0];

internalField   nonuniform List<scalar> 
99
(
1.22461e-06
1.23796e-06
1.2221e-06
1.21683e-06
1.21736e-06
1.22004e-06
1.21734e-06
1.21628e-06
1.21091e-06
1.20951e-06
1.20637e-06
1.21781e-06
1.21799e-06
1.21613e-06
1.22508e-06
1.22329e-06
1.21755e-06
1.21848e-06
1.21975e-06
1.2244e-06
1.22953e-06
1.22856e-06
1.23354e-06
1.23051e-06
1.2279e-06
1.22529e-06
1.22702e-06
1.22668e-06
1.23003e-06
1.22916e-06
1.22757e-06
1.22374e-06
1.22884e-06
1.22387e-06
1.22156e-06
1.22604e-06
1.22729e-06
1.22952e-06
1.23229e-06
1.2332e-06
1.234e-06
1.23367e-06
1.23461e-06
1.23433e-06
1.23387e-06
1.235e-06
1.23574e-06
1.23793e-06
1.23765e-06
1.23295e-06
1.2311e-06
1.23271e-06
1.23448e-06
1.23054e-06
1.22803e-06
1.22528e-06
1.22576e-06
1.22594e-06
1.22759e-06
1.22644e-06
1.22024e-06
1.21993e-06
1.22235e-06
1.22231e-06
1.22163e-06
1.22234e-06
1.22102e-06
1.22229e-06
1.22121e-06
1.22185e-06
1.22196e-06
1.2222e-06
1.22196e-06
1.22451e-06
1.2241e-06
1.22578e-06
1.22435e-06
1.22444e-06
1.22604e-06
1.22673e-06
1.22659e-06
1.22697e-06
1.22567e-06
1.2273e-06
1.2277e-06
1.22406e-06
1.2249e-06
1.22273e-06
1.22347e-06
1.2216e-06
1.2233e-06
1.22314e-06
1.226e-06
1.22514e-06
1.22685e-06
1.22741e-06
1.22815e-06
1.22854e-06
1.22676e-06
)
;

boundaryField
{
    inlet
    {
        type            calculated;
        value           uniform -1.225e-06;
    }
    outlet
    {
        type            calculated;
        value           uniform 1.22989e-06;
    }
    yzfaces
    {
        type            empty;
    }
}


// ************************************************************************* //
