/*--------------------------------*- C++ -*----------------------------------*\
| =========                 |                                                 |
| \\      /  F ield         | foam-extend: Open Source CFD                    |
|  \\    /   O peration     | Version:     5.0                                |
|   \\  /    A nd           | Web:         http://www.foam-extend.org         |
|    \\/     M anipulation  |                                                 |
\*---------------------------------------------------------------------------*/
FoamFile
{
    version     2.0;
    format      ascii;
    class       surfaceScalarField;
    location    "5";
    object      phi;
}
// * * * * * * * * * * * * * * * * * * * * * * * * * * * * * * * * * * * * * //

dimensions      [0 3 -1 0 0 0 0];

internalField   nonuniform List<scalar> 
99
(
1.22231e-06
1.22792e-06
1.21411e-06
1.21069e-06
1.20463e-06
1.21418e-06
1.2123e-06
1.21292e-06
1.2092e-06
1.20903e-06
1.19758e-06
1.19918e-06
1.19148e-06
1.19161e-06
1.18865e-06
1.1956e-06
1.19275e-06
1.1914e-06
1.19232e-06
1.19052e-06
1.19065e-06
1.1836e-06
1.18129e-06
1.18336e-06
1.18169e-06
1.18259e-06
1.18244e-06
1.18423e-06
1.18361e-06
1.18629e-06
1.18321e-06
1.18537e-06
1.18239e-06
1.18246e-06
1.17976e-06
1.18048e-06
1.17926e-06
1.17834e-06
1.17789e-06
1.17988e-06
1.18223e-06
1.18621e-06
1.18847e-06
1.18826e-06
1.18632e-06
1.18222e-06
1.17938e-06
1.17611e-06
1.17578e-06
1.17635e-06
1.18078e-06
1.18002e-06
1.18123e-06
1.18254e-06
1.18064e-06
1.17929e-06
1.17658e-06
1.17432e-06
1.17809e-06
1.18193e-06
1.18098e-06
1.17732e-06
1.18044e-06
1.18087e-06
1.18241e-06
1.18045e-06
1.18212e-06
1.18192e-06
1.18141e-06
1.183e-06
1.18405e-06
1.18525e-06
1.18662e-06
1.18659e-06
1.18736e-06
1.18632e-06
1.18297e-06
1.18318e-06
1.18279e-06
1.18163e-06
1.18042e-06
1.18073e-06
1.18122e-06
1.18031e-06
1.17907e-06
1.17958e-06
1.17921e-06
1.17886e-06
1.17879e-06
1.18096e-06
1.17869e-06
1.17843e-06
1.17967e-06
1.18082e-06
1.18209e-06
1.18389e-06
1.18258e-06
1.18301e-06
1.18408e-06
)
;

boundaryField
{
    inlet
    {
        type            calculated;
        value           uniform -1.225e-06;
    }
    outlet
    {
        type            calculated;
        value           uniform 1.18417e-06;
    }
    yzfaces
    {
        type            empty;
    }
}


// ************************************************************************* //
