/*--------------------------------*- C++ -*----------------------------------*\
| =========                 |                                                 |
| \\      /  F ield         | foam-extend: Open Source CFD                    |
|  \\    /   O peration     | Version:     5.0                                |
|   \\  /    A nd           | Web:         http://www.foam-extend.org         |
|    \\/     M anipulation  |                                                 |
\*---------------------------------------------------------------------------*/
FoamFile
{
    version     2.0;
    format      ascii;
    class       surfaceScalarField;
    location    "5";
    object      phi;
}
// * * * * * * * * * * * * * * * * * * * * * * * * * * * * * * * * * * * * * //

dimensions      [0 3 -1 0 0 0 0];

internalField   nonuniform List<scalar> 
99
(
1.22458e-06
1.23054e-06
1.21619e-06
1.23209e-06
1.21441e-06
1.19995e-06
1.19667e-06
1.20086e-06
1.1914e-06
1.18301e-06
1.18428e-06
1.17588e-06
1.1824e-06
1.18611e-06
1.19049e-06
1.18756e-06
1.18409e-06
1.18914e-06
1.18416e-06
1.19163e-06
1.18801e-06
1.19245e-06
1.19938e-06
1.19665e-06
1.19641e-06
1.1952e-06
1.19916e-06
1.19795e-06
1.20187e-06
1.19656e-06
1.1959e-06
1.19812e-06
1.19586e-06
1.19468e-06
1.19237e-06
1.19587e-06
1.19588e-06
1.19566e-06
1.19406e-06
1.19657e-06
1.19946e-06
1.19935e-06
1.19672e-06
1.19456e-06
1.19964e-06
1.19853e-06
1.20279e-06
1.20405e-06
1.203e-06
1.20335e-06
1.20729e-06
1.20624e-06
1.20821e-06
1.20684e-06
1.20493e-06
1.20538e-06
1.2085e-06
1.20743e-06
1.20599e-06
1.20407e-06
1.20166e-06
1.19905e-06
1.19919e-06
1.19782e-06
1.19847e-06
1.19565e-06
1.19592e-06
1.19422e-06
1.1975e-06
1.19798e-06
1.19736e-06
1.19598e-06
1.19606e-06
1.19904e-06
1.19856e-06
1.19775e-06
1.20004e-06
1.20076e-06
1.20121e-06
1.20332e-06
1.20182e-06
1.20117e-06
1.19925e-06
1.19927e-06
1.19809e-06
1.19808e-06
1.19764e-06
1.20023e-06
1.20076e-06
1.20044e-06
1.20112e-06
1.20024e-06
1.19934e-06
1.20005e-06
1.20127e-06
1.20063e-06
1.20267e-06
1.20393e-06
1.20261e-06
)
;

boundaryField
{
    inlet
    {
        type            calculated;
        value           uniform -1.225e-06;
    }
    outlet
    {
        type            calculated;
        value           uniform 1.20519e-06;
    }
    yzfaces
    {
        type            empty;
    }
}


// ************************************************************************* //
