/*--------------------------------*- C++ -*----------------------------------*\
| =========                 |                                                 |
| \\      /  F ield         | foam-extend: Open Source CFD                    |
|  \\    /   O peration     | Version:     5.0                                |
|   \\  /    A nd           | Web:         http://www.foam-extend.org         |
|    \\/     M anipulation  |                                                 |
\*---------------------------------------------------------------------------*/
FoamFile
{
    version     2.0;
    format      ascii;
    class       surfaceScalarField;
    location    "5";
    object      phi.water;
}
// * * * * * * * * * * * * * * * * * * * * * * * * * * * * * * * * * * * * * //

dimensions      [0 3 -1 0 0 0 0];

internalField   nonuniform List<scalar> 
99
(
1.05558e-07
1.87862e-07
2.37707e-07
2.9646e-07
3.49861e-07
4.24774e-07
4.78844e-07
5.38794e-07
5.9046e-07
6.57225e-07
6.96878e-07
7.56582e-07
7.96081e-07
8.60951e-07
9.00532e-07
9.56178e-07
9.80146e-07
1.02512e-06
1.06979e-06
1.11444e-06
1.16294e-06
1.18641e-06
1.23074e-06
1.2767e-06
1.30867e-06
1.36305e-06
1.39952e-06
1.4415e-06
1.48055e-06
1.5235e-06
1.55955e-06
1.61475e-06
1.64494e-06
1.68212e-06
1.72629e-06
1.77124e-06
1.81708e-06
1.84982e-06
1.8933e-06
1.94396e-06
1.99277e-06
2.05005e-06
2.08569e-06
2.12698e-06
2.15739e-06
2.18662e-06
2.22312e-06
2.25418e-06
2.30005e-06
2.34765e-06
2.40188e-06
2.43645e-06
2.48086e-06
2.52589e-06
2.55647e-06
2.59653e-06
2.63542e-06
2.67696e-06
2.74367e-06
2.79934e-06
2.83511e-06
2.87421e-06
2.94466e-06
2.99943e-06
3.05865e-06
3.10731e-06
3.17105e-06
3.22668e-06
3.28679e-06
3.35814e-06
3.42624e-06
3.49751e-06
3.57037e-06
3.63715e-06
3.71434e-06
3.78818e-06
3.85628e-06
3.94643e-06
4.03864e-06
4.13342e-06
4.23393e-06
4.34863e-06
4.46932e-06
4.59831e-06
4.73691e-06
4.89051e-06
5.04577e-06
5.20342e-06
5.35851e-06
5.50874e-06
5.61801e-06
5.71533e-06
5.79386e-06
5.84959e-06
5.88755e-06
5.91323e-06
5.91752e-06
5.92858e-06
5.93663e-06
)
;

boundaryField
{
    inlet
    {
        type            fixedValue;
        value           uniform 0;
    }
    outlet
    {
        type            calculated;
        value           uniform 5.93722e-06;
    }
    yzfaces
    {
        type            empty;
    }
}


// ************************************************************************* //
