/*--------------------------------*- C++ -*----------------------------------*\
| =========                 |                                                 |
| \\      /  F ield         | foam-extend: Open Source CFD                    |
|  \\    /   O peration     | Version:     5.0                                |
|   \\  /    A nd           | Web:         http://www.foam-extend.org         |
|    \\/     M anipulation  |                                                 |
\*---------------------------------------------------------------------------*/
FoamFile
{
    version     2.0;
    format      ascii;
    class       volVectorField;
    location    "5";
    object      U.gas;
}
// * * * * * * * * * * * * * * * * * * * * * * * * * * * * * * * * * * * * * //

dimensions      [0 1 -1 0 0 0 0];

internalField   nonuniform List<vector> 
100
(
(0.00639569 0 0)
(0.00700205 0 0)
(0.00739213 0 0)
(0.00774237 0 0)
(0.00805082 0 0)
(0.00841162 0 0)
(0.0087301 0 0)
(0.00900251 0 0)
(0.0091678 0 0)
(0.00937784 0 0)
(0.00958756 0 0)
(0.00982647 0 0)
(0.0100582 0 0)
(0.0102258 0 0)
(0.0103992 0 0)
(0.0105588 0 0)
(0.0106475 0 0)
(0.0107486 0 0)
(0.0109244 0 0)
(0.0111148 0 0)
(0.0112819 0 0)
(0.0113943 0 0)
(0.0115191 0 0)
(0.0115996 0 0)
(0.0116653 0 0)
(0.0117567 0 0)
(0.0118272 0 0)
(0.0119213 0 0)
(0.0120214 0 0)
(0.0121124 0 0)
(0.012183 0 0)
(0.0122058 0 0)
(0.012324 0 0)
(0.0123653 0 0)
(0.0124086 0 0)
(0.0124959 0 0)
(0.0125879 0 0)
(0.012651 0 0)
(0.0127514 0 0)
(0.0128163 0 0)
(0.0128745 0 0)
(0.0129307 0 0)
(0.0129725 0 0)
(0.0130271 0 0)
(0.0130622 0 0)
(0.013111 0 0)
(0.0131539 0 0)
(0.0132104 0 0)
(0.0132496 0 0)
(0.0132358 0 0)
(0.0132399 0 0)
(0.013273 0 0)
(0.0133096 0 0)
(0.0133119 0 0)
(0.0133087 0 0)
(0.0132965 0 0)
(0.0133188 0 0)
(0.0133179 0 0)
(0.0133567 0 0)
(0.0133702 0 0)
(0.0133377 0 0)
(0.01332 0 0)
(0.0133433 0 0)
(0.0133487 0 0)
(0.0133398 0 0)
(0.0133358 0 0)
(0.0133185 0 0)
(0.013313 0 0)
(0.0132913 0 0)
(0.0132719 0 0)
(0.0132462 0 0)
(0.013213 0 0)
(0.0131752 0 0)
(0.0131428 0 0)
(0.0130941 0 0)
(0.0130394 0 0)
(0.0129609 0 0)
(0.0128739 0 0)
(0.0127791 0 0)
(0.0126676 0 0)
(0.0125209 0 0)
(0.012353 0 0)
(0.0121401 0 0)
(0.0118926 0 0)
(0.0115982 0 0)
(0.0112135 0 0)
(0.0107565 0 0)
(0.0102122 0 0)
(0.00957916 0 0)
(0.0088589 0 0)
(0.00808818 0 0)
(0.00731635 0 0)
(0.00660367 0 0)
(0.00599992 0 0)
(0.00553843 0 0)
(0.00521473 0 0)
(0.00499827 0 0)
(0.00486412 0 0)
(0.00477868 0 0)
(0.00473225 0 0)
)
;

boundaryField
{
    inlet
    {
        type            fixedValue;
        value           uniform (0.005 0 0);
    }
    outlet
    {
        type            zeroGradient;
    }
    yzfaces
    {
        type            empty;
    }
}


// ************************************************************************* //
