/*--------------------------------*- C++ -*----------------------------------*\
| =========                 |                                                 |
| \\      /  F ield         | foam-extend: Open Source CFD                    |
|  \\    /   O peration     | Version:     5.0                                |
|   \\  /    A nd           | Web:         http://www.foam-extend.org         |
|    \\/     M anipulation  |                                                 |
\*---------------------------------------------------------------------------*/
FoamFile
{
    version     2.0;
    format      ascii;
    class       volVectorField;
    location    "5";
    object      U.gas;
}
// * * * * * * * * * * * * * * * * * * * * * * * * * * * * * * * * * * * * * //

dimensions      [0 1 -1 0 0 0 0];

internalField   nonuniform List<vector> 
100
(
(0.00639372 0 0)
(0.00704567 0 0)
(0.00736626 0 0)
(0.00779723 0 0)
(0.0080703 0 0)
(0.00826253 0 0)
(0.00852868 0 0)
(0.00883952 0 0)
(0.0090478 0 0)
(0.00923661 0 0)
(0.00946203 0 0)
(0.00958596 0 0)
(0.00976299 0 0)
(0.00996417 0 0)
(0.0101486 0 0)
(0.0102625 0 0)
(0.0103406 0 0)
(0.0105143 0 0)
(0.0106156 0 0)
(0.0107521 0 0)
(0.0108928 0 0)
(0.0110074 0 0)
(0.0111785 0 0)
(0.0112731 0 0)
(0.0113369 0 0)
(0.0114247 0 0)
(0.0115438 0 0)
(0.011652 0 0)
(0.0117541 0 0)
(0.0118041 0 0)
(0.0118664 0 0)
(0.0119467 0 0)
(0.012018 0 0)
(0.0120492 0 0)
(0.0121054 0 0)
(0.0121796 0 0)
(0.0122614 0 0)
(0.0123193 0 0)
(0.0123544 0 0)
(0.0124098 0 0)
(0.0124917 0 0)
(0.0125654 0 0)
(0.0125784 0 0)
(0.0126008 0 0)
(0.012682 0 0)
(0.0127237 0 0)
(0.0127924 0 0)
(0.0128484 0 0)
(0.012871 0 0)
(0.0129077 0 0)
(0.0129651 0 0)
(0.0129972 0 0)
(0.0130381 0 0)
(0.0130481 0 0)
(0.0130561 0 0)
(0.0130735 0 0)
(0.0131056 0 0)
(0.0131335 0 0)
(0.013136 0 0)
(0.013134 0 0)
(0.0131131 0 0)
(0.0130963 0 0)
(0.0130966 0 0)
(0.0130822 0 0)
(0.0130802 0 0)
(0.01306 0 0)
(0.0130443 0 0)
(0.0130203 0 0)
(0.0130159 0 0)
(0.0130032 0 0)
(0.0129903 0 0)
(0.0129409 0 0)
(0.0129009 0 0)
(0.0128752 0 0)
(0.0128251 0 0)
(0.0127609 0 0)
(0.0127015 0 0)
(0.0126215 0 0)
(0.0125262 0 0)
(0.0124225 0 0)
(0.0122817 0 0)
(0.0121102 0 0)
(0.0118984 0 0)
(0.0116496 0 0)
(0.0113411 0 0)
(0.0109773 0 0)
(0.0105348 0 0)
(0.0100185 0 0)
(0.00940802 0 0)
(0.00870782 0 0)
(0.00795146 0 0)
(0.00719031 0 0)
(0.00648078 0 0)
(0.00588536 0 0)
(0.00543113 0 0)
(0.00510716 0 0)
(0.00489669 0 0)
(0.00476848 0 0)
(0.00468582 0 0)
(0.00463847 0 0)
)
;

boundaryField
{
    inlet
    {
        type            fixedValue;
        value           uniform (0.005 0 0);
    }
    outlet
    {
        type            zeroGradient;
    }
    yzfaces
    {
        type            empty;
    }
}


// ************************************************************************* //
