/*--------------------------------*- C++ -*----------------------------------*\
| =========                 |                                                 |
| \\      /  F ield         | foam-extend: Open Source CFD                    |
|  \\    /   O peration     | Version:     5.0                                |
|   \\  /    A nd           | Web:         http://www.foam-extend.org         |
|    \\/     M anipulation  |                                                 |
\*---------------------------------------------------------------------------*/
FoamFile
{
    version     2.0;
    format      ascii;
    class       volVectorField;
    location    "5";
    object      U.gas;
}
// * * * * * * * * * * * * * * * * * * * * * * * * * * * * * * * * * * * * * //

dimensions      [0 1 -1 0 0 0 0];

internalField   nonuniform List<vector> 
100
(
(0.00637422 0 0)
(0.00700945 0 0)
(0.00736324 0 0)
(0.00769239 0 0)
(0.00799574 0 0)
(0.00838202 0 0)
(0.00867848 0 0)
(0.008956 0 0)
(0.00917981 0 0)
(0.00944084 0 0)
(0.00956739 0 0)
(0.00975475 0 0)
(0.00988815 0 0)
(0.0100682 0 0)
(0.01018 0 0)
(0.0103413 0 0)
(0.0104389 0 0)
(0.0105664 0 0)
(0.0106821 0 0)
(0.0108076 0 0)
(0.0109225 0 0)
(0.0109625 0 0)
(0.0110362 0 0)
(0.0111319 0 0)
(0.0112109 0 0)
(0.011327 0 0)
(0.0114001 0 0)
(0.0114902 0 0)
(0.0115684 0 0)
(0.0116597 0 0)
(0.0117301 0 0)
(0.0118227 0 0)
(0.0118651 0 0)
(0.0119142 0 0)
(0.0119812 0 0)
(0.0120355 0 0)
(0.0120971 0 0)
(0.0121247 0 0)
(0.0121847 0 0)
(0.0122517 0 0)
(0.0123253 0 0)
(0.0124167 0 0)
(0.0124745 0 0)
(0.0125342 0 0)
(0.0125462 0 0)
(0.0125534 0 0)
(0.01256 0 0)
(0.0125544 0 0)
(0.0125782 0 0)
(0.0126128 0 0)
(0.0126709 0 0)
(0.0127067 0 0)
(0.0127369 0 0)
(0.0127706 0 0)
(0.0127793 0 0)
(0.0127905 0 0)
(0.0127906 0 0)
(0.0127785 0 0)
(0.0128142 0 0)
(0.0128597 0 0)
(0.0128695 0 0)
(0.0128605 0 0)
(0.0128817 0 0)
(0.0128946 0 0)
(0.0129032 0 0)
(0.0128932 0 0)
(0.0128843 0 0)
(0.0128777 0 0)
(0.0128596 0 0)
(0.0128515 0 0)
(0.0128338 0 0)
(0.0128167 0 0)
(0.0127858 0 0)
(0.0127448 0 0)
(0.0127031 0 0)
(0.0126429 0 0)
(0.0125484 0 0)
(0.0124558 0 0)
(0.0123577 0 0)
(0.0122377 0 0)
(0.0120888 0 0)
(0.0119265 0 0)
(0.0117336 0 0)
(0.0114935 0 0)
(0.0112013 0 0)
(0.010862 0 0)
(0.0104506 0 0)
(0.00995159 0 0)
(0.0093684 0 0)
(0.00870797 0 0)
(0.00798104 0 0)
(0.00722694 0 0)
(0.00652545 0 0)
(0.00591812 0 0)
(0.00543899 0 0)
(0.00509612 0 0)
(0.00486364 0 0)
(0.00471462 0 0)
(0.00462462 0 0)
(0.00457259 0 0)
)
;

boundaryField
{
    inlet
    {
        type            fixedValue;
        value           uniform (0.005 0 0);
    }
    outlet
    {
        type            zeroGradient;
    }
    yzfaces
    {
        type            empty;
    }
}


// ************************************************************************* //
