/*--------------------------------*- C++ -*----------------------------------*\
| =========                 |                                                 |
| \\      /  F ield         | foam-extend: Open Source CFD                    |
|  \\    /   O peration     | Version:     5.0                                |
|   \\  /    A nd           | Web:         http://www.foam-extend.org         |
|    \\/     M anipulation  |                                                 |
\*---------------------------------------------------------------------------*/
FoamFile
{
    version     2.0;
    format      ascii;
    class       volVectorField;
    location    "5";
    object      U.water;
}
// * * * * * * * * * * * * * * * * * * * * * * * * * * * * * * * * * * * * * //

dimensions      [0 1 -1 0 0 0 0];

internalField   nonuniform List<vector> 
100
(
(5.03081e-05 0 0)
(0.00011971 0 0)
(0.000174823 0 0)
(0.000218476 0 0)
(0.000264991 0 0)
(0.00031524 0 0)
(0.000369041 0 0)
(0.000415208 0 0)
(0.000461802 0 0)
(0.000508347 0 0)
(0.000553857 0 0)
(0.000592693 0 0)
(0.000635021 0 0)
(0.000675885 0 0)
(0.000719356 0 0)
(0.000756448 0 0)
(0.000791122 0 0)
(0.00081865 0 0)
(0.000855486 0 0)
(0.000891695 0 0)
(0.000929379 0 0)
(0.000960894 0 0)
(0.00098719 0 0)
(0.00102299 0 0)
(0.00105612 0 0)
(0.00108997 0 0)
(0.00112768 0 0)
(0.00115972 0 0)
(0.00119297 0 0)
(0.00122628 0 0)
(0.00125888 0 0)
(0.00129476 0 0)
(0.00133132 0 0)
(0.00135958 0 0)
(0.00139196 0 0)
(0.00142814 0 0)
(0.00146433 0 0)
(0.00149729 0 0)
(0.00152773 0 0)
(0.00156524 0 0)
(0.00160559 0 0)
(0.00164786 0 0)
(0.00168717 0 0)
(0.00171904 0 0)
(0.00175007 0 0)
(0.00177518 0 0)
(0.0018014 0 0)
(0.00182895 0 0)
(0.00185915 0 0)
(0.00189625 0 0)
(0.00193723 0 0)
(0.00197456 0 0)
(0.00200694 0 0)
(0.00204342 0 0)
(0.00207563 0 0)
(0.00210473 0 0)
(0.00213665 0 0)
(0.00216874 0 0)
(0.00221042 0 0)
(0.00226042 0 0)
(0.00230073 0 0)
(0.00233178 0 0)
(0.00237401 0 0)
(0.00242496 0 0)
(0.00247216 0 0)
(0.00251693 0 0)
(0.00256292 0 0)
(0.00261206 0 0)
(0.00265938 0 0)
(0.00271155 0 0)
(0.00276802 0 0)
(0.00282519 0 0)
(0.0028851 0 0)
(0.00294311 0 0)
(0.00300145 0 0)
(0.00306262 0 0)
(0.00312132 0 0)
(0.00318527 0 0)
(0.00325855 0 0)
(0.00333464 0 0)
(0.00341504 0 0)
(0.00350383 0 0)
(0.00360253 0 0)
(0.00370595 0 0)
(0.00381291 0 0)
(0.00392887 0 0)
(0.00405295 0 0)
(0.00417895 0 0)
(0.00430455 0 0)
(0.00442871 0 0)
(0.00453577 0 0)
(0.00462038 0 0)
(0.0046915 0 0)
(0.00474635 0 0)
(0.00478519 0 0)
(0.00481322 0 0)
(0.00482764 0 0)
(0.00483388 0 0)
(0.00484186 0 0)
(0.00484704 0 0)
)
;

boundaryField
{
    inlet
    {
        type            fixedValue;
        value           uniform (0 0 0);
    }
    outlet
    {
        type            zeroGradient;
    }
    yzfaces
    {
        type            empty;
    }
}


// ************************************************************************* //
