/*--------------------------------*- C++ -*----------------------------------*\
| =========                 |                                                 |
| \\      /  F ield         | foam-extend: Open Source CFD                    |
|  \\    /   O peration     | Version:     5.0                                |
|   \\  /    A nd           | Web:         http://www.foam-extend.org         |
|    \\/     M anipulation  |                                                 |
\*---------------------------------------------------------------------------*/
FoamFile
{
    version     2.0;
    format      ascii;
    class       volVectorField;
    location    "5";
    object      U.water;
}
// * * * * * * * * * * * * * * * * * * * * * * * * * * * * * * * * * * * * * //

dimensions      [0 1 -1 0 0 0 0];

internalField   nonuniform List<vector> 
100
(
(5.11484e-05 0 0)
(0.000121583 0 0)
(0.000176712 0 0)
(0.000222318 0 0)
(0.000270233 0 0)
(0.000306982 0 0)
(0.00035148 0 0)
(0.000404184 0 0)
(0.000452853 0 0)
(0.000494436 0 0)
(0.000543447 0 0)
(0.000588153 0 0)
(0.000625785 0 0)
(0.000668723 0 0)
(0.00070993 0 0)
(0.000746622 0 0)
(0.000773846 0 0)
(0.000808137 0 0)
(0.00084772 0 0)
(0.000882948 0 0)
(0.000921704 0 0)
(0.000959811 0 0)
(0.00100233 0 0)
(0.00104021 0 0)
(0.00106844 0 0)
(0.00109814 0 0)
(0.00113528 0 0)
(0.00117531 0 0)
(0.00121467 0 0)
(0.00124825 0 0)
(0.00127767 0 0)
(0.00131536 0 0)
(0.00135077 0 0)
(0.00138187 0 0)
(0.00141089 0 0)
(0.00144733 0 0)
(0.00148572 0 0)
(0.00152146 0 0)
(0.00155477 0 0)
(0.00158758 0 0)
(0.0016235 0 0)
(0.00166109 0 0)
(0.0016954 0 0)
(0.00172349 0 0)
(0.00176211 0 0)
(0.0018039 0 0)
(0.00184219 0 0)
(0.00188417 0 0)
(0.00191668 0 0)
(0.00194793 0 0)
(0.00198761 0 0)
(0.00202635 0 0)
(0.00206303 0 0)
(0.00209931 0 0)
(0.00212885 0 0)
(0.00216328 0 0)
(0.00220344 0 0)
(0.00224148 0 0)
(0.00227647 0 0)
(0.00231355 0 0)
(0.00235035 0 0)
(0.00238488 0 0)
(0.00242516 0 0)
(0.00246821 0 0)
(0.00251181 0 0)
(0.00255472 0 0)
(0.00259765 0 0)
(0.00264488 0 0)
(0.00269667 0 0)
(0.0027512 0 0)
(0.00280117 0 0)
(0.00285341 0 0)
(0.00290741 0 0)
(0.00297067 0 0)
(0.00303549 0 0)
(0.003097 0 0)
(0.00316738 0 0)
(0.0032442 0 0)
(0.00332127 0 0)
(0.0034051 0 0)
(0.00349099 0 0)
(0.00357819 0 0)
(0.00367288 0 0)
(0.00377736 0 0)
(0.00389126 0 0)
(0.00401154 0 0)
(0.00413932 0 0)
(0.0042746 0 0)
(0.00440999 0 0)
(0.00453153 0 0)
(0.00463883 0 0)
(0.00472543 0 0)
(0.00478789 0 0)
(0.00483416 0 0)
(0.00486921 0 0)
(0.00489019 0 0)
(0.00490512 0 0)
(0.00491916 0 0)
(0.00492338 0 0)
(0.00492852 0 0)
)
;

boundaryField
{
    inlet
    {
        type            fixedValue;
        value           uniform (0 0 0);
    }
    outlet
    {
        type            zeroGradient;
    }
    yzfaces
    {
        type            empty;
    }
}


// ************************************************************************* //
