/*--------------------------------*- C++ -*----------------------------------*\
| =========                 |                                                 |
| \\      /  F ield         | foam-extend: Open Source CFD                    |
|  \\    /   O peration     | Version:     5.0                                |
|   \\  /    A nd           | Web:         http://www.foam-extend.org         |
|    \\/     M anipulation  |                                                 |
\*---------------------------------------------------------------------------*/
FoamFile
{
    version     2.0;
    format      ascii;
    class       volVectorField;
    location    "5";
    object      U.water;
}
// * * * * * * * * * * * * * * * * * * * * * * * * * * * * * * * * * * * * * //

dimensions      [0 1 -1 0 0 0 0];

internalField   nonuniform List<vector> 
100
(
(5.11329e-05 0 0)
(0.000119455 0 0)
(0.000171883 0 0)
(0.000218143 0 0)
(0.000267569 0 0)
(0.000315405 0 0)
(0.000367712 0 0)
(0.000418843 0 0)
(0.000462732 0 0)
(0.000500298 0 0)
(0.000545298 0 0)
(0.000594067 0 0)
(0.000641158 0 0)
(0.000683024 0 0)
(0.000726151 0 0)
(0.000764458 0 0)
(0.000795367 0 0)
(0.000827214 0 0)
(0.000865948 0 0)
(0.000914086 0 0)
(0.00096374 0 0)
(0.00100419 0 0)
(0.00104036 0 0)
(0.00107455 0 0)
(0.00110228 0 0)
(0.00113511 0 0)
(0.00117201 0 0)
(0.0012057 0 0)
(0.00124165 0 0)
(0.00127841 0 0)
(0.00131344 0 0)
(0.00134438 0 0)
(0.00137948 0 0)
(0.00141891 0 0)
(0.00144786 0 0)
(0.00148744 0 0)
(0.00153011 0 0)
(0.00156798 0 0)
(0.00160597 0 0)
(0.00164626 0 0)
(0.00168239 0 0)
(0.001719 0 0)
(0.00175513 0 0)
(0.00178937 0 0)
(0.00182444 0 0)
(0.00186063 0 0)
(0.00189823 0 0)
(0.00193599 0 0)
(0.00197382 0 0)
(0.00200235 0 0)
(0.00202759 0 0)
(0.00206312 0 0)
(0.00210251 0 0)
(0.00213397 0 0)
(0.00216168 0 0)
(0.00219334 0 0)
(0.00222964 0 0)
(0.00226938 0 0)
(0.00230686 0 0)
(0.00234764 0 0)
(0.00238105 0 0)
(0.002418 0 0)
(0.00246819 0 0)
(0.00251865 0 0)
(0.00256426 0 0)
(0.0026114 0 0)
(0.00265779 0 0)
(0.00270548 0 0)
(0.00275647 0 0)
(0.00280811 0 0)
(0.00286397 0 0)
(0.00292063 0 0)
(0.00297807 0 0)
(0.00304129 0 0)
(0.00310683 0 0)
(0.00317339 0 0)
(0.00324164 0 0)
(0.00331097 0 0)
(0.00339069 0 0)
(0.0034766 0 0)
(0.00356523 0 0)
(0.00365913 0 0)
(0.00375918 0 0)
(0.00386877 0 0)
(0.00398918 0 0)
(0.00410817 0 0)
(0.00423383 0 0)
(0.00436497 0 0)
(0.00449381 0 0)
(0.00461511 0 0)
(0.00472327 0 0)
(0.00481499 0 0)
(0.00488769 0 0)
(0.00493925 0 0)
(0.00497239 0 0)
(0.00499704 0 0)
(0.00501208 0 0)
(0.00502173 0 0)
(0.00502323 0 0)
(0.00502854 0 0)
)
;

boundaryField
{
    inlet
    {
        type            fixedValue;
        value           uniform (0 0 0);
    }
    outlet
    {
        type            zeroGradient;
    }
    yzfaces
    {
        type            empty;
    }
}


// ************************************************************************* //
