/*--------------------------------*- C++ -*----------------------------------*\
| =========                 |                                                 |
| \\      /  F ield         | foam-extend: Open Source CFD                    |
|  \\    /   O peration     | Version:     5.0                                |
|   \\  /    A nd           | Web:         http://www.foam-extend.org         |
|    \\/     M anipulation  |                                                 |
\*---------------------------------------------------------------------------*/
FoamFile
{
    version     2.0;
    format      ascii;
    class       surfaceScalarField;
    location    "10";
    object      phi.gas;
}
// * * * * * * * * * * * * * * * * * * * * * * * * * * * * * * * * * * * * * //

dimensions      [0 3 -1 0 0 0 0];

internalField   nonuniform List<scalar> 
99
(
0.000620699
0.000624249
0.00062778
0.000631023
0.00063416
0.00063715
0.000640137
0.00064302
0.000645904
0.000648787
0.000651555
0.000654295
0.00065695
0.000659346
0.000661991
0.000664534
0.000666899
0.000669411
0.00067188
0.00067413
0.000676616
0.000678753
0.000680957
0.00068341
0.000685462
0.000687747
0.000689834
0.000692218
0.000694299
0.000696244
0.000698277
0.000700244
0.000702247
0.000704364
0.000706148
0.000708018
0.000710223
0.000711995
0.000713946
0.000716024
0.000717661
0.000719571
0.000721381
0.000723186
0.000724947
0.000726564
0.000728566
0.000730311
0.00073207
0.000733548
0.000735263
0.000736903
0.000738503
0.000740139
0.000741887
0.000743513
0.000745099
0.000746873
0.00074841
0.000749968
0.000751487
0.000752903
0.000754433
0.000755932
0.000757646
0.000759098
0.00076068
0.000762102
0.00076349
0.000765067
0.000766302
0.000767843
0.000769435
0.000770719
0.000772305
0.000773742
0.000774947
0.00077645
0.000777772
0.000779219
0.000780641
0.00078189
0.000783046
0.000784531
0.000786016
0.00078716
0.000788551
0.000789713
0.000791101
0.000792252
0.000793636
0.00079496
0.000796104
0.000797182
0.000798548
0.000799905
0.000801204
0.000802492
0.000803757
)
;

boundaryField
{
    inlet
    {
        type            fixedValue;
        value           uniform -0.0006125;
    }
    outlet
    {
        type            calculated;
        value           uniform 0.000804389;
    }
    yzfaces
    {
        type            empty;
    }
}


// ************************************************************************* //
