/*--------------------------------*- C++ -*----------------------------------*\
| =========                 |                                                 |
| \\      /  F ield         | foam-extend: Open Source CFD                    |
|  \\    /   O peration     | Version:     5.0                                |
|   \\  /    A nd           | Web:         http://www.foam-extend.org         |
|    \\/     M anipulation  |                                                 |
\*---------------------------------------------------------------------------*/
FoamFile
{
    version     2.0;
    format      ascii;
    class       volScalarField;
    location    "4";
    object      alpha.gas;
}
// * * * * * * * * * * * * * * * * * * * * * * * * * * * * * * * * * * * * * //

dimensions      [0 0 0 0 0 0 0];

internalField   nonuniform List<scalar> 
100
(
0.16627
0.157189
0.14707
0.142682
0.13214
0.12522
0.121832
0.116654
0.113209
0.109522
0.10606
0.102553
0.0992787
0.0969251
0.0954764
0.0935216
0.0929757
0.0903536
0.0889715
0.0882632
0.0866792
0.0852848
0.0833931
0.0808997
0.0792166
0.0771674
0.0752471
0.0734261
0.0713915
0.0695794
0.0671435
0.0649994
0.062162
0.0588725
0.0550683
0.0497747
0.0417868
0.0266339
0.0277921
0.0282374
0.028267
0.0281828
0.0280935
0.0280258
0.0279863
0.0279555
0.0279437
0.0279372
0.0279358
0.0279189
0.0278783
0.0278136
0.0277121
0.0275779
0.0273984
0.0271613
0.02685
0.0264728
0.0259813
0.02538
0.0246556
0.0237787
0.0227495
0.0215499
0.0201891
0.018705
0.0171416
0.0155895
0.0141501
0.0129189
0.0119517
0.0112517
0.0107757
0.0104729
0.0102829
0.0101685
0.0100996
0.0100576
0.0100349
0.01002
0.010012
0.0100075
0.010004
0.010003
0.00999966
0.00999973
0.00999976
0.0100004
0.0100006
0.00999993
0.00999982
0.0100005
0.010001
0.0100033
0.0100035
0.0100045
0.0100026
0.0100037
0.0100035
0.0100029
)
;

boundaryField
{
    inlet
    {
        type            fixedValue;
        value           uniform 0.2;
    }
    outlet
    {
        type            zeroGradient;
    }
    yzfaces
    {
        type            empty;
    }
}


// ************************************************************************* //
