/*--------------------------------*- C++ -*----------------------------------*\
| =========                 |                                                 |
| \\      /  F ield         | foam-extend: Open Source CFD                    |
|  \\    /   O peration     | Version:     5.0                                |
|   \\  /    A nd           | Web:         http://www.foam-extend.org         |
|    \\/     M anipulation  |                                                 |
\*---------------------------------------------------------------------------*/
FoamFile
{
    version     2.0;
    format      ascii;
    class       volScalarField;
    location    "4";
    object      Cl.water;
}
// * * * * * * * * * * * * * * * * * * * * * * * * * * * * * * * * * * * * * //

dimensions      [0 0 0 0 0 0 0];

internalField   nonuniform List<scalar> 
100
(
0.00677147
0.00891649
0.0111685
0.0122585
0.0140359
0.0154136
0.0162398
0.0169865
0.0177595
0.018486
0.0190786
0.0197225
0.0203802
0.0208953
0.0212882
0.021726
0.0219658
0.0223445
0.0227088
0.0229807
0.0233244
0.0235845
0.0238534
0.0243098
0.0246931
0.0251027
0.0254695
0.0258712
0.0262948
0.0267119
0.027216
0.0276776
0.0282237
0.028901
0.0296755
0.0307733
0.0324156
0.0355361
0.0359401
0.0360708
0.036146
0.0361583
0.0361957
0.036261
0.0362337
0.036264
0.0362608
0.0362398
0.0362157
0.0362049
0.0362025
0.0362364
0.0362582
0.0362626
0.0363083
0.0363417
0.0364288
0.0365279
0.0366145
0.0367594
0.0369486
0.0370879
0.0373183
0.0375804
0.0378724
0.038225
0.0385431
0.0388679
0.0391842
0.0394111
0.039614
0.0397454
0.0398511
0.0399016
0.0399562
0.0399697
0.0399861
0.0400015
0.0399944
0.0400145
0.0400298
0.0400425
0.040022
0.0400089
0.040006
0.0400284
0.040032
0.040034
0.0400553
0.0400346
0.0400269
0.0399968
0.0400229
0.0400064
0.0399926
0.0399884
0.0399914
0.0399627
0.0399908
0.0399875
)
;

boundaryField
{
    inlet
    {
        type            fixedValue;
        value           uniform 0;
    }
    outlet
    {
        type            zeroGradient;
    }
    yzfaces
    {
        type            empty;
    }
}


// ************************************************************************* //
