/*--------------------------------*- C++ -*----------------------------------*\
| =========                 |                                                 |
| \\      /  F ield         | foam-extend: Open Source CFD                    |
|  \\    /   O peration     | Version:     5.0                                |
|   \\  /    A nd           | Web:         http://www.foam-extend.org         |
|    \\/     M anipulation  |                                                 |
\*---------------------------------------------------------------------------*/
FoamFile
{
    version     2.0;
    format      ascii;
    class       volScalarField;
    location    "4";
    object      CO2.water;
}
// * * * * * * * * * * * * * * * * * * * * * * * * * * * * * * * * * * * * * //

dimensions      [0 0 0 0 0 0 0];

internalField   nonuniform List<scalar> 
100
(
0.000885912
0.00112441
0.00139019
0.00150544
0.00178232
0.00196407
0.00205306
0.00218903
0.00227954
0.00237637
0.00246728
0.00255941
0.0026454
0.00270722
0.00274526
0.00279661
0.00281095
0.00287981
0.00291611
0.00293471
0.00297632
0.00301294
0.00306263
0.00312811
0.00317232
0.00322614
0.00327658
0.00332441
0.00337784
0.00342544
0.00348941
0.00354573
0.00362025
0.00370665
0.00380656
0.0039456
0.0041554
0.00455338
0.00138436
0.000438412
0.00014288
4.72165e-05
1.57149e-05
5.24085e-06
1.74465e-06
5.81313e-07
1.94344e-07
6.51105e-08
2.19454e-08
7.42204e-09
2.52035e-09
8.59972e-10
2.94318e-10
1.00832e-10
3.46608e-11
1.19355e-11
4.12788e-12
1.43839e-12
5.06036e-13
1.80456e-13
6.58266e-14
2.45092e-14
9.41456e-15
3.73661e-15
1.53365e-15
6.47925e-16
2.78891e-16
1.21756e-16
5.37173e-17
2.38189e-17
1.05909e-17
4.68742e-18
2.065e-18
9.11294e-19
4.15228e-19
2.07659e-19
1.17798e-19
7.36694e-20
4.7759e-20
3.07752e-20
1.92805e-20
1.16842e-20
6.83537e-21
3.87457e-21
2.13288e-21
1.14474e-21
5.99951e-22
3.07637e-22
1.54728e-22
7.63677e-23
3.70644e-23
1.76881e-23
8.31902e-24
3.85202e-24
1.75986e-24
7.94625e-25
3.54625e-25
1.56492e-25
6.85398e-26
2.88742e-26
)
;

boundaryField
{
    inlet
    {
        type            fixedValue;
        value           uniform 0;
    }
    outlet
    {
        type            zeroGradient;
    }
    yzfaces
    {
        type            empty;
    }
}


// ************************************************************************* //
