/*--------------------------------*- C++ -*----------------------------------*\
| =========                 |                                                 |
| \\      /  F ield         | foam-extend: Open Source CFD                    |
|  \\    /   O peration     | Version:     5.0                                |
|   \\  /    A nd           | Web:         http://www.foam-extend.org         |
|    \\/     M anipulation  |                                                 |
\*---------------------------------------------------------------------------*/
FoamFile
{
    version     2.0;
    format      ascii;
    class       volScalarField;
    location    "4";
    object      H2O.water;
}
// * * * * * * * * * * * * * * * * * * * * * * * * * * * * * * * * * * * * * //

dimensions      [0 0 0 0 0 0 0];

internalField   nonuniform List<scalar> 
100
(
0.0193021
0.0238558
0.0292022
0.0312931
0.0380006
0.041982
0.0436356
0.0471743
0.0489746
0.0511023
0.0532889
0.0554288
0.0573033
0.0585679
0.0591929
0.0602345
0.0602926
0.0620794
0.0626975
0.0628389
0.0636973
0.0645204
0.0658323
0.067351
0.0682046
0.069375
0.0705091
0.0714768
0.0726076
0.0735326
0.0748886
0.0760632
0.0777398
0.0796026
0.0817587
0.0847191
0.0892114
0.0977232
0.0988865
0.0992186
0.0994306
0.0994714
0.0995447
0.0997265
0.0996706
0.0997409
0.0997622
0.0996827
0.0996544
0.0996173
0.0996094
0.0997492
0.0998183
0.0998368
0.0999251
0.100005
0.100201
0.100444
0.100731
0.101114
0.10167
0.102069
0.102643
0.103358
0.104153
0.105104
0.105976
0.106823
0.107695
0.108322
0.108909
0.109286
0.109586
0.109684
0.10982
0.109902
0.109933
0.110013
0.110033
0.110078
0.110119
0.11016
0.110146
0.110125
0.110067
0.110067
0.110052
0.110018
0.110055
0.110035
0.110038
0.110024
0.110086
0.110029
0.110035
0.110029
0.11001
0.109928
0.109983
0.109996
)
;

boundaryField
{
    inlet
    {
        type            fixedValue;
        value           uniform 0;
    }
    outlet
    {
        type            zeroGradient;
    }
    yzfaces
    {
        type            empty;
    }
}


// ************************************************************************* //
