/*--------------------------------*- C++ -*----------------------------------*\
| =========                 |                                                 |
| \\      /  F ield         | foam-extend: Open Source CFD                    |
|  \\    /   O peration     | Version:     5.0                                |
|   \\  /    A nd           | Web:         http://www.foam-extend.org         |
|    \\/     M anipulation  |                                                 |
\*---------------------------------------------------------------------------*/
FoamFile
{
    version     2.0;
    format      ascii;
    class       volScalarField;
    location    "4";
    object      H2O.gas;
}
// * * * * * * * * * * * * * * * * * * * * * * * * * * * * * * * * * * * * * //

dimensions      [0 0 0 0 0 0 0];

internalField   nonuniform List<scalar> 
100
(
0.000323805
0.000306121
0.000286414
0.000277869
0.000257338
0.000243862
0.000237264
0.000227181
0.00022047
0.00021329
0.00020655
0.000199718
0.000193342
0.000188759
0.000185937
0.000182131
0.000181067
0.000175961
0.000173269
0.00017189
0.000168805
0.00016609
0.000162406
0.00015755
0.000154272
0.000150281
0.000146542
0.000142995
0.000139033
0.000135504
0.00013076
0.000126584
0.000121059
0.000114652
0.000107244
9.69347e-05
8.13786e-05
5.18687e-05
0.000763044
0.00155272
0.0024549
0.00346216
0.00457119
0.00577864
0.00704971
0.00839086
0.00977822
0.0111902
0.0126147
0.0140276
0.015403
0.0167471
0.0179959
0.0191345
0.0201663
0.0210459
0.0217757
0.022343
0.022682
0.0228179
0.0227421
0.022357
0.0217454
0.0208784
0.019764
0.0184708
0.0170161
0.0155279
0.0141312
0.0129072
0.0119505
0.0112495
0.0107767
0.0104683
0.0102813
0.0101683
0.0100988
0.0100607
0.0100372
0.0100259
0.0100216
0.0100211
0.0100147
0.0100122
0.0100057
0.0100071
0.0100066
0.010005
0.0100093
0.0100055
0.0100051
0.010002
0.0100084
0.010006
0.0100061
0.0100069
0.0100043
0.00999829
0.0100037
0.0100041
)
;

boundaryField
{
    inlet
    {
        type            fixedValue;
        value           uniform 0;
    }
    outlet
    {
        type            zeroGradient;
    }
    yzfaces
    {
        type            empty;
    }
}


// ************************************************************************* //
