/*--------------------------------*- C++ -*----------------------------------*\
| =========                 |                                                 |
| \\      /  F ield         | foam-extend: Open Source CFD                    |
|  \\    /   O peration     | Version:     5.0                                |
|   \\  /    A nd           | Web:         http://www.foam-extend.org         |
|    \\/     M anipulation  |                                                 |
\*---------------------------------------------------------------------------*/
FoamFile
{
    version     2.0;
    format      ascii;
    class       volScalarField;
    location    "4";
    object      Na.water;
}
// * * * * * * * * * * * * * * * * * * * * * * * * * * * * * * * * * * * * * //

dimensions      [0 0 0 0 0 0 0];

internalField   nonuniform List<scalar> 
100
(
0.00677088
0.00891415
0.0111696
0.0122612
0.0140414
0.0154206
0.0162398
0.0169958
0.0177778
0.0185135
0.0191048
0.0197366
0.0203924
0.0209045
0.0212973
0.0217212
0.021955
0.0223427
0.022706
0.0229825
0.0233227
0.0235973
0.0238585
0.0243115
0.0247133
0.0251288
0.0254977
0.0259015
0.0263282
0.0267507
0.0272625
0.0277141
0.0282543
0.0289173
0.0296909
0.0307874
0.0324308
0.0355534
0.0359592
0.0360796
0.0361393
0.0361511
0.0361809
0.0362604
0.0362397
0.0362639
0.0362631
0.0362456
0.0362407
0.0362466
0.0362425
0.0362763
0.0362818
0.0362865
0.0363188
0.0363552
0.0364273
0.0365299
0.036627
0.0367648
0.0369526
0.0370903
0.0373033
0.0375653
0.0378473
0.0381929
0.0385104
0.0388278
0.039141
0.0393647
0.0395801
0.0397063
0.0398124
0.0398597
0.0399116
0.0399557
0.0399658
0.0399873
0.0399806
0.0400003
0.040022
0.0400482
0.0400318
0.0400387
0.0400425
0.0400454
0.0400471
0.0400357
0.0400542
0.0400368
0.040035
0.0400071
0.0400306
0.040012
0.0400171
0.0400247
0.0400287
0.0400023
0.040028
0.0400349
)
;

boundaryField
{
    inlet
    {
        type            fixedValue;
        value           uniform 0;
    }
    outlet
    {
        type            zeroGradient;
    }
    yzfaces
    {
        type            empty;
    }
}


// ************************************************************************* //
