/*--------------------------------*- C++ -*----------------------------------*\
| =========                 |                                                 |
| \\      /  F ield         | foam-extend: Open Source CFD                    |
|  \\    /   O peration     | Version:     5.0                                |
|   \\  /    A nd           | Web:         http://www.foam-extend.org         |
|    \\/     M anipulation  |                                                 |
\*---------------------------------------------------------------------------*/
FoamFile
{
    version     2.0;
    format      ascii;
    class       surfaceScalarField;
    location    "4";
    object      phi;
}
// * * * * * * * * * * * * * * * * * * * * * * * * * * * * * * * * * * * * * //

dimensions      [0 3 -1 0 0 0 0];

internalField   nonuniform List<scalar> 
99
(
1.24122e-06
1.21369e-06
1.22659e-06
1.21633e-06
1.20697e-06
1.21231e-06
1.21021e-06
1.20542e-06
1.19222e-06
1.19368e-06
1.18838e-06
1.17781e-06
1.1794e-06
1.18644e-06
1.18883e-06
1.19493e-06
1.1844e-06
1.18771e-06
1.19253e-06
1.19609e-06
1.19356e-06
1.19328e-06
1.18293e-06
1.18269e-06
1.17636e-06
1.17842e-06
1.17597e-06
1.17515e-06
1.17509e-06
1.17211e-06
1.17409e-06
1.17331e-06
1.1741e-06
1.17661e-06
1.17577e-06
1.17454e-06
1.17395e-06
1.17228e-06
1.1764e-06
1.1763e-06
1.17526e-06
1.17556e-06
1.17534e-06
1.17522e-06
1.17418e-06
1.17447e-06
1.17499e-06
1.17551e-06
1.17477e-06
1.17351e-06
1.17403e-06
1.17289e-06
1.17277e-06
1.17207e-06
1.17307e-06
1.17342e-06
1.17501e-06
1.17417e-06
1.17536e-06
1.17628e-06
1.17505e-06
1.17544e-06
1.17655e-06
1.17688e-06
1.17804e-06
1.17693e-06
1.17773e-06
1.17702e-06
1.1769e-06
1.17656e-06
1.17644e-06
1.17793e-06
1.17778e-06
1.17722e-06
1.17814e-06
1.17915e-06
1.17824e-06
1.17752e-06
1.17735e-06
1.17869e-06
1.17959e-06
1.17955e-06
1.17901e-06
1.17706e-06
1.17837e-06
1.17755e-06
1.17701e-06
1.17741e-06
1.17825e-06
1.17867e-06
1.1774e-06
1.17654e-06
1.17683e-06
1.17631e-06
1.17758e-06
1.17701e-06
1.17661e-06
1.17851e-06
1.17888e-06
)
;

boundaryField
{
    inlet
    {
        type            calculated;
        value           uniform -1.225e-06;
    }
    outlet
    {
        type            calculated;
        value           uniform 1.17792e-06;
    }
    yzfaces
    {
        type            empty;
    }
}


// ************************************************************************* //
