/*--------------------------------*- C++ -*----------------------------------*\
| =========                 |                                                 |
| \\      /  F ield         | foam-extend: Open Source CFD                    |
|  \\    /   O peration     | Version:     5.0                                |
|   \\  /    A nd           | Web:         http://www.foam-extend.org         |
|    \\/     M anipulation  |                                                 |
\*---------------------------------------------------------------------------*/
FoamFile
{
    version     2.0;
    format      ascii;
    class       volVectorField;
    location    "4";
    object      U.gas;
}
// * * * * * * * * * * * * * * * * * * * * * * * * * * * * * * * * * * * * * //

dimensions      [0 1 -1 0 0 0 0];

internalField   nonuniform List<vector> 
100
(
(0.00605395 0 0)
(0.00639241 0 0)
(0.00672904 0 0)
(0.00697475 0 0)
(0.00743741 0 0)
(0.0077657 0 0)
(0.0079767 0 0)
(0.00827046 0 0)
(0.00844727 0 0)
(0.0086053 0 0)
(0.00883117 0 0)
(0.00903914 0 0)
(0.00922157 0 0)
(0.00939865 0 0)
(0.00954921 0 0)
(0.00973774 0 0)
(0.00978447 0 0)
(0.00994347 0 0)
(0.010079 0 0)
(0.0101685 0 0)
(0.0103315 0 0)
(0.0104392 0 0)
(0.0105775 0 0)
(0.0107181 0 0)
(0.0108336 0 0)
(0.010971 0 0)
(0.0111523 0 0)
(0.0112883 0 0)
(0.0114539 0 0)
(0.0116112 0 0)
(0.0117979 0 0)
(0.0119889 0 0)
(0.0122513 0 0)
(0.0125313 0 0)
(0.0128698 0 0)
(0.0132853 0 0)
(0.0138905 0 0)
(0.0151706 0 0)
(0.010323 0 0)
(0.0108239 0 0)
(0.0109542 0 0)
(0.0109658 0 0)
(0.0109483 0 0)
(0.0109243 0 0)
(0.0109017 0 0)
(0.0108903 0 0)
(0.0108846 0 0)
(0.0108863 0 0)
(0.0108825 0 0)
(0.0108738 0 0)
(0.0108683 0 0)
(0.0108583 0 0)
(0.0108416 0 0)
(0.0108175 0 0)
(0.0107906 0 0)
(0.0107589 0 0)
(0.0107163 0 0)
(0.0106473 0 0)
(0.0105611 0 0)
(0.0104516 0 0)
(0.0102995 0 0)
(0.0101032 0 0)
(0.00986304 0 0)
(0.00956148 0 0)
(0.00918243 0 0)
(0.00871883 0 0)
(0.00817659 0 0)
(0.00757108 0 0)
(0.00693525 0 0)
(0.00632 0 0)
(0.00577692 0 0)
(0.00534697 0 0)
(0.00503397 0 0)
(0.00481708 0 0)
(0.00468129 0 0)
(0.0045996 0 0)
(0.00454778 0 0)
(0.00451407 0 0)
(0.00449435 0 0)
(0.00448583 0 0)
(0.00448353 0 0)
(0.00448186 0 0)
(0.00447851 0 0)
(0.0044727 0 0)
(0.00447014 0 0)
(0.00446912 0 0)
(0.00446703 0 0)
(0.00446678 0 0)
(0.00446961 0 0)
(0.00447199 0 0)
(0.00447057 0 0)
(0.00446769 0 0)
(0.00446637 0 0)
(0.00446534 0 0)
(0.00446755 0 0)
(0.00446914 0 0)
(0.00446769 0 0)
(0.00446981 0 0)
(0.00447491 0 0)
(0.00447399 0 0)
)
;

boundaryField
{
    inlet
    {
        type            fixedValue;
        value           uniform (0.005 0 0);
    }
    outlet
    {
        type            zeroGradient;
    }
    yzfaces
    {
        type            empty;
    }
}


// ************************************************************************* //
