/*--------------------------------*- C++ -*----------------------------------*\
| =========                 |                                                 |
| \\      /  F ield         | foam-extend: Open Source CFD                    |
|  \\    /   O peration     | Version:     5.0                                |
|   \\  /    A nd           | Web:         http://www.foam-extend.org         |
|    \\/     M anipulation  |                                                 |
\*---------------------------------------------------------------------------*/
FoamFile
{
    version     2.0;
    format      ascii;
    class       volVectorField;
    location    "4";
    object      U.water;
}
// * * * * * * * * * * * * * * * * * * * * * * * * * * * * * * * * * * * * * //

dimensions      [0 1 -1 0 0 0 0];

internalField   nonuniform List<vector> 
100
(
(3.50884e-05 0 0)
(7.76627e-05 0 0)
(0.000110578 0 0)
(0.000143474 0 0)
(0.000178368 0 0)
(0.000232714 0 0)
(0.000272944 0 0)
(0.000306859 0 0)
(0.000347761 0 0)
(0.000382742 0 0)
(0.000418568 0 0)
(0.000459679 0 0)
(0.00050518 0 0)
(0.000546797 0 0)
(0.000579009 0 0)
(0.000610008 0 0)
(0.000637088 0 0)
(0.00066119 0 0)
(0.000699734 0 0)
(0.000725192 0 0)
(0.000749258 0 0)
(0.000784122 0 0)
(0.00081866 0 0)
(0.000865895 0 0)
(0.000915627 0 0)
(0.000962753 0 0)
(0.00101689 0 0)
(0.0010745 0 0)
(0.00113451 0 0)
(0.00120071 0 0)
(0.00127559 0 0)
(0.00136146 0 0)
(0.00146365 0 0)
(0.00159907 0 0)
(0.00177266 0 0)
(0.00201974 0 0)
(0.00242634 0 0)
(0.00322783 0 0)
(0.0039008 0 0)
(0.00381135 0 0)
(0.00378598 0 0)
(0.00378585 0 0)
(0.00379261 0 0)
(0.00379854 0 0)
(0.0038011 0 0)
(0.00380244 0 0)
(0.00380578 0 0)
(0.00380824 0 0)
(0.0038084 0 0)
(0.00380576 0 0)
(0.00380656 0 0)
(0.00380936 0 0)
(0.00381319 0 0)
(0.00382056 0 0)
(0.00383284 0 0)
(0.00385057 0 0)
(0.00387417 0 0)
(0.00390132 0 0)
(0.00393406 0 0)
(0.00397774 0 0)
(0.00402514 0 0)
(0.00408091 0 0)
(0.00415016 0 0)
(0.00422825 0 0)
(0.00431455 0 0)
(0.00440236 0 0)
(0.00448942 0 0)
(0.00457184 0 0)
(0.00464164 0 0)
(0.00469822 0 0)
(0.00474009 0 0)
(0.00477253 0 0)
(0.00479468 0 0)
(0.00480552 0 0)
(0.00481367 0 0)
(0.00482211 0 0)
(0.004825 0 0)
(0.00482323 0 0)
(0.00482231 0 0)
(0.00482524 0 0)
(0.00483017 0 0)
(0.00483211 0 0)
(0.00483102 0 0)
(0.00482596 0 0)
(0.00482472 0 0)
(0.00482583 0 0)
(0.00482303 0 0)
(0.00482275 0 0)
(0.00482526 0 0)
(0.00482784 0 0)
(0.00482609 0 0)
(0.00482167 0 0)
(0.00482051 0 0)
(0.00482007 0 0)
(0.00482158 0 0)
(0.004823 0 0)
(0.00482099 0 0)
(0.00482409 0 0)
(0.0048287 0 0)
(0.00482749 0 0)
)
;

boundaryField
{
    inlet
    {
        type            fixedValue;
        value           uniform (0 0 0);
    }
    outlet
    {
        type            zeroGradient;
    }
    yzfaces
    {
        type            empty;
    }
}


// ************************************************************************* //
