/*--------------------------------*- C++ -*----------------------------------*\
| =========                 |                                                 |
| \\      /  F ield         | foam-extend: Open Source CFD                    |
|  \\    /   O peration     | Version:     5.0                                |
|   \\  /    A nd           | Web:         http://www.foam-extend.org         |
|    \\/     M anipulation  |                                                 |
\*---------------------------------------------------------------------------*/
FoamFile
{
    version     2.0;
    format      ascii;
    class       volScalarField;
    location    "5";
    object      alpha.gas;
}
// * * * * * * * * * * * * * * * * * * * * * * * * * * * * * * * * * * * * * //

dimensions      [0 0 0 0 0 0 0];

internalField   nonuniform List<scalar> 
100
(
0.156738
0.14255
0.133077
0.126212
0.120172
0.114757
0.110549
0.106255
0.102656
0.0990105
0.0963148
0.093769
0.0921176
0.0893394
0.0876126
0.0861305
0.0848996
0.083581
0.0821028
0.080642
0.0791993
0.0777443
0.0766802
0.0753082
0.0742569
0.0731445
0.0720031
0.0709797
0.0699208
0.068877
0.0679262
0.0669693
0.0660899
0.0651667
0.0645642
0.0638588
0.0631306
0.0622323
0.0613952
0.0607303
0.0600646
0.0594149
0.0586467
0.058003
0.0572927
0.0566136
0.055973
0.0552905
0.0546345
0.0541061
0.0536306
0.0529893
0.052464
0.0519253
0.0513893
0.0508197
0.0502525
0.0495795
0.0489935
0.0484167
0.0477965
0.047115
0.0464597
0.045815
0.0451168
0.0444558
0.0437709
0.0431363
0.0424179
0.0417595
0.0410445
0.0402907
0.0395171
0.038753
0.0379472
0.0371113
0.0362394
0.0353347
0.0343707
0.0333367
0.0322595
0.0310813
0.0298047
0.0284312
0.0269291
0.0252902
0.0235427
0.0216682
0.0197308
0.0177934
0.0159597
0.0143259
0.0129782
0.0119527
0.011231
0.0107541
0.0104518
0.010267
0.0101575
0.0100965
)
;

boundaryField
{
    inlet
    {
        type            fixedValue;
        value           uniform 0.2;
    }
    outlet
    {
        type            zeroGradient;
    }
    yzfaces
    {
        type            empty;
    }
}


// ************************************************************************* //
