/*--------------------------------*- C++ -*----------------------------------*\
| =========                 |                                                 |
| \\      /  F ield         | foam-extend: Open Source CFD                    |
|  \\    /   O peration     | Version:     5.0                                |
|   \\  /    A nd           | Web:         http://www.foam-extend.org         |
|    \\/     M anipulation  |                                                 |
\*---------------------------------------------------------------------------*/
FoamFile
{
    version     2.0;
    format      ascii;
    class       volScalarField;
    location    "5";
    object      Cl.water;
}
// * * * * * * * * * * * * * * * * * * * * * * * * * * * * * * * * * * * * * //

dimensions      [0 0 0 0 0 0 0];

internalField   nonuniform List<scalar> 
100
(
0.00885979
0.0119042
0.0140045
0.0155256
0.0166357
0.0175869
0.018438
0.0189782
0.0196197
0.0201838
0.0209103
0.021448
0.0221979
0.0223314
0.0228717
0.0233285
0.0236948
0.023931
0.0240281
0.0243608
0.0246663
0.0248501
0.0251902
0.0253814
0.0256792
0.0259307
0.0260591
0.0262331
0.0264129
0.0266089
0.0268951
0.0270842
0.0273359
0.0274593
0.0277737
0.0279018
0.02804
0.0280858
0.028266
0.0285585
0.0286355
0.0287715
0.0288972
0.0290445
0.0291235
0.02932
0.0294947
0.0295999
0.0297875
0.0299174
0.0301171
0.0301723
0.030332
0.0304556
0.0305171
0.0305409
0.0306483
0.0307476
0.0308887
0.0310511
0.0311009
0.0312454
0.0313489
0.0314799
0.0316199
0.03176
0.0318925
0.032056
0.0321467
0.0323198
0.0324655
0.0336091
0.0337926
0.0339638
0.0341268
0.0343045
0.0344965
0.0346753
0.0348987
0.035125
0.0353409
0.0356117
0.0358698
0.0361248
0.0364323
0.0367476
0.0371148
0.0375267
0.0379416
0.0383588
0.0387354
0.0390659
0.0393593
0.0396223
0.0397647
0.0398556
0.0399648
0.0399807
0.0400017
0.0399748
)
;

boundaryField
{
    inlet
    {
        type            fixedValue;
        value           uniform 0;
    }
    outlet
    {
        type            zeroGradient;
    }
    yzfaces
    {
        type            empty;
    }
}


// ************************************************************************* //
