/*--------------------------------*- C++ -*----------------------------------*\
| =========                 |                                                 |
| \\      /  F ield         | foam-extend: Open Source CFD                    |
|  \\    /   O peration     | Version:     5.0                                |
|   \\  /    A nd           | Web:         http://www.foam-extend.org         |
|    \\/     M anipulation  |                                                 |
\*---------------------------------------------------------------------------*/
FoamFile
{
    version     2.0;
    format      ascii;
    class       volScalarField;
    location    "5";
    object      CO2.gas;
}
// * * * * * * * * * * * * * * * * * * * * * * * * * * * * * * * * * * * * * //

dimensions      [0 0 0 0 0 0 0];

internalField   nonuniform List<scalar> 
100
(
0.156433
0.142272
0.132817
0.125967
0.119938
0.114533
0.110334
0.106048
0.102456
0.0988177
0.0961273
0.0935864
0.0919382
0.0891654
0.087442
0.0859628
0.0847343
0.0834182
0.0819429
0.0804849
0.0790451
0.0775929
0.0765308
0.0751615
0.0741123
0.0730021
0.0718629
0.0708415
0.0697846
0.0687428
0.0677939
0.0668389
0.0659612
0.0650397
0.0644384
0.0637344
0.0630076
0.0621111
0.0612757
0.0606121
0.0599476
0.0592992
0.0585325
0.05789
0.0571811
0.0565034
0.055864
0.0551828
0.0545281
0.0540008
0.0535261
0.0528861
0.0523618
0.0518242
0.0512893
0.0507207
0.0501547
0.0494829
0.0488981
0.0483224
0.0477034
0.0470232
0.0463692
0.0457258
0.045029
0.0443692
0.0436857
0.0430523
0.0423353
0.0416782
0.0409645
0.0329727
0.0290671
0.0254925
0.0221761
0.0191332
0.0163539
0.013832
0.0115595
0.00952555
0.00772476
0.00615318
0.00479306
0.00364336
0.00268677
0.00191204
0.00130421
0.000844393
0.000512859
0.000288785
0.000149138
6.98495e-05
2.96018e-05
1.14144e-05
4.05637e-06
1.34259e-06
4.1665e-07
1.18536e-07
2.8418e-08
0
)
;

boundaryField
{
    inlet
    {
        type            fixedValue;
        value           uniform 0.2;
    }
    outlet
    {
        type            zeroGradient;
    }
    yzfaces
    {
        type            empty;
    }
}


// ************************************************************************* //
