/*--------------------------------*- C++ -*----------------------------------*\
| =========                 |                                                 |
| \\      /  F ield         | foam-extend: Open Source CFD                    |
|  \\    /   O peration     | Version:     5.0                                |
|   \\  /    A nd           | Web:         http://www.foam-extend.org         |
|    \\/     M anipulation  |                                                 |
\*---------------------------------------------------------------------------*/
FoamFile
{
    version     2.0;
    format      ascii;
    class       volScalarField;
    location    "5";
    object      H2O.gas;
}
// * * * * * * * * * * * * * * * * * * * * * * * * * * * * * * * * * * * * * //

dimensions      [0 0 0 0 0 0 0];

internalField   nonuniform List<scalar> 
100
(
0.000305243
0.000277612
0.000259163
0.000245795
0.000234032
0.000223486
0.000215291
0.000206929
0.00019992
0.00019282
0.00018757
0.000182612
0.000179396
0.000173986
0.000170623
0.000167737
0.000165339
0.000162772
0.000159893
0.000157048
0.000154238
0.000151405
0.000149332
0.00014666
0.000144613
0.000142447
0.000140224
0.000138231
0.000136169
0.000134136
0.000132284
0.000130421
0.000128708
0.00012691
0.000125737
0.000124363
0.000122945
0.000121196
0.000119565
0.000118271
0.000116974
0.000115709
0.000114213
0.000112959
0.000111576
0.000110253
0.000109006
0.000107677
0.000106399
0.00010537
0.000104444
0.000103195
0.000102172
0.000101123
0.000100079
9.89698e-05
9.78653e-05
9.65546e-05
9.54135e-05
9.42901e-05
9.30823e-05
9.17551e-05
9.04788e-05
8.92234e-05
8.78637e-05
8.65763e-05
8.52426e-05
8.40068e-05
8.26076e-05
8.13254e-05
7.99329e-05
0.00732902
0.0104464
0.0132568
0.0157621
0.0179697
0.0198914
0.0215105
0.0228431
0.0238625
0.0245745
0.0249833
0.0250585
0.0248109
0.0242503
0.0233664
0.0222201
0.020813
0.0192119
0.0175035
0.0158099
0.0142497
0.0129456
0.0119526
0.0112337
0.0107582
0.0104661
0.010278
0.0101685
0.0100954
)
;

boundaryField
{
    inlet
    {
        type            fixedValue;
        value           uniform 0;
    }
    outlet
    {
        type            zeroGradient;
    }
    yzfaces
    {
        type            empty;
    }
}


// ************************************************************************* //
