/*--------------------------------*- C++ -*----------------------------------*\
| =========                 |                                                 |
| \\      /  F ield         | foam-extend: Open Source CFD                    |
|  \\    /   O peration     | Version:     5.0                                |
|   \\  /    A nd           | Web:         http://www.foam-extend.org         |
|    \\/     M anipulation  |                                                 |
\*---------------------------------------------------------------------------*/
FoamFile
{
    version     2.0;
    format      ascii;
    class       volScalarField;
    location    "5";
    object      H2O.water;
}
// * * * * * * * * * * * * * * * * * * * * * * * * * * * * * * * * * * * * * //

dimensions      [0 0 0 0 0 0 0];

internalField   nonuniform List<scalar> 
100
(
0.0244059
0.032129
0.0371532
0.04079
0.0444377
0.0478109
0.0502244
0.0533341
0.0555409
0.0579817
0.0591438
0.0605389
0.0606867
0.0631048
0.0636942
0.064237
0.0647028
0.0655135
0.0667546
0.0675092
0.0683074
0.0693548
0.0697008
0.0706463
0.0710498
0.0716503
0.0724976
0.0731421
0.0738217
0.074444
0.0748006
0.0753615
0.0757036
0.0763629
0.0763254
0.0767564
0.0771861
0.0779714
0.0784222
0.0784891
0.0789902
0.0793413
0.0798333
0.0801563
0.0807046
0.0809883
0.0812621
0.0817023
0.0819599
0.0822114
0.0822919
0.0827993
0.0829909
0.0832708
0.0836738
0.0841771
0.0845039
0.0849707
0.0852692
0.0855145
0.086019
0.0864063
0.0868208
0.0871749
0.0875871
0.0879314
0.0883242
0.0886211
0.089142
0.0894336
0.0898435
0.0923876
0.0928603
0.0933126
0.0937818
0.0942689
0.0948205
0.0953628
0.0959951
0.0966635
0.0972559
0.0979891
0.0987196
0.0994425
0.100258
0.101125
0.10208
0.103183
0.104325
0.105481
0.106557
0.107459
0.108256
0.108976
0.10935
0.10963
0.109903
0.109988
0.110058
0.109956
)
;

boundaryField
{
    inlet
    {
        type            fixedValue;
        value           uniform 0;
    }
    outlet
    {
        type            zeroGradient;
    }
    yzfaces
    {
        type            empty;
    }
}


// ************************************************************************* //
