/*--------------------------------*- C++ -*----------------------------------*\
| =========                 |                                                 |
| \\      /  F ield         | foam-extend: Open Source CFD                    |
|  \\    /   O peration     | Version:     5.0                                |
|   \\  /    A nd           | Web:         http://www.foam-extend.org         |
|    \\/     M anipulation  |                                                 |
\*---------------------------------------------------------------------------*/
FoamFile
{
    version     2.0;
    format      ascii;
    class       volScalarField;
    location    "5";
    object      Na.water;
}
// * * * * * * * * * * * * * * * * * * * * * * * * * * * * * * * * * * * * * //

dimensions      [0 0 0 0 0 0 0];

internalField   nonuniform List<scalar> 
100
(
0.00885999
0.011908
0.014008
0.0155341
0.0166577
0.0176064
0.018439
0.0189702
0.0196267
0.0201716
0.0209078
0.0214539
0.0221644
0.022318
0.0228697
0.0233133
0.0236798
0.0239169
0.024018
0.0243532
0.0246542
0.0248398
0.0251899
0.0253892
0.0257116
0.0259427
0.0260785
0.0262565
0.0264282
0.0266262
0.0269092
0.027091
0.0273535
0.0274699
0.0277795
0.0279074
0.0280486
0.0280921
0.0282762
0.0285643
0.0286345
0.0287799
0.0289102
0.0290667
0.029131
0.029312
0.0294873
0.0296066
0.0298001
0.0299333
0.0301161
0.030178
0.0303382
0.0304592
0.0305166
0.0305443
0.0306623
0.0307515
0.0308825
0.0310364
0.031086
0.0312179
0.0313381
0.0314806
0.0316082
0.0317675
0.0319091
0.0320666
0.0321546
0.032331
0.0324717
0.0335984
0.0337833
0.0339489
0.0341042
0.0342784
0.03447
0.0346634
0.0348891
0.0351314
0.0353508
0.0356178
0.0358735
0.0361405
0.0364321
0.0367557
0.0371237
0.0375329
0.0379471
0.0383553
0.0387399
0.0390667
0.0393624
0.0396254
0.039768
0.0398559
0.0399486
0.0399691
0.0399897
0.0399503
)
;

boundaryField
{
    inlet
    {
        type            fixedValue;
        value           uniform 0;
    }
    outlet
    {
        type            zeroGradient;
    }
    yzfaces
    {
        type            empty;
    }
}


// ************************************************************************* //
