/*--------------------------------*- C++ -*----------------------------------*\
| =========                 |                                                 |
| \\      /  F ield         | foam-extend: Open Source CFD                    |
|  \\    /   O peration     | Version:     5.0                                |
|   \\  /    A nd           | Web:         http://www.foam-extend.org         |
|    \\/     M anipulation  |                                                 |
\*---------------------------------------------------------------------------*/
FoamFile
{
    version     2.0;
    format      ascii;
    class       surfaceScalarField;
    location    "5";
    object      phi;
}
// * * * * * * * * * * * * * * * * * * * * * * * * * * * * * * * * * * * * * //

dimensions      [0 3 -1 0 0 0 0];

internalField   nonuniform List<scalar> 
99
(
1.21792e-06
1.22155e-06
1.22844e-06
1.22705e-06
1.22532e-06
1.21154e-06
1.20689e-06
1.19489e-06
1.1971e-06
1.20019e-06
1.19883e-06
1.2002e-06
1.18972e-06
1.20448e-06
1.20383e-06
1.20007e-06
1.19726e-06
1.1944e-06
1.19039e-06
1.18815e-06
1.19184e-06
1.19736e-06
1.19207e-06
1.19792e-06
1.19585e-06
1.19255e-06
1.19e-06
1.18843e-06
1.18939e-06
1.19069e-06
1.19045e-06
1.19066e-06
1.19131e-06
1.1908e-06
1.184e-06
1.18585e-06
1.18443e-06
1.18698e-06
1.18799e-06
1.19072e-06
1.19085e-06
1.18918e-06
1.19031e-06
1.18968e-06
1.18755e-06
1.18626e-06
1.18569e-06
1.18885e-06
1.19082e-06
1.19004e-06
1.18488e-06
1.1862e-06
1.18136e-06
1.18059e-06
1.17857e-06
1.1762e-06
1.17474e-06
1.17759e-06
1.17537e-06
1.17519e-06
1.17194e-06
1.17079e-06
1.1711e-06
1.16825e-06
1.1672e-06
1.1644e-06
1.16409e-06
1.16226e-06
1.16293e-06
1.16149e-06
1.16025e-06
1.15927e-06
1.16082e-06
1.16107e-06
1.16055e-06
1.16215e-06
1.16266e-06
1.16223e-06
1.16292e-06
1.16433e-06
1.16288e-06
1.16213e-06
1.16198e-06
1.1607e-06
1.15896e-06
1.16022e-06
1.15938e-06
1.1589e-06
1.1598e-06
1.16116e-06
1.15974e-06
1.15888e-06
1.15909e-06
1.16098e-06
1.15981e-06
1.16137e-06
1.16009e-06
1.15885e-06
1.15832e-06
)
;

boundaryField
{
    inlet
    {
        type            calculated;
        value           uniform -1.225e-06;
    }
    outlet
    {
        type            calculated;
        value           uniform 1.16032e-06;
    }
    yzfaces
    {
        type            empty;
    }
}


// ************************************************************************* //
