/*--------------------------------*- C++ -*----------------------------------*\
| =========                 |                                                 |
| \\      /  F ield         | foam-extend: Open Source CFD                    |
|  \\    /   O peration     | Version:     5.0                                |
|   \\  /    A nd           | Web:         http://www.foam-extend.org         |
|    \\/     M anipulation  |                                                 |
\*---------------------------------------------------------------------------*/
FoamFile
{
    version     2.0;
    format      ascii;
    class       surfaceScalarField;
    location    "5";
    object      phi.water;
}
// * * * * * * * * * * * * * * * * * * * * * * * * * * * * * * * * * * * * * //

dimensions      [0 3 -1 0 0 0 0];

internalField   nonuniform List<scalar> 
99
(
1.04463e-07
1.79467e-07
2.47796e-07
3.04099e-07
3.622e-07
4.21187e-07
4.72656e-07
5.29417e-07
5.87438e-07
6.54525e-07
7.04836e-07
7.61075e-07
7.86849e-07
8.67242e-07
9.09818e-07
9.46314e-07
9.77243e-07
1.01184e-06
1.05154e-06
1.09472e-06
1.14652e-06
1.20117e-06
1.23191e-06
1.28903e-06
1.32457e-06
1.36384e-06
1.4086e-06
1.45001e-06
1.49716e-06
1.54408e-06
1.58779e-06
1.63371e-06
1.67785e-06
1.72226e-06
1.74327e-06
1.78193e-06
1.81894e-06
1.87249e-06
1.92169e-06
1.9622e-06
2.00135e-06
2.03397e-06
2.08554e-06
2.12112e-06
2.16219e-06
2.20401e-06
2.24619e-06
2.29825e-06
2.34576e-06
2.37875e-06
2.40016e-06
2.44967e-06
2.47572e-06
2.51445e-06
2.54915e-06
2.58519e-06
2.62508e-06
2.68393e-06
2.72278e-06
2.76524e-06
2.80679e-06
2.86023e-06
2.91289e-06
2.95703e-06
3.0134e-06
3.0637e-06
3.12146e-06
3.17112e-06
3.23692e-06
3.29039e-06
3.34999e-06
3.41506e-06
3.49168e-06
3.56161e-06
3.63629e-06
3.71893e-06
3.80176e-06
3.88506e-06
3.97661e-06
4.08068e-06
4.17835e-06
4.28756e-06
4.41077e-06
4.53854e-06
4.67413e-06
4.83066e-06
4.97916e-06
5.13221e-06
5.28601e-06
5.43002e-06
5.54182e-06
5.63109e-06
5.69575e-06
5.74854e-06
5.77327e-06
5.79653e-06
5.79933e-06
5.80044e-06
5.80511e-06
)
;

boundaryField
{
    inlet
    {
        type            fixedValue;
        value           uniform 0;
    }
    outlet
    {
        type            calculated;
        value           uniform 5.82162e-06;
    }
    yzfaces
    {
        type            empty;
    }
}


// ************************************************************************* //
