/*--------------------------------*- C++ -*----------------------------------*\
| =========                 |                                                 |
| \\      /  F ield         | foam-extend: Open Source CFD                    |
|  \\    /   O peration     | Version:     5.0                                |
|   \\  /    A nd           | Web:         http://www.foam-extend.org         |
|    \\/     M anipulation  |                                                 |
\*---------------------------------------------------------------------------*/
FoamFile
{
    version     2.0;
    format      ascii;
    class       volVectorField;
    location    "5";
    object      U.gas;
}
// * * * * * * * * * * * * * * * * * * * * * * * * * * * * * * * * * * * * * //

dimensions      [0 1 -1 0 0 0 0];

internalField   nonuniform List<vector> 
100
(
(0.00634794 0 0)
(0.00693798 0 0)
(0.00742682 0 0)
(0.00780889 0 0)
(0.0081481 0 0)
(0.00842953 0 0)
(0.00863295 0 0)
(0.00886494 0 0)
(0.0090776 0 0)
(0.0093662 0 0)
(0.00956905 0 0)
(0.00976552 0 0)
(0.00984736 0 0)
(0.010105 0 0)
(0.0102905 0 0)
(0.0103899 0 0)
(0.0104598 0 0)
(0.0105476 0 0)
(0.0106457 0 0)
(0.0107419 0 0)
(0.010871 0 0)
(0.0110385 0 0)
(0.0111206 0 0)
(0.011251 0 0)
(0.0113503 0 0)
(0.0114229 0 0)
(0.0114935 0 0)
(0.0115555 0 0)
(0.0116427 0 0)
(0.0117413 0 0)
(0.011822 0 0)
(0.0119008 0 0)
(0.0119725 0 0)
(0.0120499 0 0)
(0.0120435 0 0)
(0.012078 0 0)
(0.0121365 0 0)
(0.0122186 0 0)
(0.0122953 0 0)
(0.0123534 0 0)
(0.0124152 0 0)
(0.0124513 0 0)
(0.0125083 0 0)
(0.0125425 0 0)
(0.0125788 0 0)
(0.0125991 0 0)
(0.0126221 0 0)
(0.0126771 0 0)
(0.0127385 0 0)
(0.0127598 0 0)
(0.0127458 0 0)
(0.0127707 0 0)
(0.0127627 0 0)
(0.0127543 0 0)
(0.0127576 0 0)
(0.0127576 0 0)
(0.0127553 0 0)
(0.0127935 0 0)
(0.0128012 0 0)
(0.0127997 0 0)
(0.0127963 0 0)
(0.0127865 0 0)
(0.0127831 0 0)
(0.0127716 0 0)
(0.0127576 0 0)
(0.0127239 0 0)
(0.0126998 0 0)
(0.0126692 0 0)
(0.012657 0 0)
(0.012621 0 0)
(0.0125901 0 0)
(0.0125515 0 0)
(0.0125151 0 0)
(0.0124769 0 0)
(0.0124268 0 0)
(0.0123696 0 0)
(0.0123106 0 0)
(0.012227 0 0)
(0.0121325 0 0)
(0.0120293 0 0)
(0.0118879 0 0)
(0.0117193 0 0)
(0.0115211 0 0)
(0.0112775 0 0)
(0.0109803 0 0)
(0.0106326 0 0)
(0.0102157 0 0)
(0.00971496 0 0)
(0.0091231 0 0)
(0.00845978 0 0)
(0.00773369 0 0)
(0.00699305 0 0)
(0.00630419 0 0)
(0.00572408 0 0)
(0.00527275 0 0)
(0.00495257 0 0)
(0.00474108 0 0)
(0.00460093 0 0)
(0.00451474 0 0)
(0.00446512 0 0)
)
;

boundaryField
{
    inlet
    {
        type            fixedValue;
        value           uniform (0.005 0 0);
    }
    outlet
    {
        type            zeroGradient;
    }
    yzfaces
    {
        type            empty;
    }
}


// ************************************************************************* //
