/*--------------------------------*- C++ -*----------------------------------*\
| =========                 |                                                 |
| \\      /  F ield         | foam-extend: Open Source CFD                    |
|  \\    /   O peration     | Version:     5.0                                |
|   \\  /    A nd           | Web:         http://www.foam-extend.org         |
|    \\/     M anipulation  |                                                 |
\*---------------------------------------------------------------------------*/
FoamFile
{
    version     2.0;
    format      ascii;
    class       volVectorField;
    location    "5";
    object      U.water;
}
// * * * * * * * * * * * * * * * * * * * * * * * * * * * * * * * * * * * * * //

dimensions      [0 1 -1 0 0 0 0];

internalField   nonuniform List<vector> 
100
(
(4.96288e-05 0 0)
(0.000116542 0 0)
(0.000174229 0 0)
(0.000225844 0 0)
(0.000272984 0 0)
(0.000320102 0 0)
(0.000366074 0 0)
(0.000409284 0 0)
(0.000456641 0 0)
(0.000506312 0 0)
(0.00055502 0 0)
(0.000597677 0 0)
(0.000633703 0 0)
(0.000672802 0 0)
(0.00072438 0 0)
(0.000757837 0 0)
(0.000786015 0 0)
(0.000812646 0 0)
(0.000842662 0 0)
(0.000876242 0 0)
(0.000914258 0 0)
(0.000957003 0 0)
(0.000993718 0 0)
(0.00102827 0 0)
(0.00106732 0 0)
(0.00109834 0 0)
(0.00113208 0 0)
(0.0011671 0 0)
(0.00120291 0 0)
(0.00124126 0 0)
(0.00127859 0 0)
(0.00131469 0 0)
(0.00135143 0 0)
(0.00138715 0 0)
(0.00141562 0 0)
(0.00143971 0 0)
(0.0014706 0 0)
(0.00150639 0 0)
(0.00154756 0 0)
(0.00158454 0 0)
(0.00161758 0 0)
(0.00164775 0 0)
(0.00168127 0 0)
(0.00171782 0 0)
(0.00174922 0 0)
(0.00178276 0 0)
(0.00181665 0 0)
(0.0018539 0 0)
(0.00189406 0 0)
(0.00192877 0 0)
(0.00195253 0 0)
(0.00197997 0 0)
(0.00201151 0 0)
(0.00203807 0 0)
(0.00206791 0 0)
(0.00209675 0 0)
(0.00212746 0 0)
(0.00216619 0 0)
(0.00220665 0 0)
(0.00224095 0 0)
(0.00227584 0 0)
(0.00231402 0 0)
(0.00235751 0 0)
(0.00239781 0 0)
(0.00243836 0 0)
(0.00248176 0 0)
(0.00252527 0 0)
(0.00256927 0 0)
(0.00261562 0 0)
(0.0026649 0 0)
(0.00271078 0 0)
(0.0027615 0 0)
(0.0028191 0 0)
(0.00287877 0 0)
(0.00293755 0 0)
(0.00300199 0 0)
(0.00307017 0 0)
(0.00313907 0 0)
(0.00321221 0 0)
(0.00329335 0 0)
(0.00337655 0 0)
(0.00346164 0 0)
(0.00355611 0 0)
(0.00365684 0 0)
(0.00376212 0 0)
(0.00387902 0 0)
(0.0040025 0 0)
(0.00412564 0 0)
(0.00425143 0 0)
(0.00437306 0 0)
(0.00447663 0 0)
(0.00455743 0 0)
(0.00462134 0 0)
(0.00467194 0 0)
(0.00470439 0 0)
(0.00472486 0 0)
(0.0047375 0 0)
(0.00473965 0 0)
(0.00474037 0 0)
(0.0047461 0 0)
)
;

boundaryField
{
    inlet
    {
        type            fixedValue;
        value           uniform (0 0 0);
    }
    outlet
    {
        type            zeroGradient;
    }
    yzfaces
    {
        type            empty;
    }
}


// ************************************************************************* //
