/*--------------------------------*- C++ -*----------------------------------*\
| =========                 |                                                 |
| \\      /  F ield         | foam-extend: Open Source CFD                    |
|  \\    /   O peration     | Version:     5.0                                |
|   \\  /    A nd           | Web:         http://www.foam-extend.org         |
|    \\/     M anipulation  |                                                 |
\*---------------------------------------------------------------------------*/
FoamFile
{
    version     2.0;
    format      ascii;
    class       volScalarField;
    location    "6";
    object      alpha.gas;
}
// * * * * * * * * * * * * * * * * * * * * * * * * * * * * * * * * * * * * * //

dimensions      [0 0 0 0 0 0 0];

internalField   nonuniform List<scalar> 
100
(
0.160274
0.147627
0.137715
0.129972
0.125554
0.121233
0.117535
0.11286
0.108848
0.105448
0.102326
0.0992217
0.0969998
0.0950906
0.0931894
0.0911375
0.089266
0.0876555
0.0867647
0.085613
0.084491
0.0832509
0.0817411
0.0804901
0.0792962
0.0780364
0.0769611
0.0759452
0.074991
0.074067
0.0730341
0.0721419
0.0712407
0.0704088
0.0696765
0.0687081
0.0679782
0.0673747
0.0665737
0.0660431
0.0653577
0.0646409
0.0639619
0.063343
0.062776
0.0621777
0.0615788
0.0609049
0.0602771
0.0596291
0.0590789
0.0584768
0.0579596
0.0573112
0.0567162
0.0562217
0.0557746
0.0552666
0.0547335
0.0542
0.0536987
0.0532008
0.0527376
0.0523698
0.0519216
0.0514782
0.0510542
0.0506371
0.0501353
0.0496801
0.0491741
0.048586
0.048086
0.0475845
0.0470136
0.0464885
0.0459654
0.045397
0.0447739
0.0442143
0.0436394
0.0430625
0.0424675
0.0418835
0.0412736
0.0406269
0.040021
0.0393664
0.0387315
0.0380461
0.037306
0.0365636
0.0357778
0.0349593
0.0340908
0.0331646
0.0321782
0.0310963
0.0299189
0.0286516
)
;

boundaryField
{
    inlet
    {
        type            fixedValue;
        value           uniform 0.2;
    }
    outlet
    {
        type            zeroGradient;
    }
    yzfaces
    {
        type            empty;
    }
}


// ************************************************************************* //
