/*--------------------------------*- C++ -*----------------------------------*\
| =========                 |                                                 |
| \\      /  F ield         | foam-extend: Open Source CFD                    |
|  \\    /   O peration     | Version:     5.0                                |
|   \\  /    A nd           | Web:         http://www.foam-extend.org         |
|    \\/     M anipulation  |                                                 |
\*---------------------------------------------------------------------------*/
FoamFile
{
    version     2.0;
    format      ascii;
    class       volScalarField;
    location    "6";
    object      Cl.water;
}
// * * * * * * * * * * * * * * * * * * * * * * * * * * * * * * * * * * * * * //

dimensions      [0 0 0 0 0 0 0];

internalField   nonuniform List<scalar> 
100
(
0.00799954
0.011033
0.0130154
0.0146253
0.0158206
0.0167834
0.0174116
0.0178794
0.0185005
0.0191872
0.0197388
0.0202984
0.0208009
0.0212798
0.0216298
0.021904
0.0223514
0.0227188
0.0230677
0.0234522
0.0237037
0.023874
0.0240106
0.0243225
0.0246456
0.0248579
0.0250299
0.0251885
0.0254037
0.0256608
0.0258464
0.0260315
0.0261923
0.0264253
0.02655
0.0267079
0.0269466
0.0271399
0.0272339
0.0275126
0.0275771
0.027667
0.027787
0.0279255
0.0280072
0.0280955
0.0282484
0.028329
0.0284387
0.0285138
0.0287906
0.0289187
0.0291028
0.0291933
0.0292824
0.0294259
0.0295507
0.0296243
0.0297208
0.0298188
0.0299493
0.0300168
0.0301321
0.0303175
0.0303347
0.030428
0.0305295
0.0305849
0.0306772
0.0307749
0.0309186
0.0309265
0.0311035
0.0311601
0.0312411
0.0313653
0.0314664
0.0315702
0.0316966
0.0318388
0.0319574
0.0320471
0.032167
0.032278
0.0324136
0.0325183
0.0335839
0.0338238
0.033977
0.0340856
0.0342354
0.0344132
0.034581
0.0347527
0.0349062
0.0351012
0.0353079
0.0355324
0.0357928
0.0361005
)
;

boundaryField
{
    inlet
    {
        type            fixedValue;
        value           uniform 0;
    }
    outlet
    {
        type            zeroGradient;
    }
    yzfaces
    {
        type            empty;
    }
}


// ************************************************************************* //
