/*--------------------------------*- C++ -*----------------------------------*\
| =========                 |                                                 |
| \\      /  F ield         | foam-extend: Open Source CFD                    |
|  \\    /   O peration     | Version:     5.0                                |
|   \\  /    A nd           | Web:         http://www.foam-extend.org         |
|    \\/     M anipulation  |                                                 |
\*---------------------------------------------------------------------------*/
FoamFile
{
    version     2.0;
    format      ascii;
    class       volScalarField;
    location    "6";
    object      CO2.water;
}
// * * * * * * * * * * * * * * * * * * * * * * * * * * * * * * * * * * * * * //

dimensions      [0 0 0 0 0 0 0];

internalField   nonuniform List<scalar> 
100
(
0.00104338
0.00137556
0.00163588
0.00183926
0.00195529
0.00206879
0.00216591
0.00228869
0.00239407
0.00248336
0.00256535
0.00264689
0.00270525
0.0027554
0.00280533
0.00285922
0.00290838
0.00295068
0.00297407
0.00300432
0.00303379
0.00306636
0.00310602
0.00313887
0.00317023
0.00320332
0.00323156
0.00325824
0.0032833
0.00330757
0.0033347
0.00335813
0.0033818
0.00340365
0.00342289
0.00344832
0.00346749
0.00348334
0.00350438
0.00351832
0.00353632
0.00355514
0.00357298
0.00358923
0.00360413
0.00361984
0.00363557
0.00365327
0.00366976
0.00368678
0.00370123
0.00371704
0.00373063
0.00374766
0.00376328
0.00377627
0.00378801
0.00380136
0.00381536
0.00382937
0.00384254
0.00385561
0.00386778
0.00387744
0.00388921
0.00390086
0.00391199
0.00392295
0.00393613
0.00394808
0.00396137
0.00397682
0.00398995
0.00400312
0.00401812
0.00403191
0.00404565
0.00406058
0.00407694
0.00409164
0.00410674
0.00412189
0.00413752
0.00415286
0.00416888
0.00418586
0.000490235
5.98597e-05
7.51539e-06
9.35351e-07
1.07632e-07
9.24636e-09
0
0
0
0
0
0
0
0
)
;

boundaryField
{
    inlet
    {
        type            fixedValue;
        value           uniform 0;
    }
    outlet
    {
        type            zeroGradient;
    }
    yzfaces
    {
        type            empty;
    }
}


// ************************************************************************* //
