/*--------------------------------*- C++ -*----------------------------------*\
| =========                 |                                                 |
| \\      /  F ield         | foam-extend: Open Source CFD                    |
|  \\    /   O peration     | Version:     5.0                                |
|   \\  /    A nd           | Web:         http://www.foam-extend.org         |
|    \\/     M anipulation  |                                                 |
\*---------------------------------------------------------------------------*/
FoamFile
{
    version     2.0;
    format      ascii;
    class       volScalarField;
    location    "6";
    object      CO2.water;
}
// * * * * * * * * * * * * * * * * * * * * * * * * * * * * * * * * * * * * * //

dimensions      [0 0 0 0 0 0 0];

internalField   nonuniform List<scalar> 
100
(
0.00103824
0.00137311
0.00161909
0.00183135
0.00196152
0.0020603
0.00217472
0.00229156
0.00240116
0.00248729
0.00257569
0.00265006
0.00271154
0.00276639
0.00281902
0.00287619
0.00291678
0.0029572
0.00298576
0.00300568
0.00303255
0.00306715
0.00309249
0.00312337
0.0031608
0.00319297
0.00322401
0.00325339
0.00327886
0.00330535
0.00332964
0.00335309
0.00337662
0.00339626
0.00341188
0.00343543
0.0034595
0.00347912
0.00350177
0.0035184
0.0035387
0.00355703
0.00357503
0.0035936
0.00360907
0.00362185
0.00363648
0.00365344
0.00366921
0.00368706
0.00370227
0.00371564
0.00373228
0.00374676
0.00376128
0.00377459
0.00378857
0.00380043
0.00381221
0.00382577
0.00383843
0.00385069
0.00386325
0.00387506
0.00388679
0.00389892
0.00391064
0.00392356
0.00393523
0.00394833
0.00396062
0.00397498
0.00398879
0.00400217
0.00401812
0.00403229
0.0040478
0.00406142
0.0040776
0.0040938
0.00410883
0.00412376
0.00413951
0.00415493
0.00417144
0.00418799
0.000473246
5.50315e-05
6.55656e-06
7.88041e-07
9.36803e-08
1.08015e-08
1.18587e-09
1.25272e-10
1.82784e-11
3.7664e-12
7.90696e-13
1.68821e-13
3.67607e-14
9.2251e-15
)
;

boundaryField
{
    inlet
    {
        type            fixedValue;
        value           uniform 0;
    }
    outlet
    {
        type            zeroGradient;
    }
    yzfaces
    {
        type            empty;
    }
}


// ************************************************************************* //
