/*--------------------------------*- C++ -*----------------------------------*\
| =========                 |                                                 |
| \\      /  F ield         | foam-extend: Open Source CFD                    |
|  \\    /   O peration     | Version:     5.0                                |
|   \\  /    A nd           | Web:         http://www.foam-extend.org         |
|    \\/     M anipulation  |                                                 |
\*---------------------------------------------------------------------------*/
FoamFile
{
    version     2.0;
    format      ascii;
    class       volScalarField;
    location    "6";
    object      H2O.gas;
}
// * * * * * * * * * * * * * * * * * * * * * * * * * * * * * * * * * * * * * //

dimensions      [0 0 0 0 0 0 0];

internalField   nonuniform List<scalar> 
100
(
0.00031251
0.000287681
0.000269441
0.000253703
0.000244051
0.000236727
0.000228243
0.000219579
0.000211452
0.000205066
0.000198511
0.000192996
0.000188438
0.000184371
0.000180469
0.00017623
0.00017322
0.000170223
0.000168105
0.000166628
0.000164636
0.00016207
0.000160191
0.000157901
0.000155126
0.000152741
0.000150439
0.000148261
0.000146372
0.000144408
0.000142607
0.000140869
0.000139123
0.000137667
0.000136509
0.000134763
0.000132978
0.000131524
0.000129844
0.000128611
0.000127106
0.000125747
0.000124412
0.000123035
0.000121888
0.00012094
0.000119855
0.000118598
0.000117429
0.000116105
0.000114977
0.000113986
0.000112752
0.000111678
0.000110602
0.000109615
0.000108579
0.000107699
0.000106826
0.00010582
0.000104881
0.000103972
0.000103041
0.000102165
0.000101295
0.000100396
9.95272e-05
9.85686e-05
9.77039e-05
9.67322e-05
9.58206e-05
9.47562e-05
9.37326e-05
9.27402e-05
9.15571e-05
9.05067e-05
8.93566e-05
8.83465e-05
8.71468e-05
8.59462e-05
8.48311e-05
8.37245e-05
8.25565e-05
8.14133e-05
8.0189e-05
7.8962e-05
0.00716092
0.011831
0.0152802
0.0179623
0.0201266
0.0219323
0.0233994
0.0245967
0.0255077
0.0261237
0.0264854
0.0265811
0.0263979
0.025906
)
;

boundaryField
{
    inlet
    {
        type            fixedValue;
        value           uniform 0;
    }
    outlet
    {
        type            zeroGradient;
    }
    yzfaces
    {
        type            empty;
    }
}


// ************************************************************************* //
