/*--------------------------------*- C++ -*----------------------------------*\
| =========                 |                                                 |
| \\      /  F ield         | foam-extend: Open Source CFD                    |
|  \\    /   O peration     | Version:     5.0                                |
|   \\  /    A nd           | Web:         http://www.foam-extend.org         |
|    \\/     M anipulation  |                                                 |
\*---------------------------------------------------------------------------*/
FoamFile
{
    version     2.0;
    format      ascii;
    class       volScalarField;
    location    "6";
    object      H2O.water;
}
// * * * * * * * * * * * * * * * * * * * * * * * * * * * * * * * * * * * * * //

dimensions      [0 0 0 0 0 0 0];

internalField   nonuniform List<scalar> 
100
(
0.0226826
0.0289263
0.0346058
0.0389258
0.0408437
0.0431339
0.0454772
0.0490936
0.0517496
0.0536875
0.0556291
0.0575402
0.0587044
0.0595945
0.0607519
0.0621994
0.0631151
0.0639534
0.0641235
0.0644723
0.0650578
0.0659322
0.0671306
0.0677263
0.0682361
0.0690392
0.0697332
0.0704055
0.0709081
0.0713117
0.071948
0.0724495
0.0729872
0.0733383
0.0737951
0.0744244
0.0746713
0.0748722
0.0754762
0.0754461
0.0759867
0.0765083
0.0769124
0.0772248
0.0776069
0.078005
0.0782919
0.0787825
0.0791757
0.0796735
0.0796499
0.0799832
0.0801068
0.080537
0.080938
0.0811347
0.0813291
0.0816643
0.0819849
0.0823193
0.0825734
0.0829211
0.083163
0.0831591
0.0835531
0.0838009
0.0840253
0.0843148
0.0846221
0.0848644
0.0850619
0.0856002
0.0857432
0.0861064
0.0864863
0.0867418
0.0870414
0.0874097
0.0877609
0.0880272
0.0883522
0.0887258
0.0890607
0.0893992
0.0897182
0.0901423
0.0923696
0.092958
0.0933986
0.0937077
0.0941323
0.0946289
0.0951251
0.0956009
0.0960668
0.0966067
0.0971998
0.0977706
0.0984457
0.0992556
)
;

boundaryField
{
    inlet
    {
        type            fixedValue;
        value           uniform 0;
    }
    outlet
    {
        type            zeroGradient;
    }
    yzfaces
    {
        type            empty;
    }
}


// ************************************************************************* //
