/*--------------------------------*- C++ -*----------------------------------*\
| =========                 |                                                 |
| \\      /  F ield         | foam-extend: Open Source CFD                    |
|  \\    /   O peration     | Version:     5.0                                |
|   \\  /    A nd           | Web:         http://www.foam-extend.org         |
|    \\/     M anipulation  |                                                 |
\*---------------------------------------------------------------------------*/
FoamFile
{
    version     2.0;
    format      ascii;
    class       volScalarField;
    location    "6";
    object      Na.water;
}
// * * * * * * * * * * * * * * * * * * * * * * * * * * * * * * * * * * * * * //

dimensions      [0 0 0 0 0 0 0];

internalField   nonuniform List<scalar> 
100
(
0.00800049
0.0110385
0.0130279
0.0146378
0.0158265
0.0167813
0.0174106
0.0178781
0.018508
0.0191937
0.0197404
0.0202928
0.0207896
0.0212796
0.0216236
0.0218999
0.0223591
0.0227216
0.02307
0.0234582
0.0237137
0.0238765
0.0240116
0.0243222
0.0246518
0.0248632
0.0250442
0.0252026
0.0254139
0.0256529
0.0258368
0.026019
0.0261981
0.0264239
0.0265555
0.0267113
0.0269364
0.0271298
0.0272118
0.0274799
0.0275422
0.0276286
0.0277658
0.0279174
0.0280058
0.0281019
0.0282453
0.0283303
0.0284388
0.0284968
0.0287793
0.0289044
0.0291002
0.0292109
0.0293001
0.0294413
0.0295576
0.0296435
0.0297454
0.0298325
0.0299361
0.0300057
0.0300995
0.0302762
0.0303013
0.030392
0.030479
0.0305402
0.0306292
0.0307326
0.0308841
0.0309105
0.0310773
0.0311459
0.0312408
0.0313725
0.0314811
0.0315626
0.0316916
0.031828
0.0319442
0.0320426
0.0321673
0.0322865
0.0324257
0.0325266
0.0335877
0.0338186
0.0339805
0.0341005
0.0342493
0.0344228
0.0346011
0.0347768
0.0349352
0.0351263
0.035337
0.0355511
0.035805
0.0361013
)
;

boundaryField
{
    inlet
    {
        type            fixedValue;
        value           uniform 0;
    }
    outlet
    {
        type            zeroGradient;
    }
    yzfaces
    {
        type            empty;
    }
}


// ************************************************************************* //
