/*--------------------------------*- C++ -*----------------------------------*\
| =========                 |                                                 |
| \\      /  F ield         | foam-extend: Open Source CFD                    |
|  \\    /   O peration     | Version:     5.0                                |
|   \\  /    A nd           | Web:         http://www.foam-extend.org         |
|    \\/     M anipulation  |                                                 |
\*---------------------------------------------------------------------------*/
FoamFile
{
    version     2.0;
    format      ascii;
    class       surfaceScalarField;
    location    "6";
    object      phi;
}
// * * * * * * * * * * * * * * * * * * * * * * * * * * * * * * * * * * * * * //

dimensions      [0 3 -1 0 0 0 0];

internalField   nonuniform List<scalar> 
99
(
1.23205e-06
1.24119e-06
1.23877e-06
1.23982e-06
1.23979e-06
1.237e-06
1.22431e-06
1.22728e-06
1.21804e-06
1.21443e-06
1.21142e-06
1.21338e-06
1.21564e-06
1.20774e-06
1.20832e-06
1.20918e-06
1.20595e-06
1.20786e-06
1.20915e-06
1.20871e-06
1.2017e-06
1.20924e-06
1.20078e-06
1.20357e-06
1.20573e-06
1.20106e-06
1.19867e-06
1.19808e-06
1.20001e-06
1.2036e-06
1.205e-06
1.20598e-06
1.20895e-06
1.20818e-06
1.20379e-06
1.20134e-06
1.20277e-06
1.20392e-06
1.20475e-06
1.20916e-06
1.20838e-06
1.20937e-06
1.21055e-06
1.21247e-06
1.2084e-06
1.20693e-06
1.20803e-06
1.21105e-06
1.21068e-06
1.21695e-06
1.21984e-06
1.21658e-06
1.21772e-06
1.21968e-06
1.21925e-06
1.21701e-06
1.21782e-06
1.21482e-06
1.21199e-06
1.21417e-06
1.21753e-06
1.218e-06
1.21314e-06
1.21004e-06
1.20887e-06
1.2102e-06
1.21294e-06
1.21405e-06
1.212e-06
1.2103e-06
1.20677e-06
1.20721e-06
1.20538e-06
1.20221e-06
1.20521e-06
1.20346e-06
1.20253e-06
1.20018e-06
1.19856e-06
1.19988e-06
1.19921e-06
1.19765e-06
1.19956e-06
1.19728e-06
1.198e-06
1.19849e-06
1.19681e-06
1.19677e-06
1.19687e-06
1.1959e-06
1.19721e-06
1.19723e-06
1.19756e-06
1.19689e-06
1.19623e-06
1.19738e-06
1.19832e-06
1.19878e-06
1.19737e-06
)
;

boundaryField
{
    inlet
    {
        type            calculated;
        value           uniform -1.225e-06;
    }
    outlet
    {
        type            calculated;
        value           uniform 1.20209e-06;
    }
    yzfaces
    {
        type            empty;
    }
}


// ************************************************************************* //
