/*--------------------------------*- C++ -*----------------------------------*\
| =========                 |                                                 |
| \\      /  F ield         | foam-extend: Open Source CFD                    |
|  \\    /   O peration     | Version:     5.0                                |
|   \\  /    A nd           | Web:         http://www.foam-extend.org         |
|    \\/     M anipulation  |                                                 |
\*---------------------------------------------------------------------------*/
FoamFile
{
    version     2.0;
    format      ascii;
    class       surfaceScalarField;
    location    "6";
    object      phi.water;
}
// * * * * * * * * * * * * * * * * * * * * * * * * * * * * * * * * * * * * * //

dimensions      [0 3 -1 0 0 0 0];

internalField   nonuniform List<scalar> 
99
(
9.22293e-08
1.54047e-07
2.10351e-07
2.74703e-07
3.20439e-07
3.53008e-07
3.97349e-07
4.51867e-07
5.06486e-07
5.52393e-07
6.08843e-07
6.61167e-07
7.07652e-07
7.46195e-07
7.88721e-07
8.42576e-07
8.77574e-07
9.20138e-07
9.5186e-07
9.6859e-07
9.9159e-07
1.03797e-06
1.05738e-06
1.0958e-06
1.14475e-06
1.17984e-06
1.21998e-06
1.26085e-06
1.29841e-06
1.34004e-06
1.37869e-06
1.41526e-06
1.45847e-06
1.48827e-06
1.50794e-06
1.54503e-06
1.58981e-06
1.62571e-06
1.6707e-06
1.70496e-06
1.74458e-06
1.7815e-06
1.81985e-06
1.85949e-06
1.88614e-06
1.91131e-06
1.94399e-06
1.98677e-06
2.02225e-06
2.07295e-06
2.11317e-06
2.13824e-06
2.18248e-06
2.22004e-06
2.25525e-06
2.28443e-06
2.3227e-06
2.34566e-06
2.37187e-06
2.41336e-06
2.45388e-06
2.48703e-06
2.51143e-06
2.53853e-06
2.56927e-06
2.60815e-06
2.64736e-06
2.68688e-06
2.71588e-06
2.75105e-06
2.77936e-06
2.82527e-06
2.86206e-06
2.89701e-06
2.95444e-06
2.9937e-06
3.04216e-06
3.07821e-06
3.12971e-06
3.18762e-06
3.23568e-06
3.28331e-06
3.34099e-06
3.38822e-06
3.44918e-06
3.50806e-06
3.56065e-06
3.62142e-06
3.68342e-06
3.74748e-06
3.82316e-06
3.8951e-06
3.9716e-06
4.04743e-06
4.1307e-06
4.22874e-06
4.33131e-06
4.44066e-06
4.55438e-06
)
;

boundaryField
{
    inlet
    {
        type            fixedValue;
        value           uniform 0;
    }
    outlet
    {
        type            calculated;
        value           uniform 4.72092e-06;
    }
    yzfaces
    {
        type            empty;
    }
}


// ************************************************************************* //
