/*--------------------------------*- C++ -*----------------------------------*\
| =========                 |                                                 |
| \\      /  F ield         | foam-extend: Open Source CFD                    |
|  \\    /   O peration     | Version:     5.0                                |
|   \\  /    A nd           | Web:         http://www.foam-extend.org         |
|    \\/     M anipulation  |                                                 |
\*---------------------------------------------------------------------------*/
FoamFile
{
    version     2.0;
    format      ascii;
    class       volScalarField;
    location    "4";
    object      alpha.water;
}
// * * * * * * * * * * * * * * * * * * * * * * * * * * * * * * * * * * * * * //

dimensions      [0 0 0 0 0 0 0];

internalField   nonuniform List<scalar> 
100
(
0.00468464
0.00733527
0.00965038
0.0117558
0.0137088
0.0155384
0.0172626
0.0188941
0.0204487
0.0219272
0.0233413
0.0246964
0.0259977
0.0272531
0.0284559
0.0296148
0.0307327
0.031818
0.0328635
0.0338846
0.0348593
0.0358184
0.0367406
0.0376399
0.0385195
0.0393756
0.0402131
0.0410198
0.0418056
0.0425786
0.0433274
0.0440649
0.0447875
0.0454865
0.0461756
0.0468437
0.0475019
0.04815
0.0487758
0.0493944
0.0500004
0.0505992
0.0511839
0.0517521
0.0523138
0.0528806
0.0534244
0.0539642
0.054487
0.0549962
0.0554925
0.0559866
0.0564659
0.0569396
0.0574039
0.0578607
0.0583061
0.0587546
0.0591911
0.0596256
0.0600491
0.0604704
0.0608848
0.0613036
0.0617091
0.0621128
0.0625084
0.0628958
0.0632842
0.0636646
0.0640442
0.0644196
0.0647934
0.0651508
0.0655121
0.0658682
0.0662212
0.0665696
0.0669108
0.0672519
0.0675886
0.067925
0.0682478
0.0685762
0.0688958
0.0692207
0.0695289
0.0698382
0.0701385
0.0704418
0.0707412
0.0710363
0.071326
0.0716137
0.0718978
0.0721829
0.0724639
0.0727362
0.0730125
0.0732724
)
;

boundaryField
{
    inlet
    {
        type            fixedValue;
        value           uniform 0;
    }
    outlet
    {
        type            zeroGradient;
    }
    yzfaces
    {
        type            empty;
    }
}


// ************************************************************************* //
