/*--------------------------------*- C++ -*----------------------------------*\
| =========                 |                                                 |
| \\      /  F ield         | foam-extend: Open Source CFD                    |
|  \\    /   O peration     | Version:     5.0                                |
|   \\  /    A nd           | Web:         http://www.foam-extend.org         |
|    \\/     M anipulation  |                                                 |
\*---------------------------------------------------------------------------*/
FoamFile
{
    version     2.0;
    format      ascii;
    class       volScalarField;
    location    "4";
    object      H2O.water;
}
// * * * * * * * * * * * * * * * * * * * * * * * * * * * * * * * * * * * * * //

dimensions      [0 0 0 0 0 0 0];

internalField   nonuniform List<scalar> 
100
(
0.00468446
0.00733586
0.00964908
0.0117561
0.0137104
0.0155399
0.0172649
0.018898
0.0204507
0.021931
0.0233456
0.0247012
0.0260018
0.0272517
0.0284556
0.0296161
0.0307369
0.0318199
0.0328669
0.033882
0.0348658
0.0358205
0.0367478
0.0376488
0.0385254
0.0393775
0.0402078
0.0410173
0.0418058
0.042576
0.0433275
0.044061
0.0447784
0.0454793
0.0461643
0.0468355
0.0474926
0.0481344
0.0487663
0.0493836
0.0499891
0.0505825
0.051165
0.0517359
0.0522969
0.0528485
0.0533898
0.0539214
0.0544428
0.0549552
0.0554595
0.0559555
0.0564442
0.0569249
0.0573969
0.0578626
0.058321
0.0587724
0.0592171
0.0596542
0.0600856
0.0605109
0.0609299
0.0613442
0.061751
0.0621524
0.0625495
0.0629399
0.0633262
0.0637069
0.0640822
0.0644543
0.064821
0.0651836
0.0655395
0.0658923
0.0662428
0.0665869
0.0669268
0.0672641
0.0675969
0.0679261
0.0682507
0.0685717
0.0688891
0.0692041
0.0695151
0.0698217
0.0701261
0.0704264
0.0707241
0.0710188
0.0713099
0.0715986
0.0718835
0.0721656
0.0724438
0.0727214
0.0729962
0.0732654
)
;

boundaryField
{
    inlet
    {
        type            fixedValue;
        value           uniform 0;
    }
    outlet
    {
        type            zeroGradient;
    }
    yzfaces
    {
        type            empty;
    }
}


// ************************************************************************* //
