/*--------------------------------*- C++ -*----------------------------------*\
| =========                 |                                                 |
| \\      /  F ield         | foam-extend: Open Source CFD                    |
|  \\    /   O peration     | Version:     5.0                                |
|   \\  /    A nd           | Web:         http://www.foam-extend.org         |
|    \\/     M anipulation  |                                                 |
\*---------------------------------------------------------------------------*/
FoamFile
{
    version     2.0;
    format      ascii;
    class       surfaceScalarField;
    location    "4";
    object      phi;
}
// * * * * * * * * * * * * * * * * * * * * * * * * * * * * * * * * * * * * * //

dimensions      [0 3 -1 0 0 0 0];

internalField   nonuniform List<scalar> 
99
(
0.000122492
0.000122492
0.000122484
0.000122466
0.000122468
0.000122487
0.000122499
0.000122485
0.000122514
0.000122512
0.000122526
0.000122502
0.000122501
0.000122502
0.000122505
0.000122515
0.000122512
0.000122479
0.000122485
0.000122492
0.000122475
0.000122462
0.00012248
0.00012248
0.000122461
0.000122448
0.000122461
0.000122464
0.000122448
0.000122447
0.000122438
0.000122423
0.000122429
0.000122424
0.000122424
0.000122444
0.000122448
0.000122445
0.00012243
0.000122428
0.000122427
0.000122406
0.000122415
0.000122422
0.000122401
0.000122383
0.000122389
0.000122384
0.000122377
0.000122385
0.000122404
0.000122395
0.000122414
0.000122432
0.000122439
0.000122466
0.000122484
0.000122501
0.000122497
0.000122517
0.000122508
0.000122533
0.000122535
0.000122543
0.000122558
0.000122563
0.000122558
0.000122567
0.000122564
0.000122552
0.000122543
0.000122552
0.000122547
0.000122546
0.000122541
0.000122519
0.000122523
0.000122519
0.000122524
0.000122497
0.000122491
0.000122495
0.000122483
0.000122472
0.000122466
0.000122463
0.000122458
0.000122461
0.000122461
0.000122457
0.000122467
0.000122458
0.000122462
0.000122463
0.000122449
0.00012247
0.000122464
0.00012245
0.00012247
)
;

boundaryField
{
    inlet
    {
        type            calculated;
        value           uniform -0.0001225;
    }
    outlet
    {
        type            calculated;
        value           uniform 0.000122478;
    }
    yzfaces
    {
        type            empty;
    }
}


// ************************************************************************* //
