/*--------------------------------*- C++ -*----------------------------------*\
| =========                 |                                                 |
| \\      /  F ield         | foam-extend: Open Source CFD                    |
|  \\    /   O peration     | Version:     5.0                                |
|   \\  /    A nd           | Web:         http://www.foam-extend.org         |
|    \\/     M anipulation  |                                                 |
\*---------------------------------------------------------------------------*/
FoamFile
{
    version     2.0;
    format      ascii;
    class       volVectorField;
    location    "4";
    object      U.water;
}
// * * * * * * * * * * * * * * * * * * * * * * * * * * * * * * * * * * * * * //

dimensions      [0 1 -1 0 0 0 0];

internalField   nonuniform List<vector> 
100
(
(0.000108057 0 0)
(0.000242899 0 0)
(0.000366534 0 0)
(0.000484197 0 0)
(0.000597717 0 0)
(0.000708333 0 0)
(0.0008165 0 0)
(0.000922374 0 0)
(0.00102638 0 0)
(0.00112891 0 0)
(0.00122967 0 0)
(0.00132896 0 0)
(0.00142693 0 0)
(0.00152389 0 0)
(0.00161994 0 0)
(0.00171464 0 0)
(0.00180819 0 0)
(0.00190038 0 0)
(0.00199206 0 0)
(0.00208303 0 0)
(0.00217328 0 0)
(0.00226168 0 0)
(0.00235048 0 0)
(0.00243793 0 0)
(0.00252465 0 0)
(0.00261103 0 0)
(0.00269726 0 0)
(0.002783 0 0)
(0.00286702 0 0)
(0.00295041 0 0)
(0.0030337 0 0)
(0.00311604 0 0)
(0.00319858 0 0)
(0.00328065 0 0)
(0.00336149 0 0)
(0.00344256 0 0)
(0.00352295 0 0)
(0.00360307 0 0)
(0.00368241 0 0)
(0.00376051 0 0)
(0.00383906 0 0)
(0.003917 0 0)
(0.00399491 0 0)
(0.00407248 0 0)
(0.00414865 0 0)
(0.00422492 0 0)
(0.00430254 0 0)
(0.0043786 0 0)
(0.00445454 0 0)
(0.00452939 0 0)
(0.00460373 0 0)
(0.00467725 0 0)
(0.00475073 0 0)
(0.00482366 0 0)
(0.00489639 0 0)
(0.00496859 0 0)
(0.00504056 0 0)
(0.00511196 0 0)
(0.00518365 0 0)
(0.00525455 0 0)
(0.00532531 0 0)
(0.00539576 0 0)
(0.00546654 0 0)
(0.00553684 0 0)
(0.00560834 0 0)
(0.0056786 0 0)
(0.00574863 0 0)
(0.00581805 0 0)
(0.00588707 0 0)
(0.00595592 0 0)
(0.00602431 0 0)
(0.00609366 0 0)
(0.006163 0 0)
(0.00623185 0 0)
(0.00629912 0 0)
(0.00636678 0 0)
(0.00643455 0 0)
(0.00650258 0 0)
(0.00657009 0 0)
(0.00663657 0 0)
(0.00670317 0 0)
(0.00677052 0 0)
(0.00683755 0 0)
(0.00690286 0 0)
(0.00696945 0 0)
(0.00703575 0 0)
(0.00710246 0 0)
(0.00716746 0 0)
(0.00723281 0 0)
(0.00729729 0 0)
(0.00736243 0 0)
(0.00742717 0 0)
(0.00749144 0 0)
(0.00755556 0 0)
(0.00761923 0 0)
(0.00768309 0 0)
(0.00774755 0 0)
(0.00781036 0 0)
(0.00787321 0 0)
(0.00793703 0 0)
)
;

boundaryField
{
    inlet
    {
        type            fixedValue;
        value           uniform (0 0 0);
    }
    outlet
    {
        type            zeroGradient;
    }
    yzfaces
    {
        type            empty;
    }
}


// ************************************************************************* //
