/*--------------------------------*- C++ -*----------------------------------*\
| =========                 |                                                 |
| \\      /  F ield         | foam-extend: Open Source CFD                    |
|  \\    /   O peration     | Version:     5.0                                |
|   \\  /    A nd           | Web:         http://www.foam-extend.org         |
|    \\/     M anipulation  |                                                 |
\*---------------------------------------------------------------------------*/
FoamFile
{
    version     2.0;
    format      ascii;
    class       volScalarField;
    location    "8";
    object      alpha.gas;
}
// * * * * * * * * * * * * * * * * * * * * * * * * * * * * * * * * * * * * * //

dimensions      [0 0 0 0 0 0 0];

internalField   nonuniform List<scalar> 
100
(
0.166015
0.153368
0.144137
0.137086
0.130883
0.125838
0.121641
0.118263
0.115533
0.113325
0.111399
0.109281
0.107146
0.105085
0.103321
0.101701
0.100303
0.0983488
0.0962963
0.0945723
0.0928035
0.0909125
0.0885558
0.086365
0.084233
0.0825818
0.0814343
0.0806186
0.0798506
0.0794135
0.0790571
0.0789576
0.0789767
0.0793856
0.0796944
0.0796479
0.0795082
0.0791337
0.0785144
0.0774953
0.0761269
0.074675
0.0733367
0.072239
0.0712644
0.0706143
0.0699391
0.0694448
0.0689599
0.0683763
0.0679589
0.067362
0.0668768
0.0662794
0.0656556
0.064988
0.0642892
0.0635847
0.0629083
0.0623016
0.0617747
0.0611612
0.0605436
0.059892
0.0593089
0.0588073
0.0581948
0.0576563
0.0571778
0.0566973
0.0563008
0.0558059
0.0552119
0.0544398
0.0536676
0.0529195
0.0521334
0.0513145
0.0502813
0.0490452
0.0477093
0.0462402
0.0424659
0.0384479
0.0354998
0.0339605
0.0334942
0.0336063
0.0339301
0.0342277
0.034437
0.0345794
0.034675
0.034775
0.0348558
0.0349371
0.0350369
0.035141
0.0352374
0.035357
)
;

boundaryField
{
    inlet
    {
        type            fixedValue;
        value           uniform 0.2;
    }
    outlet
    {
        type            zeroGradient;
    }
    yzfaces
    {
        type            empty;
    }
}


// ************************************************************************* //
