/*--------------------------------*- C++ -*----------------------------------*\
| =========                 |                                                 |
| \\      /  F ield         | foam-extend: Open Source CFD                    |
|  \\    /   O peration     | Version:     5.0                                |
|   \\  /    A nd           | Web:         http://www.foam-extend.org         |
|    \\/     M anipulation  |                                                 |
\*---------------------------------------------------------------------------*/
FoamFile
{
    version     2.0;
    format      ascii;
    class       volScalarField;
    location    "8";
    object      Cl.water;
}
// * * * * * * * * * * * * * * * * * * * * * * * * * * * * * * * * * * * * * //

dimensions      [0 0 0 0 0 0 0];

internalField   nonuniform List<scalar> 
100
(
0
0.00140178
0.00302889
0.00458514
0.00558243
0.00605409
0.00621022
0.00638332
0.00671936
0.00715731
0.00753766
0.00773853
0.00781753
0.00789751
0.00804982
0.00823166
0.00836103
0.00845071
0.00852404
0.0086416
0.00877145
0.00892313
0.00908234
0.00923444
0.00943859
0.00973078
0.0100457
0.0103452
0.0105832
0.0106912
0.0107216
0.0107184
0.0106791
0.010579
0.0104212
0.0103386
0.0104307
0.0106054
0.0107607
0.0108418
0.0108696
0.0109179
0.0110779
0.0112763
0.0114149
0.0114434
0.0114006
0.0114128
0.0115548
0.0117254
0.011791
0.0116938
0.0115874
0.0116424
0.0118699
0.0120147
0.0119191
0.011728
0.0117031
0.0117916
0.0117291
0.0114795
0.0113369
0.0115683
0.0122534
0.0127462
0.0125627
0.0120755
0.0119072
0.0124129
0.0134286
0.0132915
0.0122039
0.0116445
0.0122594
0.0136449
0.0120088
0.0106366
0.0115003
0.0136273
0.0156792
0.0171639
0.00719782
0.0115599
0.0164522
0.0189084
0.0198154
0.020066
0.020092
0.0200648
0.0200578
0.0200574
0.0200421
0.0200292
0.0200112
0.0199899
0.0199741
0.0199483
0.0199336
0.0199411
)
;

boundaryField
{
    inlet
    {
        type            fixedValue;
        value           uniform 0;
    }
    outlet
    {
        type            zeroGradient;
    }
    yzfaces
    {
        type            empty;
    }
}


// ************************************************************************* //
