/*--------------------------------*- C++ -*----------------------------------*\
| =========                 |                                                 |
| \\      /  F ield         | foam-extend: Open Source CFD                    |
|  \\    /   O peration     | Version:     5.0                                |
|   \\  /    A nd           | Web:         http://www.foam-extend.org         |
|    \\/     M anipulation  |                                                 |
\*---------------------------------------------------------------------------*/
FoamFile
{
    version     2.0;
    format      ascii;
    class       volScalarField;
    location    "8";
    object      CO2.gas;
}
// * * * * * * * * * * * * * * * * * * * * * * * * * * * * * * * * * * * * * //

dimensions      [0 0 0 0 0 0 0];

internalField   nonuniform List<scalar> 
100
(
0.166576
0.154143
0.143956
0.136416
0.12898
0.124677
0.121147
0.118762
0.116631
0.114731
0.113074
0.110672
0.108254
0.105975
0.104185
0.102337
0.100597
0.0981069
0.0956134
0.0938344
0.0916398
0.0894617
0.08692
0.0848853
0.0830695
0.0819527
0.0811149
0.0806609
0.080448
0.0805638
0.0805343
0.0807303
0.0809679
0.0816449
0.0818356
0.0814878
0.0813637
0.080836
0.0798748
0.0784243
0.0766608
0.0748718
0.0733818
0.0721793
0.071136
0.070646
0.0700127
0.0696078
0.0691489
0.0685275
0.0682314
0.067572
0.0670705
0.0663239
0.0656519
0.064976
0.0641663
0.0634193
0.0627539
0.0621205
0.0615479
0.0608828
0.0603617
0.0597812
0.0592087
0.0587164
0.0580432
0.0575836
0.0570647
0.0565555
0.0561786
0.055647
0.0550111
0.0541954
0.0533992
0.0526484
0.051882
0.0510549
0.049987
0.0487195
0.0473168
0.0457623
0.0419447
0.0378621
0.0347538
0.0329518
0.032165
0.0318849
0.0317414
0.0315077
0.0311561
0.0306861
0.0300881
0.0294437
0.0287106
0.0279166
0.0271034
0.0262192
0.0252988
0.0243848
)
;

boundaryField
{
    inlet
    {
        type            fixedValue;
        value           uniform 0.2;
    }
    outlet
    {
        type            zeroGradient;
    }
    yzfaces
    {
        type            empty;
    }
}


// ************************************************************************* //
