/*--------------------------------*- C++ -*----------------------------------*\
| =========                 |                                                 |
| \\      /  F ield         | foam-extend: Open Source CFD                    |
|  \\    /   O peration     | Version:     5.0                                |
|   \\  /    A nd           | Web:         http://www.foam-extend.org         |
|    \\/     M anipulation  |                                                 |
\*---------------------------------------------------------------------------*/
FoamFile
{
    version     2.0;
    format      ascii;
    class       volScalarField;
    location    "8";
    object      CO2.water;
}
// * * * * * * * * * * * * * * * * * * * * * * * * * * * * * * * * * * * * * //

dimensions      [0 0 0 0 0 0 0];

internalField   nonuniform List<scalar> 
100
(
0.000895645
0.00092662
0.000808201
0.000650198
0.000579081
0.000617568
0.000702932
0.000771869
0.000783012
0.00075258
0.000727757
0.000734741
0.000769151
0.000801792
0.000815394
0.000813952
0.00081549
0.000833123
0.000857267
0.000874423
0.000878412
0.000884104
0.000902592
0.000928691
0.000949335
0.000949011
0.000923018
0.000893881
0.000884465
0.000894282
0.000910915
0.000926084
0.000942141
0.000963924
0.000984396
0.000992018
0.000976979
0.000942391
0.000912225
0.000906079
0.00092071
0.000932932
0.000926679
0.000906987
0.000898543
0.000916026
0.00094671
0.000960096
0.000943694
0.00092007
0.000923259
0.000956174
0.000991233
0.000987353
0.000952079
0.000935374
0.000968018
0.00102616
0.00105061
0.00104551
0.00106965
0.00113686
0.00119095
0.00116218
0.00103085
0.000936457
0.000987203
0.00111228
0.00115842
0.00106005
0.000851931
0.000892803
0.00114258
0.00128214
0.00116813
0.00088737
0.0012664
0.00158841
0.00142783
0.00100054
0.000588145
0.000305193
0.00256493
0.00172664
0.000744627
0.000253487
7.30805e-05
1.85543e-05
4.28727e-06
9.29041e-07
1.94353e-07
4.01917e-08
8.37376e-09
1.78055e-09
3.88094e-10
8.67333e-11
1.97936e-11
4.5892e-12
1.07413e-12
2.3634e-13
)
;

boundaryField
{
    inlet
    {
        type            fixedValue;
        value           uniform 0;
    }
    outlet
    {
        type            zeroGradient;
    }
    yzfaces
    {
        type            empty;
    }
}


// ************************************************************************* //
