/*--------------------------------*- C++ -*----------------------------------*\
| =========                 |                                                 |
| \\      /  F ield         | foam-extend: Open Source CFD                    |
|  \\    /   O peration     | Version:     5.0                                |
|   \\  /    A nd           | Web:         http://www.foam-extend.org         |
|    \\/     M anipulation  |                                                 |
\*---------------------------------------------------------------------------*/
FoamFile
{
    version     2.0;
    format      ascii;
    class       volScalarField;
    location    "8";
    object      Na.water;
}
// * * * * * * * * * * * * * * * * * * * * * * * * * * * * * * * * * * * * * //

dimensions      [0 0 0 0 0 0 0];

internalField   nonuniform List<scalar> 
100
(
0
0.0014011
0.00302869
0.00458422
0.0055797
0.00605116
0.00620942
0.00638293
0.00671615
0.00715741
0.00753563
0.00773853
0.00781571
0.00789149
0.00804095
0.00822023
0.00835067
0.00844038
0.00851524
0.00863348
0.00876408
0.00892056
0.00908392
0.00923711
0.00944267
0.0097343
0.0100454
0.0103416
0.0105768
0.0106883
0.0107178
0.0107173
0.0106756
0.0105778
0.010418
0.0103379
0.0104334
0.0106077
0.0107584
0.0108404
0.0108678
0.0109152
0.0110748
0.0112725
0.0114147
0.0114459
0.0114019
0.0114178
0.0115633
0.0117397
0.0118
0.0117001
0.0115957
0.0116505
0.0118741
0.0120228
0.0119301
0.0117385
0.011716
0.0118005
0.0117346
0.0114876
0.0113499
0.0115831
0.0122629
0.0127605
0.0125779
0.0120858
0.0119143
0.0124181
0.0134372
0.0132974
0.0122111
0.0116528
0.0122682
0.013656
0.01202
0.0106423
0.0115051
0.0136364
0.015691
0.0171711
0.0072017
0.0115601
0.0164526
0.0189124
0.019819
0.0200632
0.0200928
0.0200614
0.0200463
0.0200415
0.0200245
0.0200121
0.0200012
0.0199857
0.0199754
0.0199511
0.0199339
0.0199522
)
;

boundaryField
{
    inlet
    {
        type            fixedValue;
        value           uniform 0;
    }
    outlet
    {
        type            zeroGradient;
    }
    yzfaces
    {
        type            empty;
    }
}


// ************************************************************************* //
