/*--------------------------------*- C++ -*----------------------------------*\
| =========                 |                                                 |
| \\      /  F ield         | foam-extend: Open Source CFD                    |
|  \\    /   O peration     | Version:     5.0                                |
|   \\  /    A nd           | Web:         http://www.foam-extend.org         |
|    \\/     M anipulation  |                                                 |
\*---------------------------------------------------------------------------*/
FoamFile
{
    version     2.0;
    format      ascii;
    class       volScalarField;
    location    "8";
    object      Ns;
}
// * * * * * * * * * * * * * * * * * * * * * * * * * * * * * * * * * * * * * //

dimensions      [0 -3 0 0 1 0 0];

internalField   nonuniform List<scalar> 
100
(
63.0423
2
2
2
25.386
2
2
2
2
12.1341
2
2
2
2
12.5705
2
2
2
2
10.7802
2
2
2
2
2
28.7014
2
2
2
2
13.3487
2
2
2
2
2
26.5909
2
2
2
2
2
30.3986
2
2
2
2
2
24.7611
2
2
2
2
2
15.5376
2
2
2
2
3.17572
2
2
2
2
2
27.1766
2
2
2
2
2
29.2909
2
2
2
2
4.77237
2
2
2
2
2
27.1913
2
2
2
2
2
2
2
2
2
2
2
2
2
2
2
2
2
)
;

boundaryField
{
    inlet
    {
        type            fixedValue;
        value           uniform 0;
    }
    outlet
    {
        type            zeroGradient;
    }
    yzfaces
    {
        type            empty;
    }
}


// ************************************************************************* //
