/*--------------------------------*- C++ -*----------------------------------*\
| =========                 |                                                 |
| \\      /  F ield         | foam-extend: Open Source CFD                    |
|  \\    /   O peration     | Version:     5.0                                |
|   \\  /    A nd           | Web:         http://www.foam-extend.org         |
|    \\/     M anipulation  |                                                 |
\*---------------------------------------------------------------------------*/
FoamFile
{
    version     2.0;
    format      ascii;
    class       surfaceScalarField;
    location    "8";
    object      phi;
}
// * * * * * * * * * * * * * * * * * * * * * * * * * * * * * * * * * * * * * //

dimensions      [0 3 -1 0 0 0 0];

internalField   nonuniform List<scalar> 
99
(
1.22705e-06
1.21269e-06
1.21346e-06
1.22139e-06
1.22223e-06
1.2312e-06
1.2372e-06
1.23322e-06
1.25001e-06
1.25828e-06
1.26532e-06
1.25919e-06
1.26401e-06
1.25885e-06
1.25185e-06
1.25608e-06
1.24769e-06
1.24435e-06
1.2393e-06
1.23753e-06
1.24388e-06
1.23995e-06
1.24001e-06
1.24205e-06
1.23738e-06
1.24088e-06
1.24947e-06
1.25031e-06
1.25552e-06
1.26243e-06
1.26678e-06
1.27444e-06
1.27571e-06
1.27153e-06
1.26734e-06
1.26876e-06
1.26276e-06
1.26145e-06
1.25877e-06
1.24713e-06
1.23855e-06
1.23336e-06
1.23223e-06
1.23345e-06
1.23252e-06
1.23378e-06
1.23309e-06
1.23389e-06
1.23047e-06
1.23366e-06
1.22933e-06
1.23025e-06
1.23238e-06
1.23334e-06
1.23076e-06
1.23257e-06
1.23407e-06
1.234e-06
1.23098e-06
1.23202e-06
1.22873e-06
1.22682e-06
1.22747e-06
1.22821e-06
1.22952e-06
1.22703e-06
1.22578e-06
1.22703e-06
1.2254e-06
1.22636e-06
1.22285e-06
1.2209e-06
1.21719e-06
1.21724e-06
1.21953e-06
1.21963e-06
1.22178e-06
1.21913e-06
1.21535e-06
1.21813e-06
1.2208e-06
1.22224e-06
1.22296e-06
1.22178e-06
1.22409e-06
1.22732e-06
1.22804e-06
1.22926e-06
1.22918e-06
1.22842e-06
1.22805e-06
1.22784e-06
1.229e-06
1.22847e-06
1.22952e-06
1.22908e-06
1.22943e-06
1.2274e-06
1.22749e-06
)
;

boundaryField
{
    inlet
    {
        type            calculated;
        value           uniform -1.225e-06;
    }
    outlet
    {
        type            calculated;
        value           uniform 1.22848e-06;
    }
    yzfaces
    {
        type            empty;
    }
}


// ************************************************************************* //
