/*--------------------------------*- C++ -*----------------------------------*\
| =========                 |                                                 |
| \\      /  F ield         | foam-extend: Open Source CFD                    |
|  \\    /   O peration     | Version:     5.0                                |
|   \\  /    A nd           | Web:         http://www.foam-extend.org         |
|    \\/     M anipulation  |                                                 |
\*---------------------------------------------------------------------------*/
FoamFile
{
    version     2.0;
    format      ascii;
    class       volVectorField;
    location    "8";
    object      U.gas;
}
// * * * * * * * * * * * * * * * * * * * * * * * * * * * * * * * * * * * * * //

dimensions      [0 1 -1 0 0 0 0];

internalField   nonuniform List<vector> 
100
(
(0.00602145 0 0)
(0.0064683 0 0)
(0.00682323 0 0)
(0.00717603 0 0)
(0.00751603 0 0)
(0.00781862 0 0)
(0.00810701 0 0)
(0.0083155 0 0)
(0.00852785 0 0)
(0.00875573 0 0)
(0.00893744 0 0)
(0.00908807 0 0)
(0.00923406 0 0)
(0.00938155 0 0)
(0.00946375 0 0)
(0.00957308 0 0)
(0.0096609 0 0)
(0.00977129 0 0)
(0.00990094 0 0)
(0.0100073 0 0)
(0.0101696 0 0)
(0.0103369 0 0)
(0.0105269 0 0)
(0.0107215 0 0)
(0.0108947 0 0)
(0.0110251 0 0)
(0.0111679 0 0)
(0.0112748 0 0)
(0.0113693 0 0)
(0.0114538 0 0)
(0.0115354 0 0)
(0.0115925 0 0)
(0.0116274 0 0)
(0.0115661 0 0)
(0.0115042 0 0)
(0.011506 0 0)
(0.0114999 0 0)
(0.0115066 0 0)
(0.011551 0 0)
(0.0115884 0 0)
(0.0116279 0 0)
(0.0116964 0 0)
(0.011782 0 0)
(0.0118698 0 0)
(0.0119523 0 0)
(0.0119981 0 0)
(0.0120608 0 0)
(0.0120969 0 0)
(0.0121264 0 0)
(0.0121793 0 0)
(0.0121998 0 0)
(0.0122424 0 0)
(0.0122938 0 0)
(0.0123642 0 0)
(0.0124081 0 0)
(0.0124603 0 0)
(0.0125359 0 0)
(0.0126009 0 0)
(0.0126365 0 0)
(0.0126692 0 0)
(0.0126932 0 0)
(0.0127183 0 0)
(0.0127572 0 0)
(0.0128111 0 0)
(0.0128586 0 0)
(0.0128822 0 0)
(0.0129108 0 0)
(0.0129398 0 0)
(0.0129647 0 0)
(0.0129903 0 0)
(0.0129916 0 0)
(0.0130019 0 0)
(0.0130144 0 0)
(0.0130517 0 0)
(0.013104 0 0)
(0.0131509 0 0)
(0.0132008 0 0)
(0.0132337 0 0)
(0.013261 0 0)
(0.0133164 0 0)
(0.0133896 0 0)
(0.013452 0 0)
(0.0138115 0 0)
(0.0137587 0 0)
(0.01335 0 0)
(0.0128804 0 0)
(0.0125661 0 0)
(0.012442 0 0)
(0.0124402 0 0)
(0.0124875 0 0)
(0.012535 0 0)
(0.0125663 0 0)
(0.0125948 0 0)
(0.0126107 0 0)
(0.0126295 0 0)
(0.0126444 0 0)
(0.0126518 0 0)
(0.0126539 0 0)
(0.0126591 0 0)
(0.0126723 0 0)
)
;

boundaryField
{
    inlet
    {
        type            fixedValue;
        value           uniform (0.005 0 0);
    }
    outlet
    {
        type            zeroGradient;
    }
    yzfaces
    {
        type            empty;
    }
}


// ************************************************************************* //
