/*--------------------------------*- C++ -*----------------------------------*\
| =========                 |                                                 |
| \\      /  F ield         | foam-extend: Open Source CFD                    |
|  \\    /   O peration     | Version:     5.0                                |
|   \\  /    A nd           | Web:         http://www.foam-extend.org         |
|    \\/     M anipulation  |                                                 |
\*---------------------------------------------------------------------------*/
FoamFile
{
    version     2.0;
    format      ascii;
    class       volVectorField;
    location    "8";
    object      U.water;
}
// * * * * * * * * * * * * * * * * * * * * * * * * * * * * * * * * * * * * * //

dimensions      [0 1 -1 0 0 0 0];

internalField   nonuniform List<vector> 
100
(
(3.49968e-05 0 0)
(8.11503e-05 0 0)
(0.000121401 0 0)
(0.000160199 0 0)
(0.000197799 0 0)
(0.00023621 0 0)
(0.000272642 0 0)
(0.000304891 0 0)
(0.000335298 0 0)
(0.000363994 0 0)
(0.000388512 0 0)
(0.000410759 0 0)
(0.000436034 0 0)
(0.000462247 0 0)
(0.000485769 0 0)
(0.000509157 0 0)
(0.000530847 0 0)
(0.000552499 0 0)
(0.000581571 0 0)
(0.000612125 0 0)
(0.000644129 0 0)
(0.000678826 0 0)
(0.000717931 0 0)
(0.000766683 0 0)
(0.000814766 0 0)
(0.000860689 0 0)
(0.00090259 0 0)
(0.000932807 0 0)
(0.000956627 0 0)
(0.000979768 0 0)
(0.000995312 0 0)
(0.00100725 0 0)
(0.00101286 0 0)
(0.00100736 0 0)
(0.000992853 0 0)
(0.000986397 0 0)
(0.000987107 0 0)
(0.000990597 0 0)
(0.0010021 0 0)
(0.00101849 0 0)
(0.00104435 0 0)
(0.00108125 0 0)
(0.00112353 0 0)
(0.00116573 0 0)
(0.00120202 0 0)
(0.00123214 0 0)
(0.00125608 0 0)
(0.00127808 0 0)
(0.00129448 0 0)
(0.00131427 0 0)
(0.00133452 0 0)
(0.00135132 0 0)
(0.00137456 0 0)
(0.00139786 0 0)
(0.00142238 0 0)
(0.00144927 0 0)
(0.00148011 0 0)
(0.00151123 0 0)
(0.0015404 0 0)
(0.00156858 0 0)
(0.00159353 0 0)
(0.00161625 0 0)
(0.00164485 0 0)
(0.00167753 0 0)
(0.0017096 0 0)
(0.00173596 0 0)
(0.0017616 0 0)
(0.00179204 0 0)
(0.00181835 0 0)
(0.00184367 0 0)
(0.00186665 0 0)
(0.00188542 0 0)
(0.00191032 0 0)
(0.00194498 0 0)
(0.00199094 0 0)
(0.00203721 0 0)
(0.00208494 0 0)
(0.00213344 0 0)
(0.00218335 0 0)
(0.00225335 0 0)
(0.00234207 0 0)
(0.00243976 0 0)
(0.00261228 0 0)
(0.00290222 0 0)
(0.00318779 0 0)
(0.00339167 0 0)
(0.00349116 0 0)
(0.00351485 0 0)
(0.00350062 0 0)
(0.00347274 0 0)
(0.00344867 0 0)
(0.00343289 0 0)
(0.00342396 0 0)
(0.00341665 0 0)
(0.00340945 0 0)
(0.00340326 0 0)
(0.00339588 0 0)
(0.00338544 0 0)
(0.00337408 0 0)
(0.00336717 0 0)
)
;

boundaryField
{
    inlet
    {
        type            fixedValue;
        value           uniform (0 0 0);
    }
    outlet
    {
        type            zeroGradient;
    }
    yzfaces
    {
        type            empty;
    }
}


// ************************************************************************* //
