/*--------------------------------*- C++ -*----------------------------------*\
| =========                 |                                                 |
| \\      /  F ield         | foam-extend: Open Source CFD                    |
|  \\    /   O peration     | Version:     5.0                                |
|   \\  /    A nd           | Web:         http://www.foam-extend.org         |
|    \\/     M anipulation  |                                                 |
\*---------------------------------------------------------------------------*/
FoamFile
{
    version     2.0;
    format      ascii;
    class       volScalarField;
    location    "6.97762";
    object      CO2.water;
}
// * * * * * * * * * * * * * * * * * * * * * * * * * * * * * * * * * * * * * //

dimensions      [0 0 0 0 0 0 0];

internalField   nonuniform List<scalar> 
100
(
7.48673e-05
3.35712e-06
1.21855e-07
3.987e-09
1.22364e-10
3.59086e-12
1.01876e-13
2.81481e-15
7.61113e-17
2.02103e-18
5.28348e-20
1.36268e-21
3.47337e-23
8.75962e-25
2.18783e-26
5.41792e-28
1.33106e-29
3.24585e-31
7.86317e-33
1.89314e-34
4.53188e-36
1.07881e-37
2.55493e-39
6.02262e-41
1.4132e-42
3.30211e-44
7.68366e-46
1.78107e-47
4.11282e-49
9.46447e-51
2.17128e-52
4.96536e-54
1.1324e-55
2.57497e-57
5.83967e-59
1.32097e-60
2.98061e-62
6.70744e-64
1.50641e-65
3.3752e-67
7.54656e-69
1.68362e-70
3.74892e-72
8.33005e-74
1.84721e-75
4.0865e-77
9.02249e-79
1.98709e-80
4.36745e-82
9.58025e-84
2.0975e-85
4.58391e-87
9.99922e-89
2.17749e-90
4.73446e-92
1.02815e-93
2.2299e-95
4.82924e-97
1.04448e-98
2.25621e-100
4.8669e-102
1.04851e-103
2.25632e-105
4.85036e-107
1.04211e-108
2.23648e-110
4.7945e-112
1.0268e-113
2.19679e-115
4.69525e-117
1.00305e-118
2.14155e-120
4.56816e-122
9.73676e-124
2.07368e-125
4.41307e-127
9.38766e-129
1.9955e-130
4.23971e-132
9.00275e-134
1.91077e-135
4.05434e-137
8.60074e-139
1.82427e-140
3.86883e-142
8.19879e-144
1.73725e-145
3.67928e-147
7.79417e-149
1.65054e-150
3.49472e-152
7.39777e-154
1.56584e-155
3.31451e-157
7.01286e-159
1.48352e-160
3.13656e-162
6.63104e-164
1.402e-165
2.96256e-167
)
;

boundaryField
{
    inlet
    {
        type            fixedValue;
        value           uniform 0;
    }
    outlet
    {
        type            zeroGradient;
    }
    yzfaces
    {
        type            empty;
    }
}


// ************************************************************************* //
