/*--------------------------------*- C++ -*----------------------------------*\
| =========                 |                                                 |
| \\      /  F ield         | foam-extend: Open Source CFD                    |
|  \\    /   O peration     | Version:     5.0                                |
|   \\  /    A nd           | Web:         http://www.foam-extend.org         |
|    \\/     M anipulation  |                                                 |
\*---------------------------------------------------------------------------*/
FoamFile
{
    version     2.0;
    format      ascii;
    class       volScalarField;
    location    "8";
    object      alpha.gas;
}
// * * * * * * * * * * * * * * * * * * * * * * * * * * * * * * * * * * * * * //

dimensions      [0 0 0 0 0 0 0];

internalField   nonuniform List<scalar> 
100
(
0.165016
0.152633
0.144026
0.137215
0.135002
0.132662
0.129164
0.124681
0.119253
0.115433
0.112403
0.110001
0.107114
0.104511
0.102224
0.0999429
0.097769
0.0961614
0.0945621
0.0924269
0.0910159
0.0896283
0.0879243
0.0870964
0.0867958
0.0864431
0.0859865
0.0851837
0.0843112
0.0832512
0.0822229
0.0809861
0.0798856
0.0789764
0.0779601
0.0770013
0.0761361
0.0754594
0.0749626
0.074268
0.0735044
0.0727426
0.0720242
0.0714234
0.0708544
0.070339
0.069867
0.0693593
0.0687354
0.068108
0.0675094
0.0669667
0.0663745
0.065901
0.0654151
0.064908
0.0644706
0.0639524
0.063489
0.0628818
0.0623975
0.0618832
0.0614823
0.0610245
0.0605107
0.0601459
0.0596098
0.059161
0.0586551
0.0582622
0.0578263
0.0574073
0.0569032
0.0564718
0.0561377
0.0557336
0.0553365
0.0550189
0.0546772
0.0543055
0.0540487
0.0536946
0.0533724
0.0530213
0.0526962
0.0523721
0.0520921
0.0517564
0.0514388
0.051066
0.0506557
0.0502515
0.0499365
0.0495393
0.0490989
0.0486595
0.0481823
0.0477709
0.0473656
0.0469292
)
;

boundaryField
{
    inlet
    {
        type            fixedValue;
        value           uniform 0.2;
    }
    outlet
    {
        type            zeroGradient;
    }
    yzfaces
    {
        type            empty;
    }
}


// ************************************************************************* //
