/*--------------------------------*- C++ -*----------------------------------*\
| =========                 |                                                 |
| \\      /  F ield         | foam-extend: Open Source CFD                    |
|  \\    /   O peration     | Version:     5.0                                |
|   \\  /    A nd           | Web:         http://www.foam-extend.org         |
|    \\/     M anipulation  |                                                 |
\*---------------------------------------------------------------------------*/
FoamFile
{
    version     2.0;
    format      ascii;
    class       volScalarField;
    location    "8";
    object      alpha.gas;
}
// * * * * * * * * * * * * * * * * * * * * * * * * * * * * * * * * * * * * * //

dimensions      [0 0 0 0 0 0 0];

internalField   nonuniform List<scalar> 
100
(
0.165289
0.153587
0.144575
0.137949
0.134129
0.132629
0.128825
0.12427
0.119043
0.11518
0.112347
0.109772
0.106818
0.104482
0.102491
0.100193
0.0977983
0.0963842
0.0946233
0.0927158
0.0912054
0.0898941
0.0882601
0.08729
0.0868874
0.0864902
0.0860352
0.0849915
0.0839247
0.0828401
0.08191
0.0805758
0.0795621
0.0786526
0.0776298
0.0768656
0.0761329
0.0755266
0.0748193
0.0741719
0.0733435
0.0726893
0.071954
0.0713275
0.0707293
0.0702634
0.0698658
0.0693833
0.068814
0.0681719
0.0675323
0.066902
0.0663365
0.0658033
0.065335
0.0648247
0.0643316
0.0637915
0.0632766
0.0628203
0.0622853
0.0619213
0.0614022
0.0609565
0.0604835
0.0600286
0.0595249
0.0590892
0.058712
0.058363
0.0579902
0.0576369
0.057236
0.0568314
0.0564004
0.0559781
0.055633
0.0553215
0.0549957
0.0546584
0.0542651
0.0539627
0.0535928
0.0532765
0.0528371
0.0525031
0.0521903
0.0518494
0.0515046
0.0511616
0.050783
0.0503925
0.0499892
0.0496344
0.049198
0.0487736
0.0484095
0.0479316
0.0475041
0.0470317
)
;

boundaryField
{
    inlet
    {
        type            fixedValue;
        value           uniform 0.2;
    }
    outlet
    {
        type            zeroGradient;
    }
    yzfaces
    {
        type            empty;
    }
}


// ************************************************************************* //
