/*--------------------------------*- C++ -*----------------------------------*\
| =========                 |                                                 |
| \\      /  F ield         | foam-extend: Open Source CFD                    |
|  \\    /   O peration     | Version:     5.0                                |
|   \\  /    A nd           | Web:         http://www.foam-extend.org         |
|    \\/     M anipulation  |                                                 |
\*---------------------------------------------------------------------------*/
FoamFile
{
    version     2.0;
    format      ascii;
    class       volScalarField;
    location    "8";
    object      alpha.gas;
}
// * * * * * * * * * * * * * * * * * * * * * * * * * * * * * * * * * * * * * //

dimensions      [0 0 0 0 0 0 0];

internalField   nonuniform List<scalar> 
100
(
0.165265
0.153127
0.143516
0.136652
0.134758
0.132967
0.12906
0.124571
0.118996
0.115342
0.112398
0.109602
0.106739
0.104448
0.101677
0.0992799
0.0976391
0.0962327
0.0943044
0.0926583
0.0910789
0.0895376
0.0881312
0.0873395
0.0871961
0.0866271
0.0859275
0.0850139
0.0841137
0.0830783
0.0818631
0.0806224
0.0796
0.0786484
0.0780077
0.0770099
0.076396
0.0757374
0.0751599
0.074491
0.0737226
0.0729066
0.0721797
0.071526
0.0709459
0.070473
0.0697848
0.0693672
0.0687254
0.0681203
0.0674493
0.0668607
0.0663154
0.065958
0.0654432
0.0649754
0.0645568
0.0641415
0.0635561
0.0630394
0.0624868
0.0620343
0.0615551
0.0610573
0.060589
0.0600404
0.0595225
0.0592181
0.0587961
0.0584709
0.0580877
0.0576703
0.0572804
0.0568735
0.0564453
0.0559866
0.0556648
0.0552397
0.0549251
0.0546149
0.0542924
0.0538978
0.0535458
0.0532178
0.0528844
0.0525835
0.0522015
0.0518184
0.0514745
0.0511584
0.0507766
0.0504312
0.0500386
0.0497017
0.0492979
0.0488946
0.0485106
0.0480434
0.0475501
0.0471351
)
;

boundaryField
{
    inlet
    {
        type            fixedValue;
        value           uniform 0.2;
    }
    outlet
    {
        type            zeroGradient;
    }
    yzfaces
    {
        type            empty;
    }
}


// ************************************************************************* //
