/*--------------------------------*- C++ -*----------------------------------*\
| =========                 |                                                 |
| \\      /  F ield         | foam-extend: Open Source CFD                    |
|  \\    /   O peration     | Version:     5.0                                |
|   \\  /    A nd           | Web:         http://www.foam-extend.org         |
|    \\/     M anipulation  |                                                 |
\*---------------------------------------------------------------------------*/
FoamFile
{
    version     2.0;
    format      ascii;
    class       volScalarField;
    location    "8";
    object      Cl.water;
}
// * * * * * * * * * * * * * * * * * * * * * * * * * * * * * * * * * * * * * //

dimensions      [0 0 0 0 0 0 0];

internalField   nonuniform List<scalar> 
100
(
0.00401402
0.00543615
0.00642876
0.0072022
0.00747113
0.00773216
0.00813641
0.00864993
0.00927571
0.00971218
0.0100587
0.0103325
0.0106688
0.0109573
0.0112273
0.0114853
0.0117343
0.0119232
0.0121101
0.0123522
0.0125158
0.0126782
0.0128717
0.0129601
0.0129969
0.0130379
0.0130969
0.0131892
0.0132876
0.0134057
0.0135253
0.013667
0.0137876
0.0138998
0.0140145
0.0141184
0.0142157
0.0142917
0.0143526
0.0144325
0.0145215
0.0146078
0.0146916
0.0147641
0.0148314
0.0148929
0.014948
0.0150101
0.0150778
0.0151488
0.0152184
0.0152834
0.0153492
0.0154035
0.0154592
0.0155182
0.0155728
0.0156298
0.0156855
0.0157531
0.0158085
0.0158686
0.0159194
0.0159663
0.0160219
0.0160713
0.0161302
0.0161857
0.0162383
0.0162804
0.0163274
0.0163759
0.016431
0.0164813
0.016521
0.0165666
0.0166081
0.0166472
0.0166899
0.0167289
0.016759
0.0168
0.0168363
0.0168743
0.0169101
0.0169468
0.016982
0.0170176
0.0170567
0.0171025
0.0171456
0.0171888
0.0172314
0.0172756
0.0173267
0.0173761
0.0174318
0.0174796
0.0175266
0.017574
)
;

boundaryField
{
    inlet
    {
        type            fixedValue;
        value           uniform 0;
    }
    outlet
    {
        type            zeroGradient;
    }
    yzfaces
    {
        type            empty;
    }
}


// ************************************************************************* //
