/*--------------------------------*- C++ -*----------------------------------*\
| =========                 |                                                 |
| \\      /  F ield         | foam-extend: Open Source CFD                    |
|  \\    /   O peration     | Version:     5.0                                |
|   \\  /    A nd           | Web:         http://www.foam-extend.org         |
|    \\/     M anipulation  |                                                 |
\*---------------------------------------------------------------------------*/
FoamFile
{
    version     2.0;
    format      ascii;
    class       volScalarField;
    location    "8";
    object      Cl.water;
}
// * * * * * * * * * * * * * * * * * * * * * * * * * * * * * * * * * * * * * //

dimensions      [0 0 0 0 0 0 0];

internalField   nonuniform List<scalar> 
100
(
0.00398454
0.00533268
0.00637142
0.00713213
0.00754097
0.00774354
0.00817967
0.0087076
0.00929216
0.00973487
0.0100588
0.0103566
0.0106966
0.0109685
0.0112021
0.0114597
0.0117327
0.0118947
0.0121022
0.0123151
0.0124883
0.0126478
0.0128291
0.0129462
0.0129928
0.0130398
0.0131008
0.0132082
0.0133268
0.0134516
0.013564
0.013713
0.013825
0.0139323
0.0140437
0.0141371
0.0142202
0.0142916
0.0143776
0.0144571
0.0145461
0.0146221
0.0147052
0.0147822
0.0148428
0.0148964
0.0149432
0.0150006
0.0150641
0.0151378
0.015213
0.0152832
0.0153501
0.0154138
0.0154658
0.0155226
0.0155812
0.0156444
0.0157038
0.0157574
0.0158138
0.015865
0.0159162
0.0159684
0.0160222
0.0160742
0.0161244
0.0161704
0.0162157
0.0162578
0.0162999
0.0163418
0.0163874
0.016435
0.0164839
0.0165266
0.0165712
0.0166116
0.0166492
0.0166887
0.0167279
0.0167684
0.0168091
0.0168481
0.0168929
0.0169348
0.0169705
0.0170123
0.0170528
0.0170967
0.0171405
0.0171815
0.0172256
0.0172691
0.017318
0.0173659
0.0174115
0.0174614
0.017514
0.0175607
)
;

boundaryField
{
    inlet
    {
        type            fixedValue;
        value           uniform 0;
    }
    outlet
    {
        type            zeroGradient;
    }
    yzfaces
    {
        type            empty;
    }
}


// ************************************************************************* //
