/*--------------------------------*- C++ -*----------------------------------*\
| =========                 |                                                 |
| \\      /  F ield         | foam-extend: Open Source CFD                    |
|  \\    /   O peration     | Version:     5.0                                |
|   \\  /    A nd           | Web:         http://www.foam-extend.org         |
|    \\/     M anipulation  |                                                 |
\*---------------------------------------------------------------------------*/
FoamFile
{
    version     2.0;
    format      ascii;
    class       volScalarField;
    location    "8";
    object      Cl.water;
}
// * * * * * * * * * * * * * * * * * * * * * * * * * * * * * * * * * * * * * //

dimensions      [0 0 0 0 0 0 0];

internalField   nonuniform List<scalar> 
100
(
0.0039868
0.00538265
0.00647861
0.00726738
0.00748445
0.00770124
0.00815108
0.00866535
0.00930559
0.00971942
0.0100596
0.0103865
0.0107135
0.0109744
0.0112889
0.0115704
0.0117526
0.0119148
0.0121352
0.0123219
0.0125036
0.0126819
0.0128397
0.0129311
0.0129493
0.013013
0.0130967
0.0132003
0.0133055
0.0134247
0.0135662
0.0137043
0.0138277
0.013939
0.0140138
0.014119
0.0141948
0.0142701
0.014341
0.0144197
0.0145098
0.0146033
0.0146865
0.0147586
0.0148261
0.0148786
0.0149546
0.0150079
0.015075
0.0151455
0.015219
0.0152851
0.0153486
0.0153944
0.0154541
0.0155092
0.0155559
0.0156077
0.0156705
0.0157302
0.0157932
0.0158455
0.0158969
0.0159545
0.0160105
0.016072
0.0161309
0.0161721
0.0162201
0.0162633
0.0163016
0.0163447
0.0163895
0.0164354
0.0164816
0.0165327
0.0165749
0.016617
0.0166541
0.0166925
0.0167285
0.0167749
0.0168182
0.0168565
0.0168887
0.016927
0.0169663
0.0170105
0.0170511
0.0170912
0.0171301
0.0171728
0.0172157
0.0172595
0.0173063
0.0173523
0.0174005
0.0174537
0.0175099
0.0175638
)
;

boundaryField
{
    inlet
    {
        type            fixedValue;
        value           uniform 0;
    }
    outlet
    {
        type            zeroGradient;
    }
    yzfaces
    {
        type            empty;
    }
}


// ************************************************************************* //
