/*--------------------------------*- C++ -*----------------------------------*\
| =========                 |                                                 |
| \\      /  F ield         | foam-extend: Open Source CFD                    |
|  \\    /   O peration     | Version:     5.0                                |
|   \\  /    A nd           | Web:         http://www.foam-extend.org         |
|    \\/     M anipulation  |                                                 |
\*---------------------------------------------------------------------------*/
FoamFile
{
    version     2.0;
    format      ascii;
    class       volScalarField;
    location    "8";
    object      CO2.water;
}
// * * * * * * * * * * * * * * * * * * * * * * * * * * * * * * * * * * * * * //

dimensions      [0 0 0 0 0 0 0];

internalField   nonuniform List<scalar> 
100
(
0.000918831
0.00124407
0.00147012
0.00164901
0.00170714
0.00176861
0.00186047
0.00197823
0.00212077
0.00222111
0.00230068
0.00236379
0.0024396
0.00250797
0.00256804
0.00262795
0.00268505
0.00272727
0.00276928
0.00282536
0.00286242
0.00289886
0.00294362
0.00296536
0.00297326
0.00298252
0.00299451
0.0030156
0.00303851
0.00306635
0.00309336
0.00312584
0.00315475
0.00317863
0.00320532
0.0032305
0.00325323
0.003271
0.00328405
0.00330229
0.00332235
0.00334236
0.00336122
0.00337701
0.00339195
0.00340549
0.00341788
0.00343122
0.00344761
0.00346408
0.0034798
0.00349406
0.00350961
0.00352205
0.00353481
0.00354813
0.00355962
0.00357323
0.0035854
0.00360135
0.00361407
0.00362757
0.0036381
0.00365013
0.00366362
0.0036732
0.00368728
0.00369907
0.00371236
0.00372268
0.00373413
0.00374513
0.00375837
0.0037697
0.00377848
0.00378909
0.00379952
0.00380786
0.00381684
0.0038266
0.00383334
0.00384264
0.00385111
0.00386033
0.00386887
0.00387738
0.00388473
0.00389355
0.00390189
0.00391168
0.00392246
0.00393308
0.00394135
0.00395178
0.00396335
0.00397489
0.00398742
0.00399823
0.00400887
0.00402033
)
;

boundaryField
{
    inlet
    {
        type            fixedValue;
        value           uniform 0;
    }
    outlet
    {
        type            zeroGradient;
    }
    yzfaces
    {
        type            empty;
    }
}


// ************************************************************************* //
