/*--------------------------------*- C++ -*----------------------------------*\
| =========                 |                                                 |
| \\      /  F ield         | foam-extend: Open Source CFD                    |
|  \\    /   O peration     | Version:     5.0                                |
|   \\  /    A nd           | Web:         http://www.foam-extend.org         |
|    \\/     M anipulation  |                                                 |
\*---------------------------------------------------------------------------*/
FoamFile
{
    version     2.0;
    format      ascii;
    class       volScalarField;
    location    "8";
    object      CO2.water;
}
// * * * * * * * * * * * * * * * * * * * * * * * * * * * * * * * * * * * * * //

dimensions      [0 0 0 0 0 0 0];

internalField   nonuniform List<scalar> 
100
(
0.000911671
0.00121901
0.00145571
0.00162973
0.00173008
0.00176947
0.00186938
0.00198901
0.0021263
0.00222775
0.00230217
0.00236979
0.00244739
0.00250874
0.00256104
0.00262138
0.00268428
0.00272142
0.00276767
0.00281777
0.00285744
0.00289188
0.0029348
0.00296028
0.00297085
0.00298128
0.00299323
0.00302064
0.00304866
0.00307715
0.00310158
0.00313662
0.00316325
0.00318713
0.003214
0.00323407
0.00325331
0.00326924
0.00328781
0.00330482
0.00332657
0.00334376
0.00336307
0.00337952
0.00339524
0.00340747
0.00341792
0.00343059
0.00344554
0.00346241
0.0034792
0.00349576
0.00351061
0.00352461
0.00353692
0.00355032
0.00356327
0.00357745
0.00359098
0.00360296
0.00361701
0.00362657
0.00364021
0.00365191
0.00366434
0.00367628
0.00368951
0.00370096
0.00371087
0.00372003
0.00372982
0.0037391
0.00374963
0.00376026
0.00377158
0.00378267
0.00379173
0.00379991
0.00380847
0.00381733
0.00382766
0.0038356
0.00384532
0.00385363
0.00386517
0.00387394
0.00388215
0.00389111
0.00390016
0.00390917
0.00391911
0.00392937
0.00393997
0.00394928
0.00396074
0.00397189
0.00398146
0.00399401
0.00400524
0.00401764
)
;

boundaryField
{
    inlet
    {
        type            fixedValue;
        value           uniform 0;
    }
    outlet
    {
        type            zeroGradient;
    }
    yzfaces
    {
        type            empty;
    }
}


// ************************************************************************* //
