/*--------------------------------*- C++ -*----------------------------------*\
| =========                 |                                                 |
| \\      /  F ield         | foam-extend: Open Source CFD                    |
|  \\    /   O peration     | Version:     5.0                                |
|   \\  /    A nd           | Web:         http://www.foam-extend.org         |
|    \\/     M anipulation  |                                                 |
\*---------------------------------------------------------------------------*/
FoamFile
{
    version     2.0;
    format      ascii;
    class       volScalarField;
    location    "8";
    object      CO2.gas;
}
// * * * * * * * * * * * * * * * * * * * * * * * * * * * * * * * * * * * * * //

dimensions      [0 0 0 0 0 0 0];

internalField   nonuniform List<scalar> 
100
(
0.164943
0.152829
0.143237
0.136386
0.134496
0.132708
0.128809
0.124328
0.118764
0.115117
0.112179
0.109388
0.106531
0.104244
0.101479
0.0990866
0.0974489
0.0960453
0.0941208
0.0924779
0.0909016
0.0893632
0.0879596
0.0871695
0.0870263
0.0864584
0.0857601
0.0848483
0.0839499
0.0829165
0.0817037
0.0804653
0.079445
0.0784953
0.0778558
0.0768599
0.0762472
0.0755899
0.0750135
0.0743459
0.0735791
0.0727647
0.0720392
0.0713867
0.0708078
0.0703358
0.0696489
0.0692321
0.0685916
0.0679876
0.0673179
0.0667305
0.0661863
0.0658296
0.0653158
0.0648488
0.0644311
0.0640165
0.0634323
0.0629167
0.0623651
0.0619135
0.0614352
0.0609383
0.060471
0.0599235
0.0594066
0.0591028
0.0586816
0.0583571
0.0579746
0.057558
0.0571689
0.0567628
0.0563354
0.0558776
0.0555564
0.0551321
0.0548181
0.0545085
0.0541866
0.0537929
0.0534415
0.0531142
0.0527814
0.0524811
0.0520998
0.0517175
0.0513742
0.0510588
0.0506777
0.050333
0.0499411
0.0496049
0.0492019
0.0487994
0.0484162
0.0479499
0.0474575
0.0470433
)
;

boundaryField
{
    inlet
    {
        type            fixedValue;
        value           uniform 0.2;
    }
    outlet
    {
        type            zeroGradient;
    }
    yzfaces
    {
        type            empty;
    }
}


// ************************************************************************* //
