/*--------------------------------*- C++ -*----------------------------------*\
| =========                 |                                                 |
| \\      /  F ield         | foam-extend: Open Source CFD                    |
|  \\    /   O peration     | Version:     5.0                                |
|   \\  /    A nd           | Web:         http://www.foam-extend.org         |
|    \\/     M anipulation  |                                                 |
\*---------------------------------------------------------------------------*/
FoamFile
{
    version     2.0;
    format      ascii;
    class       volScalarField;
    location    "8";
    object      CO2.gas;
}
// * * * * * * * * * * * * * * * * * * * * * * * * * * * * * * * * * * * * * //

dimensions      [0 0 0 0 0 0 0];

internalField   nonuniform List<scalar> 
100
(
0.164695
0.152336
0.143746
0.136948
0.134739
0.132403
0.128913
0.124438
0.119021
0.115208
0.112185
0.109787
0.106906
0.104308
0.102025
0.0997483
0.0975786
0.0959742
0.094378
0.0922469
0.0908387
0.0894538
0.0877531
0.0869267
0.0866268
0.0862747
0.085819
0.0850178
0.084147
0.083089
0.0820628
0.0808284
0.07973
0.0788226
0.0778082
0.0768514
0.0759878
0.0753124
0.0748166
0.0741234
0.0733613
0.0726009
0.071884
0.0712843
0.0707164
0.070202
0.069731
0.0692242
0.0686015
0.0679753
0.0673779
0.0668363
0.0662452
0.0657726
0.0652877
0.0647816
0.0643451
0.0638278
0.0633653
0.0627594
0.062276
0.0617627
0.0613626
0.0609056
0.0603929
0.0600287
0.0594937
0.0590458
0.0585408
0.0581488
0.0577137
0.0572955
0.0567923
0.0563619
0.0560284
0.055625
0.0552288
0.0549117
0.0545708
0.0541998
0.0539434
0.0535901
0.0532685
0.052918
0.0525935
0.0522701
0.0519907
0.0516556
0.0513386
0.0509666
0.0505571
0.0501536
0.0498392
0.0494428
0.0490033
0.0485648
0.0480885
0.0476778
0.0472733
0.0468378
)
;

boundaryField
{
    inlet
    {
        type            fixedValue;
        value           uniform 0.2;
    }
    outlet
    {
        type            zeroGradient;
    }
    yzfaces
    {
        type            empty;
    }
}


// ************************************************************************* //
