/*--------------------------------*- C++ -*----------------------------------*\
| =========                 |                                                 |
| \\      /  F ield         | foam-extend: Open Source CFD                    |
|  \\    /   O peration     | Version:     5.0                                |
|   \\  /    A nd           | Web:         http://www.foam-extend.org         |
|    \\/     M anipulation  |                                                 |
\*---------------------------------------------------------------------------*/
FoamFile
{
    version     2.0;
    format      ascii;
    class       volScalarField;
    location    "8";
    object      CO2.water;
}
// * * * * * * * * * * * * * * * * * * * * * * * * * * * * * * * * * * * * * //

dimensions      [0 0 0 0 0 0 0];

internalField   nonuniform List<scalar> 
100
(
0.000912305
0.0012311
0.00148352
0.00166381
0.00171355
0.00176058
0.0018632
0.00198111
0.00212755
0.00222351
0.00230082
0.00237427
0.00244945
0.00250964
0.00258242
0.00264537
0.00268846
0.0027254
0.00277605
0.00281928
0.00286076
0.00290124
0.00293818
0.00295897
0.00296274
0.00297769
0.00299606
0.00302006
0.0030437
0.0030709
0.00310281
0.0031354
0.00316225
0.00318724
0.00320407
0.00323028
0.0032464
0.0032637
0.00327887
0.00329644
0.00331662
0.00333805
0.00335714
0.00337431
0.00338955
0.00340197
0.00342004
0.00343101
0.00344787
0.00346376
0.00348138
0.00349684
0.00351116
0.00352055
0.00353407
0.00354636
0.00355735
0.00356826
0.00358364
0.00359721
0.00361172
0.00362361
0.00363619
0.00364927
0.00366157
0.00367597
0.00368958
0.00369757
0.00370865
0.0037172
0.00372726
0.00373822
0.00374846
0.00375915
0.0037704
0.00378245
0.0037909
0.00380206
0.00381033
0.00381847
0.00382694
0.00383731
0.00384655
0.00385517
0.00386392
0.00387183
0.00388186
0.00389192
0.00390095
0.00390926
0.00391928
0.00392836
0.00393867
0.00394752
0.00395812
0.00396871
0.0039788
0.00399107
0.00400403
0.00401493
)
;

boundaryField
{
    inlet
    {
        type            fixedValue;
        value           uniform 0;
    }
    outlet
    {
        type            zeroGradient;
    }
    yzfaces
    {
        type            empty;
    }
}


// ************************************************************************* //
