/*--------------------------------*- C++ -*----------------------------------*\
| =========                 |                                                 |
| \\      /  F ield         | foam-extend: Open Source CFD                    |
|  \\    /   O peration     | Version:     5.0                                |
|   \\  /    A nd           | Web:         http://www.foam-extend.org         |
|    \\/     M anipulation  |                                                 |
\*---------------------------------------------------------------------------*/
FoamFile
{
    version     2.0;
    format      ascii;
    class       volScalarField;
    location    "8";
    object      CO2.gas;
}
// * * * * * * * * * * * * * * * * * * * * * * * * * * * * * * * * * * * * * //

dimensions      [0 0 0 0 0 0 0];

internalField   nonuniform List<scalar> 
100
(
0.164967
0.153288
0.144294
0.137681
0.133867
0.132371
0.128574
0.124028
0.118811
0.114956
0.112128
0.109558
0.10661
0.104279
0.102291
0.0999979
0.0976078
0.0961965
0.0944391
0.0925353
0.0910278
0.089719
0.0880883
0.08712
0.0867182
0.0863217
0.0858676
0.084826
0.0837613
0.0826788
0.0817505
0.0804189
0.0794071
0.0784994
0.0774786
0.0767159
0.0759847
0.0753795
0.0746736
0.0740274
0.0732007
0.0725477
0.0718138
0.0711886
0.0705915
0.0701265
0.0697297
0.0692482
0.06868
0.0680391
0.0674008
0.0667717
0.0662073
0.0656752
0.0652077
0.0646984
0.0642064
0.0636672
0.0631534
0.062698
0.062164
0.0618007
0.0612826
0.0608378
0.0603658
0.0599117
0.059409
0.0589742
0.0585976
0.0582493
0.0578773
0.0575247
0.0571246
0.0567207
0.0562906
0.0558691
0.0555246
0.0552138
0.0548886
0.054552
0.0541594
0.0538576
0.0534884
0.0531727
0.0527342
0.0524008
0.0520887
0.0517485
0.0514043
0.0510619
0.0506841
0.0502943
0.0498918
0.0495377
0.0491022
0.0486786
0.0483152
0.0478383
0.0474116
0.0469401
)
;

boundaryField
{
    inlet
    {
        type            fixedValue;
        value           uniform 0.2;
    }
    outlet
    {
        type            zeroGradient;
    }
    yzfaces
    {
        type            empty;
    }
}


// ************************************************************************* //
