/*--------------------------------*- C++ -*----------------------------------*\
| =========                 |                                                 |
| \\      /  F ield         | foam-extend: Open Source CFD                    |
|  \\    /   O peration     | Version:     5.0                                |
|   \\  /    A nd           | Web:         http://www.foam-extend.org         |
|    \\/     M anipulation  |                                                 |
\*---------------------------------------------------------------------------*/
FoamFile
{
    version     2.0;
    format      ascii;
    class       volScalarField;
    location    "8";
    object      H2O.water;
}
// * * * * * * * * * * * * * * * * * * * * * * * * * * * * * * * * * * * * * //

dimensions      [0 0 0 0 0 0 0];

internalField   nonuniform List<scalar> 
100
(
0.0258505
0.034877
0.042038
0.0471414
0.0485501
0.049871
0.0527765
0.0561185
0.060263
0.0629934
0.0651789
0.0672579
0.0693956
0.0711022
0.0731688
0.0749423
0.0761709
0.0772124
0.0786445
0.079872
0.0810521
0.0821991
0.0832499
0.0838366
0.0839316
0.0843606
0.0848765
0.0855533
0.086224
0.0869976
0.0878996
0.0888325
0.0895848
0.0902926
0.0907691
0.0915241
0.0919739
0.0924636
0.0928882
0.0933861
0.0939587
0.0945666
0.0951088
0.0955954
0.0960278
0.0963789
0.0969008
0.0971929
0.0976825
0.0981325
0.0986325
0.0990662
0.0994739
0.099734
0.100121
0.100469
0.100779
0.101082
0.101522
0.101906
0.102321
0.102657
0.103016
0.103384
0.10373
0.104139
0.104532
0.104749
0.105067
0.105304
0.10559
0.105905
0.106191
0.106498
0.106816
0.107162
0.107392
0.107719
0.107947
0.108175
0.10842
0.108715
0.108973
0.109214
0.109464
0.109684
0.109971
0.110259
0.110516
0.110748
0.111038
0.11129
0.111586
0.111829
0.112131
0.11243
0.112711
0.113063
0.113437
0.113736
)
;

boundaryField
{
    inlet
    {
        type            fixedValue;
        value           uniform 0;
    }
    outlet
    {
        type            zeroGradient;
    }
    yzfaces
    {
        type            empty;
    }
}


// ************************************************************************* //
