/*--------------------------------*- C++ -*----------------------------------*\
| =========                 |                                                 |
| \\      /  F ield         | foam-extend: Open Source CFD                    |
|  \\    /   O peration     | Version:     5.0                                |
|   \\  /    A nd           | Web:         http://www.foam-extend.org         |
|    \\/     M anipulation  |                                                 |
\*---------------------------------------------------------------------------*/
FoamFile
{
    version     2.0;
    format      ascii;
    class       volScalarField;
    location    "8";
    object      H2O.water;
}
// * * * * * * * * * * * * * * * * * * * * * * * * * * * * * * * * * * * * * //

dimensions      [0 0 0 0 0 0 0];

internalField   nonuniform List<scalar> 
100
(
0.0260359
0.0352513
0.0416416
0.0467274
0.0483453
0.0501014
0.0526981
0.0560332
0.0600711
0.0629206
0.0651753
0.0669678
0.0691058
0.0710553
0.0727494
0.0744516
0.0760723
0.0772637
0.0784489
0.0800499
0.0810947
0.0821249
0.0833974
0.0840197
0.0842376
0.0845047
0.0848347
0.0854331
0.0860773
0.0868713
0.0876304
0.0885535
0.0893796
0.0900447
0.0907995
0.0915198
0.092169
0.0926712
0.0930365
0.093555
0.0941213
0.094691
0.0952253
0.0956706
0.0960964
0.0964778
0.096826
0.0972011
0.097669
0.0981396
0.0985831
0.0989844
0.0994286
0.0997773
0.100142
0.100521
0.100841
0.101231
0.101571
0.102031
0.102388
0.102776
0.103063
0.103407
0.103793
0.104057
0.104465
0.104791
0.105172
0.105463
0.105787
0.106099
0.106478
0.106798
0.107043
0.107345
0.107645
0.107876
0.108129
0.108413
0.108594
0.108864
0.1091
0.109365
0.109606
0.109848
0.110052
0.110303
0.110538
0.110814
0.111125
0.111425
0.111651
0.111951
0.112281
0.112609
0.112967
0.113273
0.113569
0.113895
)
;

boundaryField
{
    inlet
    {
        type            fixedValue;
        value           uniform 0;
    }
    outlet
    {
        type            zeroGradient;
    }
    yzfaces
    {
        type            empty;
    }
}


// ************************************************************************* //
