/*--------------------------------*- C++ -*----------------------------------*\
| =========                 |                                                 |
| \\      /  F ield         | foam-extend: Open Source CFD                    |
|  \\    /   O peration     | Version:     5.0                                |
|   \\  /    A nd           | Web:         http://www.foam-extend.org         |
|    \\/     M anipulation  |                                                 |
\*---------------------------------------------------------------------------*/
FoamFile
{
    version     2.0;
    format      ascii;
    class       volScalarField;
    location    "8";
    object      H2O.gas;
}
// * * * * * * * * * * * * * * * * * * * * * * * * * * * * * * * * * * * * * //

dimensions      [0 0 0 0 0 0 0];

internalField   nonuniform List<scalar> 
100
(
0.000321848
0.00029821
0.000279494
0.000266125
0.000262437
0.00025895
0.000251341
0.000242599
0.00023174
0.000224625
0.000218892
0.000213446
0.000207872
0.000203409
0.000198012
0.000193345
0.000190149
0.00018741
0.000183655
0.000180449
0.000177374
0.000174372
0.000171633
0.000170091
0.000169812
0.000168704
0.000167341
0.000165562
0.000163809
0.000161793
0.000159426
0.00015701
0.000155019
0.000153166
0.000151918
0.000149974
0.000148779
0.000147496
0.000146372
0.000145069
0.000143573
0.000141984
0.000140568
0.000139295
0.000138165
0.000137244
0.000135904
0.000135091
0.000133841
0.000132662
0.000131355
0.000130209
0.000129147
0.000128451
0.000127449
0.000126538
0.000125723
0.000124914
0.000123774
0.000122767
0.000121691
0.00012081
0.000119877
0.000118907
0.000117995
0.000116927
0.000115918
0.000115325
0.000114504
0.00011387
0.000113124
0.000112311
0.000111552
0.00011076
0.000109926
0.000109032
0.000108406
0.000107578
0.000106965
0.000106361
0.000105733
0.000104964
0.000104279
0.00010364
0.000102991
0.000102405
0.000101661
0.000100915
0.000100245
9.96295e-05
9.8886e-05
9.82133e-05
9.74486e-05
9.67926e-05
9.60063e-05
9.52209e-05
9.4473e-05
9.35632e-05
9.26024e-05
9.17943e-05
)
;

boundaryField
{
    inlet
    {
        type            fixedValue;
        value           uniform 0;
    }
    outlet
    {
        type            zeroGradient;
    }
    yzfaces
    {
        type            empty;
    }
}


// ************************************************************************* //
