/*--------------------------------*- C++ -*----------------------------------*\
| =========                 |                                                 |
| \\      /  F ield         | foam-extend: Open Source CFD                    |
|  \\    /   O peration     | Version:     5.0                                |
|   \\  /    A nd           | Web:         http://www.foam-extend.org         |
|    \\/     M anipulation  |                                                 |
\*---------------------------------------------------------------------------*/
FoamFile
{
    version     2.0;
    format      ascii;
    class       volScalarField;
    location    "8";
    object      H2O.water;
}
// * * * * * * * * * * * * * * * * * * * * * * * * * * * * * * * * * * * * * //

dimensions      [0 0 0 0 0 0 0];

internalField   nonuniform List<scalar> 
100
(
0.0258311
0.0345309
0.0412342
0.0461622
0.0490589
0.0501167
0.0529497
0.0563251
0.0602425
0.0631085
0.0652243
0.0671366
0.0693365
0.0710716
0.072547
0.0742593
0.0760514
0.0771035
0.0784038
0.0798313
0.0809518
0.0819221
0.0831491
0.0838582
0.0841561
0.0844506
0.0847832
0.0855759
0.0863731
0.0871774
0.0878636
0.0888619
0.0896183
0.0902928
0.0910592
0.0916176
0.0921643
0.0926167
0.0931461
0.0936217
0.0942489
0.0947305
0.0952773
0.0957392
0.0961893
0.0965336
0.096826
0.0971868
0.0976112
0.0980913
0.0985653
0.0990383
0.0994557
0.0998505
0.100201
0.100582
0.100949
0.10135
0.101732
0.102068
0.102478
0.102734
0.103129
0.103457
0.103811
0.104148
0.104526
0.104851
0.10513
0.105384
0.105661
0.105922
0.106225
0.106528
0.106848
0.107167
0.107421
0.107651
0.107893
0.108145
0.108442
0.108663
0.108942
0.109169
0.109507
0.109751
0.109982
0.110233
0.110487
0.110743
0.111024
0.111318
0.111622
0.111879
0.112204
0.112524
0.112789
0.113152
0.113464
0.11382
)
;

boundaryField
{
    inlet
    {
        type            fixedValue;
        value           uniform 0;
    }
    outlet
    {
        type            zeroGradient;
    }
    yzfaces
    {
        type            empty;
    }
}


// ************************************************************************* //
