/*--------------------------------*- C++ -*----------------------------------*\
| =========                 |                                                 |
| \\      /  F ield         | foam-extend: Open Source CFD                    |
|  \\    /   O peration     | Version:     5.0                                |
|   \\  /    A nd           | Web:         http://www.foam-extend.org         |
|    \\/     M anipulation  |                                                 |
\*---------------------------------------------------------------------------*/
FoamFile
{
    version     2.0;
    format      ascii;
    class       volScalarField;
    location    "8";
    object      H2O.gas;
}
// * * * * * * * * * * * * * * * * * * * * * * * * * * * * * * * * * * * * * //

dimensions      [0 0 0 0 0 0 0];

internalField   nonuniform List<scalar> 
100
(
0.000321895
0.000299107
0.000281556
0.000268653
0.000261211
0.000258291
0.000250883
0.000242012
0.000231833
0.00022431
0.000218792
0.000213778
0.000208024
0.000203476
0.000199597
0.000195123
0.000190459
0.000187706
0.000184276
0.000180561
0.00017762
0.000175066
0.000171884
0.000169995
0.000169211
0.000168437
0.000167551
0.000165519
0.000163441
0.000161329
0.000159517
0.000156919
0.000154945
0.000153174
0.000151182
0.000149694
0.000148267
0.000147086
0.000145708
0.000144448
0.000142834
0.00014156
0.000140128
0.000138908
0.000137743
0.000136836
0.000136062
0.000135122
0.000134013
0.000132763
0.000131517
0.00013029
0.000129188
0.00012815
0.000127238
0.000126244
0.000125284
0.000124232
0.000123229
0.000122341
0.000121299
0.00012059
0.000119579
0.000118711
0.00011779
0.000116904
0.000115923
0.000115075
0.00011434
0.00011366
0.000112934
0.000112246
0.000111466
0.000110678
0.000109838
0.000109016
0.000108344
0.000107737
0.000107103
0.000106446
0.00010568
0.000105091
0.00010437
0.000103754
0.000102899
0.000102248
0.000101639
0.000100975
0.000100304
9.96357e-05
9.88985e-05
9.81378e-05
9.73525e-05
9.66615e-05
9.58118e-05
9.49851e-05
9.4276e-05
9.33454e-05
9.25128e-05
9.15929e-05
)
;

boundaryField
{
    inlet
    {
        type            fixedValue;
        value           uniform 0;
    }
    outlet
    {
        type            zeroGradient;
    }
    yzfaces
    {
        type            empty;
    }
}


// ************************************************************************* //
