/*--------------------------------*- C++ -*----------------------------------*\
| =========                 |                                                 |
| \\      /  F ield         | foam-extend: Open Source CFD                    |
|  \\    /   O peration     | Version:     5.0                                |
|   \\  /    A nd           | Web:         http://www.foam-extend.org         |
|    \\/     M anipulation  |                                                 |
\*---------------------------------------------------------------------------*/
FoamFile
{
    version     2.0;
    format      ascii;
    class       volScalarField;
    location    "8";
    object      H2O.gas;
}
// * * * * * * * * * * * * * * * * * * * * * * * * * * * * * * * * * * * * * //

dimensions      [0 0 0 0 0 0 0];

internalField   nonuniform List<scalar> 
100
(
0.000321364
0.000297249
0.000280487
0.000267223
0.000262913
0.000258355
0.000251543
0.000242812
0.000232243
0.000224803
0.000218902
0.000214223
0.000208602
0.000203532
0.000199078
0.000194636
0.000190402
0.000187272
0.000184157
0.000179999
0.000177251
0.000174549
0.00017123
0.000169618
0.000169032
0.000168345
0.000167456
0.000165893
0.000164194
0.000162129
0.000160127
0.000157718
0.000155575
0.000153804
0.000151825
0.000149958
0.000148273
0.000146955
0.000145987
0.000144635
0.000143148
0.000141664
0.000140265
0.000139095
0.000137987
0.000136983
0.000136064
0.000135075
0.00013386
0.000132638
0.000131473
0.000130416
0.000129262
0.00012834
0.000127394
0.000126406
0.000125555
0.000124545
0.000123643
0.000122461
0.000121517
0.000120516
0.000119735
0.000118843
0.000117843
0.000117132
0.000116088
0.000115214
0.000114229
0.000113464
0.000112615
0.000111799
0.000110817
0.000109977
0.000109327
0.000108539
0.000107766
0.000107148
0.000106482
0.000105758
0.000105258
0.000104569
0.000103941
0.000103257
0.000102624
0.000101993
0.000101448
0.000100794
0.000100176
9.94496e-05
9.86505e-05
9.78633e-05
9.72499e-05
9.64763e-05
9.56187e-05
9.4763e-05
9.38337e-05
9.30324e-05
9.22431e-05
9.13932e-05
)
;

boundaryField
{
    inlet
    {
        type            fixedValue;
        value           uniform 0;
    }
    outlet
    {
        type            zeroGradient;
    }
    yzfaces
    {
        type            empty;
    }
}


// ************************************************************************* //
