/*--------------------------------*- C++ -*----------------------------------*\
| =========                 |                                                 |
| \\      /  F ield         | foam-extend: Open Source CFD                    |
|  \\    /   O peration     | Version:     5.0                                |
|   \\  /    A nd           | Web:         http://www.foam-extend.org         |
|    \\/     M anipulation  |                                                 |
\*---------------------------------------------------------------------------*/
FoamFile
{
    version     2.0;
    format      ascii;
    class       volScalarField;
    location    "8";
    object      Na.water;
}
// * * * * * * * * * * * * * * * * * * * * * * * * * * * * * * * * * * * * * //

dimensions      [0 0 0 0 0 0 0];

internalField   nonuniform List<scalar> 
100
(
0.00401491
0.0054354
0.00643329
0.00720618
0.00747434
0.00773598
0.00814087
0.008658
0.00927906
0.00971304
0.0100619
0.0103351
0.0106716
0.0109684
0.0112313
0.0114923
0.0117393
0.0119243
0.0121096
0.0123457
0.0125111
0.0126697
0.012863
0.0129584
0.0129964
0.0130317
0.0130874
0.0131784
0.0132854
0.0134055
0.013528
0.0136675
0.0137925
0.0139004
0.0140206
0.01413
0.014226
0.0143067
0.0143643
0.0144421
0.0145304
0.0146163
0.0146976
0.0147649
0.0148259
0.0148848
0.0149411
0.0149983
0.0150702
0.0151396
0.0152093
0.0152714
0.0153381
0.0153962
0.0154485
0.0155045
0.0155563
0.0156139
0.0156688
0.0157332
0.0157916
0.0158442
0.0158969
0.0159525
0.0160104
0.0160531
0.0161078
0.0161628
0.0162222
0.0162721
0.0163247
0.0163723
0.0164294
0.016479
0.0165199
0.0165655
0.0166109
0.0166503
0.0166873
0.0167264
0.0167655
0.016799
0.0168403
0.0168794
0.0169189
0.0169555
0.0169894
0.0170295
0.0170643
0.0171054
0.0171514
0.0172015
0.0172402
0.0172824
0.0173297
0.0173801
0.0174314
0.0174784
0.0175295
0.0175815
)
;

boundaryField
{
    inlet
    {
        type            fixedValue;
        value           uniform 0;
    }
    outlet
    {
        type            zeroGradient;
    }
    yzfaces
    {
        type            empty;
    }
}


// ************************************************************************* //
