/*--------------------------------*- C++ -*----------------------------------*\
| =========                 |                                                 |
| \\      /  F ield         | foam-extend: Open Source CFD                    |
|  \\    /   O peration     | Version:     5.0                                |
|   \\  /    A nd           | Web:         http://www.foam-extend.org         |
|    \\/     M anipulation  |                                                 |
\*---------------------------------------------------------------------------*/
FoamFile
{
    version     2.0;
    format      ascii;
    class       volScalarField;
    location    "8";
    object      Na.water;
}
// * * * * * * * * * * * * * * * * * * * * * * * * * * * * * * * * * * * * * //

dimensions      [0 0 0 0 0 0 0];

internalField   nonuniform List<scalar> 
100
(
0.00398379
0.00533019
0.00636348
0.00712643
0.00754151
0.00774132
0.00817612
0.00870814
0.00929594
0.00974857
0.0100681
0.0103648
0.0107017
0.0109692
0.0111993
0.0114665
0.0117334
0.0118961
0.012103
0.01232
0.012497
0.0126441
0.0128268
0.0129453
0.0129928
0.0130382
0.0130876
0.0132037
0.0133267
0.0134537
0.0135608
0.0137127
0.0138314
0.0139353
0.0140532
0.0141457
0.0142292
0.0142959
0.0143692
0.0144445
0.0145349
0.0146144
0.0147004
0.0147716
0.0148434
0.0148992
0.0149471
0.0149987
0.0150652
0.0151366
0.0152102
0.0152807
0.0153471
0.0154078
0.0154614
0.0155207
0.0155753
0.0156369
0.0156963
0.0157517
0.0158061
0.0158529
0.0159127
0.0159666
0.0160192
0.0160734
0.0161348
0.0161886
0.0162319
0.016275
0.0163194
0.0163598
0.0164024
0.0164453
0.0164959
0.0165452
0.0165831
0.0166161
0.0166538
0.016691
0.0167375
0.0167701
0.0168113
0.0168523
0.0168975
0.0169372
0.0169752
0.0170145
0.0170553
0.0170898
0.0171329
0.0171789
0.0172236
0.0172678
0.0173195
0.0173644
0.0174086
0.0174611
0.0175126
0.01757
)
;

boundaryField
{
    inlet
    {
        type            fixedValue;
        value           uniform 0;
    }
    outlet
    {
        type            zeroGradient;
    }
    yzfaces
    {
        type            empty;
    }
}


// ************************************************************************* //
