/*--------------------------------*- C++ -*----------------------------------*\
| =========                 |                                                 |
| \\      /  F ield         | foam-extend: Open Source CFD                    |
|  \\    /   O peration     | Version:     5.0                                |
|   \\  /    A nd           | Web:         http://www.foam-extend.org         |
|    \\/     M anipulation  |                                                 |
\*---------------------------------------------------------------------------*/
FoamFile
{
    version     2.0;
    format      ascii;
    class       volScalarField;
    location    "8";
    object      Na.water;
}
// * * * * * * * * * * * * * * * * * * * * * * * * * * * * * * * * * * * * * //

dimensions      [0 0 0 0 0 0 0];

internalField   nonuniform List<scalar> 
100
(
0.00398558
0.00538228
0.00648354
0.0072756
0.00749381
0.00769979
0.00814912
0.0086639
0.0093083
0.00972195
0.0100625
0.0103798
0.0107022
0.0109662
0.0112833
0.011562
0.0117489
0.0119146
0.0121398
0.0123285
0.0125046
0.0126802
0.012841
0.0129337
0.0129602
0.0130216
0.0131032
0.0132125
0.0133131
0.0134286
0.0135683
0.0137054
0.0138252
0.0139327
0.0140053
0.0141168
0.0141889
0.0142651
0.0143321
0.0144067
0.0144922
0.0145854
0.0146678
0.0147456
0.0148107
0.0148675
0.0149397
0.015001
0.0150692
0.0151379
0.0152179
0.0152911
0.015351
0.0153931
0.0154476
0.0155003
0.0155505
0.0156005
0.015668
0.0157274
0.0157876
0.0158392
0.0158958
0.0159546
0.0160086
0.0160724
0.0161254
0.0161629
0.0162082
0.0162441
0.0162939
0.0163416
0.016391
0.0164337
0.0164869
0.0165358
0.0165773
0.0166225
0.0166637
0.0166987
0.0167327
0.0167751
0.0168166
0.0168568
0.0168991
0.0169332
0.0169796
0.0170206
0.0170574
0.0170936
0.0171364
0.0171772
0.017221
0.017262
0.0173062
0.0173545
0.0173986
0.0174485
0.0174994
0.0175503
)
;

boundaryField
{
    inlet
    {
        type            fixedValue;
        value           uniform 0;
    }
    outlet
    {
        type            zeroGradient;
    }
    yzfaces
    {
        type            empty;
    }
}


// ************************************************************************* //
