/*--------------------------------*- C++ -*----------------------------------*\
| =========                 |                                                 |
| \\      /  F ield         | foam-extend: Open Source CFD                    |
|  \\    /   O peration     | Version:     5.0                                |
|   \\  /    A nd           | Web:         http://www.foam-extend.org         |
|    \\/     M anipulation  |                                                 |
\*---------------------------------------------------------------------------*/
FoamFile
{
    version     2.0;
    format      ascii;
    class       volScalarField;
    location    "8";
    object      Ns;
}
// * * * * * * * * * * * * * * * * * * * * * * * * * * * * * * * * * * * * * //

dimensions      [0 -3 0 0 1 0 0];

internalField   nonuniform List<scalar> 
100
(
45.1761
75.5096
60.623
121.144
186.235
205.837
169.723
106.61
47.2975
73.8587
73.509
74.1592
37.57
53.598
11.2676
1.23594
51.6564
39.2962
9.63616
43.2967
46.4672
54.8786
66.5538
51.6752
72.6823
66.1663
67.1971
56.6578
68.6566
44.986
42.048
31.2534
32.6444
50.492
53.938
34.2603
56.7324
48.6729
70.5183
55.9432
51.8654
50.2812
51.5818
33.257
56.6179
64.9799
53.8676
64.2401
37.0024
65.7583
51.3989
43.5641
54.0554
52.6105
60.439
50.6851
86.0647
50.5903
63.5231
51.7447
63.0204
52.1183
58.1689
64.5339
49.9923
53.5582
40.7439
56.3305
73.1132
61.5084
69.9821
43.3709
69.7261
60.9983
59.7853
60.6571
62.2628
59.0618
52.763
59.3293
72.4673
64.2601
66.9657
57.0327
66.9409
58.6182
54.208
60.7819
53.3589
59.2721
51.4802
57.8028
47.7475
52.1759
63.1405
51.9622
53.5623
52.8118
49.4418
50.6105
)
;

boundaryField
{
    inlet
    {
        type            fixedValue;
        value           uniform 0;
    }
    outlet
    {
        type            zeroGradient;
    }
    yzfaces
    {
        type            empty;
    }
}


// ************************************************************************* //
