/*--------------------------------*- C++ -*----------------------------------*\
| =========                 |                                                 |
| \\      /  F ield         | foam-extend: Open Source CFD                    |
|  \\    /   O peration     | Version:     5.0                                |
|   \\  /    A nd           | Web:         http://www.foam-extend.org         |
|    \\/     M anipulation  |                                                 |
\*---------------------------------------------------------------------------*/
FoamFile
{
    version     2.0;
    format      ascii;
    class       volScalarField;
    location    "8";
    object      Ns;
}
// * * * * * * * * * * * * * * * * * * * * * * * * * * * * * * * * * * * * * //

dimensions      [0 -3 0 0 1 0 0];

internalField   nonuniform List<scalar> 
100
(
36.6427
118.889
58.8527
159.109
192.4
210.358
133.599
99.943
122.911
79.1736
30.9309
114.287
6.35926
46.8759
73.5103
37.8918
40.9224
51.464
29.2623
8.24133
37.0734
60.0151
28.2521
15.9453
61.9169
61.9008
75.2354
59.1299
72.6763
29.1878
39.1766
73.0259
46.999
51.8172
32.3689
45.7087
22.4541
38.1601
35.8049
42.5239
45.171
43.9479
48.161
64.124
44.0502
59.6882
76.5736
51.3989
75.2985
56.9329
53.0775
52.9085
45.9374
64.4795
55.4715
72.7088
44.9087
76.8971
68.6437
55.9763
57.7567
61.4429
38.671
64.9416
50.4698
56.5736
57.6387
59.1232
70.9662
68.3823
64.5371
60.4474
73.0662
67.4097
70.2799
68.4857
72.7528
70.7123
65.4602
62.3128
76.4631
69.9336
67.1673
62.5227
55.5815
65.8015
58.2496
69.823
67.6584
65.5231
66.3195
56.4699
53.3129
58.267
47.1095
57.2271
58.983
52.2247
47.8668
51.5244
)
;

boundaryField
{
    inlet
    {
        type            fixedValue;
        value           uniform 0;
    }
    outlet
    {
        type            zeroGradient;
    }
    yzfaces
    {
        type            empty;
    }
}


// ************************************************************************* //
