/*--------------------------------*- C++ -*----------------------------------*\
| =========                 |                                                 |
| \\      /  F ield         | foam-extend: Open Source CFD                    |
|  \\    /   O peration     | Version:     5.0                                |
|   \\  /    A nd           | Web:         http://www.foam-extend.org         |
|    \\/     M anipulation  |                                                 |
\*---------------------------------------------------------------------------*/
FoamFile
{
    version     2.0;
    format      ascii;
    class       volScalarField;
    location    "8";
    object      Ns;
}
// * * * * * * * * * * * * * * * * * * * * * * * * * * * * * * * * * * * * * //

dimensions      [0 -3 0 0 1 0 0];

internalField   nonuniform List<scalar> 
100
(
26.6962
56.3532
88.9217
136.178
201.921
233.737
158.809
94.318
66.9751
40.4656
71.6439
93.2517
52.2989
52.387
40.3992
0.566472
53.1459
23.2172
62.5499
20.5277
43.5704
43.9643
15.076
62.6111
65.2987
92.2647
29.8338
48.2456
60.7077
55.7742
41.1565
54.3062
58.5557
61.8352
36.208
60.5017
55.9498
66.3117
73.0618
46.0569
43.0151
35.2609
47.227
66.0441
45.7205
39.7433
50.913
61.4634
58.9213
38.5862
33.4419
44.3876
55.1138
64.1198
71.3775
62.8865
37.6667
39.3113
65.1426
43.6918
74.9631
42.0073
49.6389
66.2194
40.5868
51.5019
54.178
41.9241
51.0277
45.306
57.0417
59.0326
38.7562
49.0613
59.083
61.0537
49.4212
58.7337
51.2284
73.2388
51.2652
61.8143
51.5538
51.981
62.573
51.7609
51.4493
55.3323
56.7641
48.3727
56.57
46.2151
54.4942
53.1021
50.6511
46.0384
53.9901
50.6148
43.4093
51.1685
)
;

boundaryField
{
    inlet
    {
        type            fixedValue;
        value           uniform 0;
    }
    outlet
    {
        type            zeroGradient;
    }
    yzfaces
    {
        type            empty;
    }
}


// ************************************************************************* //
