/*--------------------------------*- C++ -*----------------------------------*\
| =========                 |                                                 |
| \\      /  F ield         | foam-extend: Open Source CFD                    |
|  \\    /   O peration     | Version:     5.0                                |
|   \\  /    A nd           | Web:         http://www.foam-extend.org         |
|    \\/     M anipulation  |                                                 |
\*---------------------------------------------------------------------------*/
FoamFile
{
    version     2.0;
    format      ascii;
    class       surfaceScalarField;
    location    "8";
    object      phi;
}
// * * * * * * * * * * * * * * * * * * * * * * * * * * * * * * * * * * * * * //

dimensions      [0 3 -1 0 0 0 0];

internalField   nonuniform List<scalar> 
99
(
1.23296e-06
1.22827e-06
1.2329e-06
1.2269e-06
1.22545e-06
1.22242e-06
1.21081e-06
1.20177e-06
1.19226e-06
1.18828e-06
1.18287e-06
1.18496e-06
1.17857e-06
1.1831e-06
1.17755e-06
1.17987e-06
1.18074e-06
1.18063e-06
1.1741e-06
1.17702e-06
1.17806e-06
1.18048e-06
1.17937e-06
1.18798e-06
1.19193e-06
1.19834e-06
1.19876e-06
1.19849e-06
1.1981e-06
1.19612e-06
1.19345e-06
1.19184e-06
1.19654e-06
1.19038e-06
1.1854e-06
1.18538e-06
1.18572e-06
1.18593e-06
1.18749e-06
1.18821e-06
1.18623e-06
1.1845e-06
1.18597e-06
1.18429e-06
1.18609e-06
1.18442e-06
1.1798e-06
1.17943e-06
1.17848e-06
1.17903e-06
1.1793e-06
1.17769e-06
1.17973e-06
1.1772e-06
1.17712e-06
1.17529e-06
1.17154e-06
1.17252e-06
1.17182e-06
1.17307e-06
1.17683e-06
1.17855e-06
1.17827e-06
1.17575e-06
1.17727e-06
1.17439e-06
1.17676e-06
1.1745e-06
1.17482e-06
1.1734e-06
1.1733e-06
1.17277e-06
1.17398e-06
1.17471e-06
1.17667e-06
1.17478e-06
1.17561e-06
1.17488e-06
1.17159e-06
1.17242e-06
1.16877e-06
1.17034e-06
1.16949e-06
1.16999e-06
1.16943e-06
1.16892e-06
1.16705e-06
1.16701e-06
1.16616e-06
1.164e-06
1.1643e-06
1.16462e-06
1.15931e-06
1.15875e-06
1.15769e-06
1.15824e-06
1.15979e-06
1.16072e-06
1.16046e-06
)
;

boundaryField
{
    inlet
    {
        type            calculated;
        value           uniform -1.225e-06;
    }
    outlet
    {
        type            calculated;
        value           uniform 1.16101e-06;
    }
    yzfaces
    {
        type            empty;
    }
}


// ************************************************************************* //
