/*--------------------------------*- C++ -*----------------------------------*\
| =========                 |                                                 |
| \\      /  F ield         | foam-extend: Open Source CFD                    |
|  \\    /   O peration     | Version:     5.0                                |
|   \\  /    A nd           | Web:         http://www.foam-extend.org         |
|    \\/     M anipulation  |                                                 |
\*---------------------------------------------------------------------------*/
FoamFile
{
    version     2.0;
    format      ascii;
    class       surfaceScalarField;
    location    "8";
    object      phi;
}
// * * * * * * * * * * * * * * * * * * * * * * * * * * * * * * * * * * * * * //

dimensions      [0 3 -1 0 0 0 0];

internalField   nonuniform List<scalar> 
99
(
1.22315e-06
1.22618e-06
1.21778e-06
1.2163e-06
1.22673e-06
1.22006e-06
1.20364e-06
1.1932e-06
1.2026e-06
1.19502e-06
1.19268e-06
1.19611e-06
1.19508e-06
1.19058e-06
1.18943e-06
1.19055e-06
1.19239e-06
1.19781e-06
1.19534e-06
1.19669e-06
1.19613e-06
1.1947e-06
1.19613e-06
1.18927e-06
1.18617e-06
1.17888e-06
1.17299e-06
1.17392e-06
1.17951e-06
1.17691e-06
1.17609e-06
1.17728e-06
1.18025e-06
1.1798e-06
1.18371e-06
1.18109e-06
1.1808e-06
1.17804e-06
1.18316e-06
1.18024e-06
1.18589e-06
1.18452e-06
1.18573e-06
1.18311e-06
1.18392e-06
1.1821e-06
1.17885e-06
1.17931e-06
1.17735e-06
1.17692e-06
1.17561e-06
1.17717e-06
1.17895e-06
1.17656e-06
1.17672e-06
1.1752e-06
1.17641e-06
1.17725e-06
1.17763e-06
1.17705e-06
1.18053e-06
1.17725e-06
1.17897e-06
1.17817e-06
1.17928e-06
1.17952e-06
1.17987e-06
1.18087e-06
1.18137e-06
1.17957e-06
1.17676e-06
1.17241e-06
1.17053e-06
1.1697e-06
1.16998e-06
1.17199e-06
1.17292e-06
1.172e-06
1.17093e-06
1.17117e-06
1.17174e-06
1.17224e-06
1.17385e-06
1.17207e-06
1.17425e-06
1.17491e-06
1.17554e-06
1.17315e-06
1.17118e-06
1.17082e-06
1.1687e-06
1.16723e-06
1.16844e-06
1.16785e-06
1.16478e-06
1.16618e-06
1.1637e-06
1.16355e-06
1.16114e-06
)
;

boundaryField
{
    inlet
    {
        type            calculated;
        value           uniform -1.225e-06;
    }
    outlet
    {
        type            calculated;
        value           uniform 1.16058e-06;
    }
    yzfaces
    {
        type            empty;
    }
}


// ************************************************************************* //
