/*--------------------------------*- C++ -*----------------------------------*\
| =========                 |                                                 |
| \\      /  F ield         | foam-extend: Open Source CFD                    |
|  \\    /   O peration     | Version:     5.0                                |
|   \\  /    A nd           | Web:         http://www.foam-extend.org         |
|    \\/     M anipulation  |                                                 |
\*---------------------------------------------------------------------------*/
FoamFile
{
    version     2.0;
    format      ascii;
    class       surfaceScalarField;
    location    "8";
    object      phi;
}
// * * * * * * * * * * * * * * * * * * * * * * * * * * * * * * * * * * * * * //

dimensions      [0 3 -1 0 0 0 0];

internalField   nonuniform List<scalar> 
99
(
1.22919e-06
1.22565e-06
1.24609e-06
1.2472e-06
1.2506e-06
1.24507e-06
1.24038e-06
1.23212e-06
1.22061e-06
1.22033e-06
1.21911e-06
1.21709e-06
1.21464e-06
1.21575e-06
1.21535e-06
1.21694e-06
1.2189e-06
1.2217e-06
1.2218e-06
1.21774e-06
1.22056e-06
1.22417e-06
1.22899e-06
1.23076e-06
1.23071e-06
1.22888e-06
1.2279e-06
1.21959e-06
1.21713e-06
1.2133e-06
1.21138e-06
1.21454e-06
1.21137e-06
1.20915e-06
1.21057e-06
1.21429e-06
1.21571e-06
1.21546e-06
1.21214e-06
1.21112e-06
1.20993e-06
1.20754e-06
1.20887e-06
1.20728e-06
1.20885e-06
1.20989e-06
1.21314e-06
1.2107e-06
1.21137e-06
1.21331e-06
1.21408e-06
1.21429e-06
1.21101e-06
1.21308e-06
1.21297e-06
1.21174e-06
1.21324e-06
1.21005e-06
1.20646e-06
1.20615e-06
1.20388e-06
1.20443e-06
1.20502e-06
1.20317e-06
1.20303e-06
1.19979e-06
1.20254e-06
1.20202e-06
1.20243e-06
1.20094e-06
1.19887e-06
1.19777e-06
1.19594e-06
1.19692e-06
1.19518e-06
1.19907e-06
1.19512e-06
1.19957e-06
1.19867e-06
1.1998e-06
1.20101e-06
1.20319e-06
1.20272e-06
1.19979e-06
1.20019e-06
1.19723e-06
1.19624e-06
1.19556e-06
1.19694e-06
1.1968e-06
1.19793e-06
1.19765e-06
1.20015e-06
1.19842e-06
1.19677e-06
1.19502e-06
1.19252e-06
1.1906e-06
1.19149e-06
)
;

boundaryField
{
    inlet
    {
        type            calculated;
        value           uniform -1.225e-06;
    }
    outlet
    {
        type            calculated;
        value           uniform 1.18668e-06;
    }
    yzfaces
    {
        type            empty;
    }
}


// ************************************************************************* //
