/*--------------------------------*- C++ -*----------------------------------*\
| =========                 |                                                 |
| \\      /  F ield         | foam-extend: Open Source CFD                    |
|  \\    /   O peration     | Version:     5.0                                |
|   \\  /    A nd           | Web:         http://www.foam-extend.org         |
|    \\/     M anipulation  |                                                 |
\*---------------------------------------------------------------------------*/
FoamFile
{
    version     2.0;
    format      ascii;
    class       surfaceScalarField;
    location    "8";
    object      phi.water;
}
// * * * * * * * * * * * * * * * * * * * * * * * * * * * * * * * * * * * * * //

dimensions      [0 3 -1 0 0 0 0];

internalField   nonuniform List<scalar> 
99
(
7.54153e-08
1.23854e-07
1.71477e-07
2.16258e-07
2.49465e-07
2.55012e-07
2.79663e-07
3.14431e-07
3.71678e-07
4.13674e-07
4.48564e-07
4.82557e-07
5.25534e-07
5.58532e-07
5.88614e-07
6.29498e-07
6.76899e-07
7.06176e-07
7.39964e-07
7.83684e-07
8.16621e-07
8.46454e-07
8.89082e-07
9.10265e-07
9.18176e-07
9.22772e-07
9.27827e-07
9.58471e-07
9.91388e-07
1.0208e-06
1.04604e-06
1.08937e-06
1.12458e-06
1.15445e-06
1.19395e-06
1.21633e-06
1.24283e-06
1.26291e-06
1.29349e-06
1.31488e-06
1.3532e-06
1.37608e-06
1.40882e-06
1.43068e-06
1.45805e-06
1.47626e-06
1.48762e-06
1.51049e-06
1.53104e-06
1.56084e-06
1.59007e-06
1.6208e-06
1.65004e-06
1.67239e-06
1.69491e-06
1.71958e-06
1.74624e-06
1.77497e-06
1.80171e-06
1.8251e-06
1.8616e-06
1.87451e-06
1.90657e-06
1.93081e-06
1.9589e-06
1.98549e-06
2.01617e-06
2.04319e-06
2.06849e-06
2.08397e-06
2.10159e-06
2.11584e-06
2.1387e-06
2.1622e-06
2.19044e-06
2.22245e-06
2.24596e-06
2.26346e-06
2.28374e-06
2.30609e-06
2.3355e-06
2.35653e-06
2.38561e-06
2.40137e-06
2.43964e-06
2.46456e-06
2.48716e-06
2.50652e-06
2.52603e-06
2.5509e-06
2.57368e-06
2.59951e-06
2.63327e-06
2.65727e-06
2.68514e-06
2.7209e-06
2.74284e-06
2.78011e-06
2.80624e-06
)
;

boundaryField
{
    inlet
    {
        type            fixedValue;
        value           uniform 0;
    }
    outlet
    {
        type            calculated;
        value           uniform 2.85115e-06;
    }
    yzfaces
    {
        type            empty;
    }
}


// ************************************************************************* //
