/*--------------------------------*- C++ -*----------------------------------*\
| =========                 |                                                 |
| \\      /  F ield         | foam-extend: Open Source CFD                    |
|  \\    /   O peration     | Version:     5.0                                |
|   \\  /    A nd           | Web:         http://www.foam-extend.org         |
|    \\/     M anipulation  |                                                 |
\*---------------------------------------------------------------------------*/
FoamFile
{
    version     2.0;
    format      ascii;
    class       surfaceScalarField;
    location    "8";
    object      phi.water;
}
// * * * * * * * * * * * * * * * * * * * * * * * * * * * * * * * * * * * * * //

dimensions      [0 3 -1 0 0 0 0];

internalField   nonuniform List<scalar> 
99
(
7.54225e-08
1.25599e-07
1.8096e-07
2.33713e-07
2.48771e-07
2.56197e-07
2.85338e-07
3.21645e-07
3.77666e-07
4.20499e-07
4.56741e-07
4.92413e-07
5.35361e-07
5.69295e-07
6.16495e-07
6.62308e-07
6.95771e-07
7.24124e-07
7.63203e-07
7.98504e-07
8.37224e-07
8.76064e-07
9.18142e-07
9.42694e-07
9.44041e-07
9.57539e-07
9.74677e-07
9.95793e-07
1.01646e-06
1.04447e-06
1.07982e-06
1.12237e-06
1.15216e-06
1.1841e-06
1.2059e-06
1.2473e-06
1.27041e-06
1.29375e-06
1.31221e-06
1.33503e-06
1.36402e-06
1.39399e-06
1.42667e-06
1.45201e-06
1.48011e-06
1.50026e-06
1.53654e-06
1.55115e-06
1.58156e-06
1.61117e-06
1.6454e-06
1.67384e-06
1.6972e-06
1.71575e-06
1.7429e-06
1.76534e-06
1.7888e-06
1.80347e-06
1.83168e-06
1.85729e-06
1.8864e-06
1.91254e-06
1.94031e-06
1.96426e-06
1.99156e-06
2.01859e-06
2.05652e-06
2.07048e-06
2.09826e-06
2.11543e-06
2.1366e-06
2.15948e-06
2.18237e-06
2.21098e-06
2.23427e-06
2.27142e-06
2.285e-06
2.325e-06
2.34304e-06
2.36726e-06
2.39117e-06
2.42314e-06
2.44589e-06
2.46287e-06
2.48733e-06
2.50323e-06
2.52929e-06
2.55757e-06
2.58538e-06
2.60734e-06
2.63884e-06
2.66544e-06
2.70063e-06
2.7224e-06
2.74943e-06
2.77768e-06
2.80101e-06
2.83554e-06
2.87622e-06
)
;

boundaryField
{
    inlet
    {
        type            fixedValue;
        value           uniform 0;
    }
    outlet
    {
        type            calculated;
        value           uniform 2.90515e-06;
    }
    yzfaces
    {
        type            empty;
    }
}


// ************************************************************************* //
