/*--------------------------------*- C++ -*----------------------------------*\
| =========                 |                                                 |
| \\      /  F ield         | foam-extend: Open Source CFD                    |
|  \\    /   O peration     | Version:     5.0                                |
|   \\  /    A nd           | Web:         http://www.foam-extend.org         |
|    \\/     M anipulation  |                                                 |
\*---------------------------------------------------------------------------*/
FoamFile
{
    version     2.0;
    format      ascii;
    class       surfaceScalarField;
    location    "8";
    object      phi.water;
}
// * * * * * * * * * * * * * * * * * * * * * * * * * * * * * * * * * * * * * //

dimensions      [0 3 -1 0 0 0 0];

internalField   nonuniform List<scalar> 
99
(
7.62699e-08
1.2908e-07
1.76518e-07
2.2588e-07
2.4115e-07
2.54612e-07
2.78009e-07
3.1339e-07
3.66098e-07
4.08854e-07
4.43992e-07
4.73868e-07
5.11851e-07
5.54416e-07
5.8844e-07
6.28739e-07
6.69571e-07
6.99691e-07
7.27453e-07
7.7778e-07
8.08865e-07
8.42697e-07
8.86434e-07
9.18287e-07
9.26456e-07
9.4048e-07
9.5178e-07
9.7178e-07
9.95978e-07
1.02588e-06
1.0517e-06
1.09067e-06
1.12994e-06
1.15225e-06
1.18217e-06
1.21564e-06
1.248e-06
1.27479e-06
1.29283e-06
1.32068e-06
1.3458e-06
1.37473e-06
1.40665e-06
1.42998e-06
1.45571e-06
1.47565e-06
1.48907e-06
1.51044e-06
1.53766e-06
1.56589e-06
1.59422e-06
1.61859e-06
1.64987e-06
1.66849e-06
1.69325e-06
1.71428e-06
1.73027e-06
1.75974e-06
1.78131e-06
1.81694e-06
1.84777e-06
1.87966e-06
1.89995e-06
1.92214e-06
1.95406e-06
1.96918e-06
2.00608e-06
2.02793e-06
2.05946e-06
2.0793e-06
2.10666e-06
2.13167e-06
2.16477e-06
2.19464e-06
2.21945e-06
2.24204e-06
2.27101e-06
2.2891e-06
2.30621e-06
2.33501e-06
2.34354e-06
2.37119e-06
2.39078e-06
2.41569e-06
2.4379e-06
2.46109e-06
2.475e-06
2.50014e-06
2.52111e-06
2.54264e-06
2.57495e-06
2.60316e-06
2.61515e-06
2.64542e-06
2.67573e-06
2.71039e-06
2.75268e-06
2.78582e-06
2.81691e-06
)
;

boundaryField
{
    inlet
    {
        type            fixedValue;
        value           uniform 0;
    }
    outlet
    {
        type            calculated;
        value           uniform 2.85254e-06;
    }
    yzfaces
    {
        type            empty;
    }
}


// ************************************************************************* //
