/*--------------------------------*- C++ -*----------------------------------*\
| =========                 |                                                 |
| \\      /  F ield         | foam-extend: Open Source CFD                    |
|  \\    /   O peration     | Version:     5.0                                |
|   \\  /    A nd           | Web:         http://www.foam-extend.org         |
|    \\/     M anipulation  |                                                 |
\*---------------------------------------------------------------------------*/
FoamFile
{
    version     2.0;
    format      ascii;
    class       volVectorField;
    location    "8";
    object      U.gas;
}
// * * * * * * * * * * * * * * * * * * * * * * * * * * * * * * * * * * * * * //

dimensions      [0 1 -1 0 0 0 0];

internalField   nonuniform List<vector> 
100
(
(0.00603789 0 0)
(0.00648427 0 0)
(0.00685345 0 0)
(0.00713121 0 0)
(0.00734181 0 0)
(0.00742446 0 0)
(0.00755791 0 0)
(0.00772381 0 0)
(0.00802434 0 0)
(0.00826085 0 0)
(0.00840014 0 0)
(0.00856934 0 0)
(0.00877847 0 0)
(0.00891525 0 0)
(0.00903201 0 0)
(0.00919968 0 0)
(0.00938925 0 0)
(0.00951455 0 0)
(0.00966521 0 0)
(0.00981133 0 0)
(0.00992949 0 0)
(0.0100233 0 0)
(0.0101606 0 0)
(0.0102062 0 0)
(0.0101863 0 0)
(0.0101736 0 0)
(0.0101547 0 0)
(0.0102286 0 0)
(0.0103452 0 0)
(0.0104491 0 0)
(0.0105075 0 0)
(0.01063 0 0)
(0.0107269 0 0)
(0.0108122 0 0)
(0.0109171 0 0)
(0.0109812 0 0)
(0.0110294 0 0)
(0.0110617 0 0)
(0.0111355 0 0)
(0.0111989 0 0)
(0.0112882 0 0)
(0.0113593 0 0)
(0.0114228 0 0)
(0.0114644 0 0)
(0.0115049 0 0)
(0.0115327 0 0)
(0.0115385 0 0)
(0.0115678 0 0)
(0.011611 0 0)
(0.0116551 0 0)
(0.0116961 0 0)
(0.0117476 0 0)
(0.0118071 0 0)
(0.0118449 0 0)
(0.0118682 0 0)
(0.0119028 0 0)
(0.0119367 0 0)
(0.0119909 0 0)
(0.0120354 0 0)
(0.0120658 0 0)
(0.0121236 0 0)
(0.0121396 0 0)
(0.0121789 0 0)
(0.0122102 0 0)
(0.0122465 0 0)
(0.0122841 0 0)
(0.0123247 0 0)
(0.0123568 0 0)
(0.0123837 0 0)
(0.0123967 0 0)
(0.0123993 0 0)
(0.0123814 0 0)
(0.0123751 0 0)
(0.0123846 0 0)
(0.0124091 0 0)
(0.0124437 0 0)
(0.0124715 0 0)
(0.0124869 0 0)
(0.012495 0 0)
(0.0125084 0 0)
(0.0125364 0 0)
(0.012547 0 0)
(0.0125811 0 0)
(0.0125909 0 0)
(0.0126242 0 0)
(0.0126409 0 0)
(0.0126581 0 0)
(0.0126642 0 0)
(0.0126542 0 0)
(0.0126536 0 0)
(0.0126559 0 0)
(0.0126508 0 0)
(0.0126619 0 0)
(0.0126682 0 0)
(0.0126667 0 0)
(0.0126645 0 0)
(0.0126583 0 0)
(0.0126654 0 0)
(0.0126528 0 0)
(0.0126432 0 0)
)
;

boundaryField
{
    inlet
    {
        type            fixedValue;
        value           uniform (0.005 0 0);
    }
    outlet
    {
        type            zeroGradient;
    }
    yzfaces
    {
        type            empty;
    }
}


// ************************************************************************* //
