/*--------------------------------*- C++ -*----------------------------------*\
| =========                 |                                                 |
| \\      /  F ield         | foam-extend: Open Source CFD                    |
|  \\    /   O peration     | Version:     5.0                                |
|   \\  /    A nd           | Web:         http://www.foam-extend.org         |
|    \\/     M anipulation  |                                                 |
\*---------------------------------------------------------------------------*/
FoamFile
{
    version     2.0;
    format      ascii;
    class       volVectorField;
    location    "8";
    object      U.gas;
}
// * * * * * * * * * * * * * * * * * * * * * * * * * * * * * * * * * * * * * //

dimensions      [0 1 -1 0 0 0 0];

internalField   nonuniform List<vector> 
100
(
(0.00607193 0 0)
(0.00655544 0 0)
(0.00692622 0 0)
(0.00724286 0 0)
(0.00732246 0 0)
(0.0074281 0 0)
(0.0075692 0 0)
(0.00775124 0 0)
(0.00800645 0 0)
(0.00818581 0 0)
(0.00833914 0 0)
(0.00847878 0 0)
(0.00865741 0 0)
(0.00882584 0 0)
(0.00897932 0 0)
(0.00913019 0 0)
(0.00930157 0 0)
(0.00941933 0 0)
(0.00951334 0 0)
(0.00966877 0 0)
(0.00978597 0 0)
(0.00990981 0 0)
(0.0100572 0 0)
(0.0101411 0 0)
(0.0102103 0 0)
(0.0102856 0 0)
(0.0103541 0 0)
(0.0104281 0 0)
(0.0104995 0 0)
(0.0105809 0 0)
(0.0106466 0 0)
(0.0107369 0 0)
(0.010841 0 0)
(0.0109076 0 0)
(0.0109461 0 0)
(0.0110035 0 0)
(0.0110763 0 0)
(0.0111297 0 0)
(0.0111742 0 0)
(0.0112501 0 0)
(0.0113119 0 0)
(0.0113599 0 0)
(0.011417 0 0)
(0.0114613 0 0)
(0.0115085 0 0)
(0.0115503 0 0)
(0.011557 0 0)
(0.011576 0 0)
(0.0116253 0 0)
(0.0116754 0 0)
(0.0117273 0 0)
(0.0117602 0 0)
(0.0118112 0 0)
(0.0118414 0 0)
(0.0118668 0 0)
(0.0118983 0 0)
(0.0119012 0 0)
(0.0119299 0 0)
(0.0119629 0 0)
(0.0120193 0 0)
(0.0120738 0 0)
(0.0121412 0 0)
(0.0121695 0 0)
(0.0121908 0 0)
(0.0122251 0 0)
(0.0122336 0 0)
(0.0122778 0 0)
(0.0123011 0 0)
(0.0123282 0 0)
(0.0123404 0 0)
(0.0123632 0 0)
(0.0123831 0 0)
(0.0124244 0 0)
(0.0124547 0 0)
(0.0124785 0 0)
(0.0125071 0 0)
(0.0125219 0 0)
(0.0125318 0 0)
(0.0125302 0 0)
(0.0125363 0 0)
(0.0125221 0 0)
(0.0125372 0 0)
(0.0125533 0 0)
(0.0125711 0 0)
(0.0125826 0 0)
(0.0125879 0 0)
(0.0125815 0 0)
(0.0125899 0 0)
(0.0125929 0 0)
(0.0125956 0 0)
(0.0126026 0 0)
(0.0126186 0 0)
(0.0125909 0 0)
(0.0125751 0 0)
(0.0125812 0 0)
(0.0125889 0 0)
(0.012613 0 0)
(0.0126245 0 0)
(0.0126327 0 0)
(0.0126484 0 0)
)
;

boundaryField
{
    inlet
    {
        type            fixedValue;
        value           uniform (0.005 0 0);
    }
    outlet
    {
        type            zeroGradient;
    }
    yzfaces
    {
        type            empty;
    }
}


// ************************************************************************* //
