/*--------------------------------*- C++ -*----------------------------------*\
| =========                 |                                                 |
| \\      /  F ield         | foam-extend: Open Source CFD                    |
|  \\    /   O peration     | Version:     5.0                                |
|   \\  /    A nd           | Web:         http://www.foam-extend.org         |
|    \\/     M anipulation  |                                                 |
\*---------------------------------------------------------------------------*/
FoamFile
{
    version     2.0;
    format      ascii;
    class       volVectorField;
    location    "8";
    object      U.gas;
}
// * * * * * * * * * * * * * * * * * * * * * * * * * * * * * * * * * * * * * //

dimensions      [0 1 -1 0 0 0 0];

internalField   nonuniform List<vector> 
100
(
(0.00605364 0 0)
(0.00651791 0 0)
(0.00698039 0 0)
(0.00736994 0 0)
(0.00747011 0 0)
(0.007556 0 0)
(0.00773843 0 0)
(0.00795029 0 0)
(0.00821929 0 0)
(0.00839884 0 0)
(0.00857931 0 0)
(0.00875263 0 0)
(0.00893259 0 0)
(0.00908457 0 0)
(0.00929162 0 0)
(0.0094711 0 0)
(0.00960186 0 0)
(0.00972593 0 0)
(0.00989563 0 0)
(0.0100077 0 0)
(0.0101288 0 0)
(0.0102825 0 0)
(0.0104337 0 0)
(0.0105171 0 0)
(0.0105247 0 0)
(0.0105725 0 0)
(0.0106221 0 0)
(0.0106624 0 0)
(0.0106917 0 0)
(0.010756 0 0)
(0.0108378 0 0)
(0.0109513 0 0)
(0.011035 0 0)
(0.0110909 0 0)
(0.0111341 0 0)
(0.0112548 0 0)
(0.0113207 0 0)
(0.0113854 0 0)
(0.011416 0 0)
(0.0114565 0 0)
(0.0115164 0 0)
(0.0115716 0 0)
(0.0116258 0 0)
(0.0116777 0 0)
(0.011724 0 0)
(0.0117727 0 0)
(0.011861 0 0)
(0.0118876 0 0)
(0.0119428 0 0)
(0.0120058 0 0)
(0.0120779 0 0)
(0.0121271 0 0)
(0.0121546 0 0)
(0.0121686 0 0)
(0.0122282 0 0)
(0.0122558 0 0)
(0.0122878 0 0)
(0.0123127 0 0)
(0.0123329 0 0)
(0.0123486 0 0)
(0.0123797 0 0)
(0.0123971 0 0)
(0.0124397 0 0)
(0.0124717 0 0)
(0.0124929 0 0)
(0.0125188 0 0)
(0.0125495 0 0)
(0.0125679 0 0)
(0.0126053 0 0)
(0.0126123 0 0)
(0.0126212 0 0)
(0.0126343 0 0)
(0.0126406 0 0)
(0.01266 0 0)
(0.0126838 0 0)
(0.012726 0 0)
(0.0127322 0 0)
(0.0127646 0 0)
(0.0127897 0 0)
(0.0128069 0 0)
(0.0128371 0 0)
(0.0128818 0 0)
(0.0129038 0 0)
(0.0128991 0 0)
(0.0129016 0 0)
(0.0128964 0 0)
(0.0128976 0 0)
(0.0129029 0 0)
(0.0129151 0 0)
(0.0129317 0 0)
(0.012958 0 0)
(0.0129679 0 0)
(0.0129961 0 0)
(0.0130026 0 0)
(0.0130018 0 0)
(0.0129919 0 0)
(0.0129731 0 0)
(0.0129669 0 0)
(0.0129728 0 0)
(0.0129427 0 0)
)
;

boundaryField
{
    inlet
    {
        type            fixedValue;
        value           uniform (0.005 0 0);
    }
    outlet
    {
        type            zeroGradient;
    }
    yzfaces
    {
        type            empty;
    }
}


// ************************************************************************* //
