/*--------------------------------*- C++ -*----------------------------------*\
| =========                 |                                                 |
| \\      /  F ield         | foam-extend: Open Source CFD                    |
|  \\    /   O peration     | Version:     5.0                                |
|   \\  /    A nd           | Web:         http://www.foam-extend.org         |
|    \\/     M anipulation  |                                                 |
\*---------------------------------------------------------------------------*/
FoamFile
{
    version     2.0;
    format      ascii;
    class       volVectorField;
    location    "8";
    object      U.water;
}
// * * * * * * * * * * * * * * * * * * * * * * * * * * * * * * * * * * * * * //

dimensions      [0 1 -1 0 0 0 0];

internalField   nonuniform List<vector> 
100
(
(3.66193e-05 0 0)
(8.45444e-05 0 0)
(0.000125095 0 0)
(0.000162006 0 0)
(0.000190963 0 0)
(0.000203509 0 0)
(0.000218629 0 0)
(0.000242918 0 0)
(0.000276866 0 0)
(0.000316129 0 0)
(0.000347837 0 0)
(0.000375453 0 0)
(0.000402379 0 0)
(0.000435127 0 0)
(0.000466685 0 0)
(0.000496861 0 0)
(0.000529282 0 0)
(0.000559018 0 0)
(0.000583385 0 0)
(0.000613401 0 0)
(0.000647595 0 0)
(0.000674705 0 0)
(0.000704276 0 0)
(0.000735266 0 0)
(0.000752447 0 0)
(0.000761737 0 0)
(0.000772718 0 0)
(0.000785304 0 0)
(0.000803665 0 0)
(0.000825331 0 0)
(0.000848579 0 0)
(0.000874239 0 0)
(0.000905914 0 0)
(0.000932109 0 0)
(0.000953368 0 0)
(0.000978744 0 0)
(0.00100504 0 0)
(0.00102923 0 0)
(0.00104845 0 0)
(0.00106697 0 0)
(0.00108847 0 0)
(0.00111034 0 0)
(0.00113494 0 0)
(0.00115767 0 0)
(0.00117757 0 0)
(0.00119637 0 0)
(0.00121054 0 0)
(0.00122508 0 0)
(0.00124439 0 0)
(0.00126667 0 0)
(0.00128978 0 0)
(0.00131167 0 0)
(0.00133395 0 0)
(0.00135465 0 0)
(0.00137223 0 0)
(0.00139071 0 0)
(0.00140641 0 0)
(0.00142459 0 0)
(0.00144576 0 0)
(0.00146813 0 0)
(0.00149539 0 0)
(0.00152077 0 0)
(0.00154318 0 0)
(0.00156062 0 0)
(0.00158199 0 0)
(0.00160211 0 0)
(0.00162243 0 0)
(0.0016469 0 0)
(0.00166824 0 0)
(0.00168957 0 0)
(0.00170861 0 0)
(0.00173008 0 0)
(0.00175313 0 0)
(0.00177883 0 0)
(0.00180195 0 0)
(0.00182099 0 0)
(0.00184168 0 0)
(0.00186161 0 0)
(0.001876 0 0)
(0.00189404 0 0)
(0.00191013 0 0)
(0.00192445 0 0)
(0.0019439 0 0)
(0.00196187 0 0)
(0.00198101 0 0)
(0.00199946 0 0)
(0.00201519 0 0)
(0.00203092 0 0)
(0.00205 0 0)
(0.00206723 0 0)
(0.00208867 0 0)
(0.00211337 0 0)
(0.00213107 0 0)
(0.00214796 0 0)
(0.00217203 0 0)
(0.00219839 0 0)
(0.00222906 0 0)
(0.00226016 0 0)
(0.00228695 0 0)
(0.0023124 0 0)
)
;

boundaryField
{
    inlet
    {
        type            fixedValue;
        value           uniform (0 0 0);
    }
    outlet
    {
        type            zeroGradient;
    }
    yzfaces
    {
        type            empty;
    }
}


// ************************************************************************* //
