/*--------------------------------*- C++ -*----------------------------------*\
| =========                 |                                                 |
| \\      /  F ield         | foam-extend: Open Source CFD                    |
|  \\    /   O peration     | Version:     5.0                                |
|   \\  /    A nd           | Web:         http://www.foam-extend.org         |
|    \\/     M anipulation  |                                                 |
\*---------------------------------------------------------------------------*/
FoamFile
{
    version     2.0;
    format      ascii;
    class       volVectorField;
    location    "8";
    object      U.water;
}
// * * * * * * * * * * * * * * * * * * * * * * * * * * * * * * * * * * * * * //

dimensions      [0 1 -1 0 0 0 0];

internalField   nonuniform List<vector> 
100
(
(3.59822e-05 0 0)
(8.24375e-05 0 0)
(0.000120786 0 0)
(0.000157189 0 0)
(0.000188374 0 0)
(0.000207653 0 0)
(0.000219425 0 0)
(0.000243813 0 0)
(0.000279613 0 0)
(0.000319906 0 0)
(0.000351874 0 0)
(0.000380625 0 0)
(0.000411041 0 0)
(0.000442384 0 0)
(0.000469042 0 0)
(0.000497737 0 0)
(0.000532045 0 0)
(0.000564952 0 0)
(0.000590657 0 0)
(0.000621441 0 0)
(0.000652923 0 0)
(0.000679464 0 0)
(0.000707593 0 0)
(0.000734037 0 0)
(0.000747103 0 0)
(0.00075243 0 0)
(0.000757092 0 0)
(0.000770159 0 0)
(0.000795747 0 0)
(0.000821077 0 0)
(0.000844566 0 0)
(0.000871138 0 0)
(0.000903363 0 0)
(0.000930174 0 0)
(0.000957788 0 0)
(0.000983843 0 0)
(0.00100377 0 0)
(0.00102304 0 0)
(0.00104336 0 0)
(0.00106502 0 0)
(0.00108838 0 0)
(0.00111391 0 0)
(0.00113654 0 0)
(0.00115914 0 0)
(0.00117894 0 0)
(0.00119778 0 0)
(0.00121032 0 0)
(0.00122422 0 0)
(0.00124178 0 0)
(0.00126206 0 0)
(0.00128596 0 0)
(0.00131017 0 0)
(0.00133501 0 0)
(0.00135619 0 0)
(0.0013746 0 0)
(0.00139356 0 0)
(0.0014147 0 0)
(0.0014372 0 0)
(0.00145998 0 0)
(0.00148065 0 0)
(0.00150421 0 0)
(0.00152566 0 0)
(0.00154341 0 0)
(0.00156646 0 0)
(0.00158773 0 0)
(0.00161015 0 0)
(0.00163297 0 0)
(0.00165646 0 0)
(0.00167819 0 0)
(0.00169549 0 0)
(0.00170923 0 0)
(0.00172249 0 0)
(0.00173713 0 0)
(0.0017557 0 0)
(0.00177644 0 0)
(0.00180065 0 0)
(0.00182369 0 0)
(0.00184075 0 0)
(0.00185599 0 0)
(0.00187329 0 0)
(0.00189383 0 0)
(0.00191499 0 0)
(0.00193524 0 0)
(0.00195413 0 0)
(0.00197503 0 0)
(0.00200108 0 0)
(0.00202108 0 0)
(0.00203861 0 0)
(0.00205476 0 0)
(0.00207298 0 0)
(0.00209225 0 0)
(0.00211178 0 0)
(0.00213569 0 0)
(0.00216014 0 0)
(0.0021811 0 0)
(0.00220674 0 0)
(0.00223095 0 0)
(0.00225441 0 0)
(0.00228068 0 0)
(0.00230772 0 0)
)
;

boundaryField
{
    inlet
    {
        type            fixedValue;
        value           uniform (0 0 0);
    }
    outlet
    {
        type            zeroGradient;
    }
    yzfaces
    {
        type            empty;
    }
}


// ************************************************************************* //
