/*--------------------------------*- C++ -*----------------------------------*\
| =========                 |                                                 |
| \\      /  F ield         | foam-extend: Open Source CFD                    |
|  \\    /   O peration     | Version:     5.0                                |
|   \\  /    A nd           | Web:         http://www.foam-extend.org         |
|    \\/     M anipulation  |                                                 |
\*---------------------------------------------------------------------------*/
FoamFile
{
    version     2.0;
    format      ascii;
    class       volVectorField;
    location    "8";
    object      U.water;
}
// * * * * * * * * * * * * * * * * * * * * * * * * * * * * * * * * * * * * * //

dimensions      [0 1 -1 0 0 0 0];

internalField   nonuniform List<vector> 
100
(
(3.61696e-05 0 0)
(8.33192e-05 0 0)
(0.000125181 0 0)
(0.000166589 0 0)
(0.000196957 0 0)
(0.00020792 0 0)
(0.000221978 0 0)
(0.000249324 0 0)
(0.000284624 0 0)
(0.000325593 0 0)
(0.000358336 0 0)
(0.000387901 0 0)
(0.000419084 0 0)
(0.00045142 0 0)
(0.000483569 0 0)
(0.000521064 0 0)
(0.000553965 0 0)
(0.000580257 0 0)
(0.000606899 0 0)
(0.000637509 0 0)
(0.000667466 0 0)
(0.000698705 0 0)
(0.000730841 0 0)
(0.000758183 0 0)
(0.00077097 0 0)
(0.000776585 0 0)
(0.000789256 0 0)
(0.000804681 0 0)
(0.000822 0 0)
(0.000841788 0 0)
(0.000867196 0 0)
(0.000898459 0 0)
(0.000928423 0 0)
(0.000953287 0 0)
(0.000976262 0 0)
(0.00100016 0 0)
(0.00102731 0 0)
(0.00104631 0 0)
(0.00106406 0 0)
(0.00108105 0 0)
(0.00110206 0 0)
(0.00112575 0 0)
(0.00115117 0 0)
(0.00117472 0 0)
(0.00119644 0 0)
(0.00121662 0 0)
(0.00123854 0 0)
(0.00126091 0 0)
(0.00127845 0 0)
(0.0013029 0 0)
(0.00132878 0 0)
(0.0013546 0 0)
(0.00137549 0 0)
(0.00139366 0 0)
(0.00141182 0 0)
(0.00143199 0 0)
(0.00145098 0 0)
(0.00146728 0 0)
(0.00148414 0 0)
(0.00150619 0 0)
(0.00152797 0 0)
(0.00155067 0 0)
(0.0015726 0 0)
(0.00159376 0 0)
(0.00161526 0 0)
(0.00163697 0 0)
(0.00166265 0 0)
(0.00168495 0 0)
(0.00170156 0 0)
(0.00172059 0 0)
(0.00173612 0 0)
(0.00175366 0 0)
(0.00177244 0 0)
(0.00179325 0 0)
(0.00181413 0 0)
(0.00183841 0 0)
(0.00186013 0 0)
(0.00188109 0 0)
(0.00190518 0 0)
(0.00192258 0 0)
(0.00194199 0 0)
(0.00196439 0 0)
(0.00198735 0 0)
(0.00200402 0 0)
(0.0020208 0 0)
(0.00203775 0 0)
(0.0020545 0 0)
(0.00207609 0 0)
(0.00209885 0 0)
(0.00211952 0 0)
(0.00214094 0 0)
(0.00216491 0 0)
(0.00218982 0 0)
(0.00221398 0 0)
(0.00223399 0 0)
(0.00225675 0 0)
(0.00227853 0 0)
(0.00230149 0 0)
(0.00233141 0 0)
(0.00235911 0 0)
)
;

boundaryField
{
    inlet
    {
        type            fixedValue;
        value           uniform (0 0 0);
    }
    outlet
    {
        type            zeroGradient;
    }
    yzfaces
    {
        type            empty;
    }
}


// ************************************************************************* //
