/*--------------------------------*- C++ -*----------------------------------*\
| =========                 |                                                 |
| \\      /  F ield         | foam-extend: Open Source CFD                    |
|  \\    /   O peration     | Version:     5.0                                |
|   \\  /    A nd           | Web:         http://www.foam-extend.org         |
|    \\/     M anipulation  |                                                 |
\*---------------------------------------------------------------------------*/
FoamFile
{
    version     2.0;
    format      ascii;
    class       volScalarField;
    location    "4";
    object      Cl.water;
}
// * * * * * * * * * * * * * * * * * * * * * * * * * * * * * * * * * * * * * //

dimensions      [0 0 0 0 0 0 0];

internalField   nonuniform List<scalar> 
100
(
0.00983902
0.0130476
0.0151961
0.0165884
0.0178409
0.0189021
0.019589
0.0203706
0.0209409
0.0217138
0.0222872
0.0228691
0.0234183
0.0236121
0.0241714
0.0245444
0.0247805
0.0250084
0.0253509
0.0256922
0.025922
0.0261976
0.0264603
0.0268134
0.0270068
0.0272721
0.0273545
0.0275777
0.0277797
0.0280206
0.0282609
0.0284495
0.0286957
0.0288443
0.0291666
0.0292125
0.0293404
0.0295738
0.0297992
0.0298812
0.0300683
0.030144
0.0303169
0.0305225
0.030642
0.030814
0.0309311
0.0310892
0.0312267
0.0314102
0.03151
0.031635
0.0318015
0.0319747
0.0321217
0.0323323
0.0324922
0.0336439
0.0338561
0.0340555
0.0342646
0.0344959
0.0346823
0.0349505
0.035158
0.035443
0.0357306
0.0360862
0.0364333
0.0368197
0.0372127
0.0375512
0.0380376
0.0384535
0.0388255
0.0391947
0.0394704
0.0396674
0.0398354
0.0398726
0.0399413
0.03998
0.0399588
0.0399535
0.0399847
0.0399856
0.0400294
0.0399756
0.0400019
0.0399784
0.0399865
0.0400019
0.0399771
0.040016
0.0399958
0.0399933
0.0400082
0.0400085
0.0400029
0.0400056
)
;

boundaryField
{
    inlet
    {
        type            fixedValue;
        value           uniform 0;
    }
    outlet
    {
        type            zeroGradient;
    }
    yzfaces
    {
        type            empty;
    }
}


// ************************************************************************* //
