/*--------------------------------*- C++ -*----------------------------------*\
| =========                 |                                                 |
| \\      /  F ield         | foam-extend: Open Source CFD                    |
|  \\    /   O peration     | Version:     5.0                                |
|   \\  /    A nd           | Web:         http://www.foam-extend.org         |
|    \\/     M anipulation  |                                                 |
\*---------------------------------------------------------------------------*/
FoamFile
{
    version     2.0;
    format      ascii;
    class       volScalarField;
    location    "4";
    object      CO2.gas;
}
// * * * * * * * * * * * * * * * * * * * * * * * * * * * * * * * * * * * * * //

dimensions      [0 0 0 0 0 0 0];

internalField   nonuniform List<scalar> 
100
(
0.150985
0.135415
0.125883
0.119604
0.11302
0.107657
0.103128
0.0986807
0.0958721
0.0924629
0.0904281
0.0878621
0.0857398
0.0837561
0.0818172
0.0798173
0.0783461
0.0764838
0.0750201
0.0737377
0.0723058
0.0711725
0.0698634
0.0685439
0.0674706
0.0663441
0.0653011
0.0643449
0.0633174
0.062459
0.0614622
0.0606058
0.0597224
0.0588341
0.05798
0.0571511
0.0563517
0.0555717
0.0547962
0.0540487
0.0533041
0.0525362
0.0517988
0.051024
0.0502926
0.0495653
0.0488247
0.0480629
0.0473567
0.0465292
0.0457536
0.0449769
0.0441803
0.0433227
0.0424901
0.0416353
0.0407689
0.0329413
0.0289202
0.0252188
0.0217783
0.0185752
0.0156335
0.0129901
0.0106032
0.00850705
0.00666652
0.00509124
0.00377236
0.00269659
0.00184188
0.0011954
0.000727295
0.000410099
0.000212634
0.000100716
4.38231e-05
1.77718e-05
6.9149e-06
2.66806e-06
1.05987e-06
4.46701e-07
1.9899e-07
9.32458e-08
4.57594e-08
2.32664e-08
1.18731e-08
5.8852e-09
2.86614e-09
1.36832e-09
6.43493e-10
2.97378e-10
1.35094e-10
6.03823e-11
2.65678e-11
1.14846e-11
4.87128e-12
2.02944e-12
8.331e-13
4.1733e-13
)
;

boundaryField
{
    inlet
    {
        type            fixedValue;
        value           uniform 0.2;
    }
    outlet
    {
        type            zeroGradient;
    }
    yzfaces
    {
        type            empty;
    }
}


// ************************************************************************* //
