/*--------------------------------*- C++ -*----------------------------------*\
| =========                 |                                                 |
| \\      /  F ield         | foam-extend: Open Source CFD                    |
|  \\    /   O peration     | Version:     5.0                                |
|   \\  /    A nd           | Web:         http://www.foam-extend.org         |
|    \\/     M anipulation  |                                                 |
\*---------------------------------------------------------------------------*/
FoamFile
{
    version     2.0;
    format      ascii;
    class       volScalarField;
    location    "4";
    object      H2O.gas;
}
// * * * * * * * * * * * * * * * * * * * * * * * * * * * * * * * * * * * * * //

dimensions      [0 0 0 0 0 0 0];

internalField   nonuniform List<scalar> 
100
(
0.000294613
0.00026423
0.000245631
0.00023338
0.000220533
0.000210067
0.000201232
0.000192553
0.000187072
0.00018042
0.00017645
0.000171443
0.000167302
0.000163431
0.000159648
0.000155745
0.000152874
0.000149241
0.000146385
0.000143882
0.000141088
0.000138877
0.000136322
0.000133748
0.000131654
0.000129455
0.00012742
0.000125554
0.000123549
0.000121874
0.00011993
0.000118258
0.000116535
0.000114801
0.000113135
0.000111517
0.000109958
0.000108435
0.000106922
0.000105464
0.000104011
0.000102512
0.000101074
9.95617e-05
9.81346e-05
9.67154e-05
9.52702e-05
9.37838e-05
9.24057e-05
9.0791e-05
8.92777e-05
8.77621e-05
8.62077e-05
8.45343e-05
8.29098e-05
8.12418e-05
7.95512e-05
0.0070126
0.0100593
0.0128555
0.015351
0.0175275
0.0193819
0.0209251
0.0220952
0.0229445
0.0233881
0.0234575
0.0231556
0.0224955
0.0214771
0.0201758
0.0186426
0.01697
0.0153295
0.0138502
0.0126351
0.0117065
0.0110622
0.0106519
0.0103898
0.0102388
0.0101429
0.0100809
0.0100431
0.0100222
0.0100155
0.0100094
0.0100101
0.0100004
0.0100011
0.00999522
0.00998915
0.00998973
0.00998665
0.00999553
0.00999303
0.00999889
0.00999685
0.00999778
)
;

boundaryField
{
    inlet
    {
        type            fixedValue;
        value           uniform 0;
    }
    outlet
    {
        type            zeroGradient;
    }
    yzfaces
    {
        type            empty;
    }
}


// ************************************************************************* //
