/*--------------------------------*- C++ -*----------------------------------*\
| =========                 |                                                 |
| \\      /  F ield         | foam-extend: Open Source CFD                    |
|  \\    /   O peration     | Version:     5.0                                |
|   \\  /    A nd           | Web:         http://www.foam-extend.org         |
|    \\/     M anipulation  |                                                 |
\*---------------------------------------------------------------------------*/
FoamFile
{
    version     2.0;
    format      ascii;
    class       volScalarField;
    location    "4";
    object      H2O.water;
}
// * * * * * * * * * * * * * * * * * * * * * * * * * * * * * * * * * * * * * //

dimensions      [0 0 0 0 0 0 0];

internalField   nonuniform List<scalar> 
100
(
0.0277384
0.0359784
0.0415661
0.0460218
0.0496758
0.0518844
0.0552127
0.057337
0.0599019
0.0608827
0.0626224
0.0637029
0.0641454
0.0658907
0.0663338
0.0672995
0.0683332
0.0696425
0.0704945
0.0711015
0.072112
0.0728978
0.0736169
0.0740471
0.0748022
0.0753375
0.0763171
0.076899
0.077408
0.0778091
0.0782342
0.078786
0.0790921
0.0797443
0.0797953
0.0805733
0.0811111
0.0814278
0.0817074
0.0822984
0.0825672
0.083206
0.0835773
0.083848
0.0844099
0.0847763
0.085275
0.0856813
0.0861382
0.0864924
0.0870871
0.087638
0.0881359
0.0885667
0.0891075
0.0894798
0.0900144
0.0926
0.093132
0.0936621
0.0942016
0.0948266
0.0953931
0.0961209
0.0967014
0.0974514
0.0982088
0.0991817
0.10012
0.101178
0.102229
0.103214
0.104585
0.105801
0.10684
0.107867
0.108585
0.109113
0.109598
0.109735
0.109905
0.109993
0.109966
0.109935
0.109968
0.109943
0.110065
0.109961
0.110076
0.109993
0.110035
0.110041
0.109985
0.110056
0.110052
0.110049
0.110091
0.110141
0.110074
0.110037
)
;

boundaryField
{
    inlet
    {
        type            fixedValue;
        value           uniform 0;
    }
    outlet
    {
        type            zeroGradient;
    }
    yzfaces
    {
        type            empty;
    }
}


// ************************************************************************* //
