/*--------------------------------*- C++ -*----------------------------------*\
| =========                 |                                                 |
| \\      /  F ield         | foam-extend: Open Source CFD                    |
|  \\    /   O peration     | Version:     5.0                                |
|   \\  /    A nd           | Web:         http://www.foam-extend.org         |
|    \\/     M anipulation  |                                                 |
\*---------------------------------------------------------------------------*/
FoamFile
{
    version     2.0;
    format      ascii;
    class       volScalarField;
    location    "4";
    object      Na.water;
}
// * * * * * * * * * * * * * * * * * * * * * * * * * * * * * * * * * * * * * //

dimensions      [0 0 0 0 0 0 0];

internalField   nonuniform List<scalar> 
100
(
0.00980822
0.0130211
0.0153394
0.0167411
0.0178083
0.0188188
0.0197285
0.0203519
0.0210686
0.0216855
0.0223677
0.0228027
0.0232147
0.0235646
0.0240225
0.0242828
0.0248431
0.0250133
0.0254389
0.0258098
0.0259888
0.0262946
0.0265268
0.0267627
0.0270488
0.0272729
0.0275115
0.0277484
0.0278729
0.0281101
0.0283017
0.0284946
0.0285504
0.0287665
0.0289888
0.0292155
0.0293747
0.0296217
0.0297199
0.0298311
0.0299422
0.0301218
0.0302637
0.0304454
0.0305973
0.0307371
0.0308524
0.031011
0.0312236
0.0313348
0.0315354
0.0316955
0.0318428
0.0319855
0.032161
0.0323122
0.0325108
0.0336407
0.0338193
0.0340512
0.0342703
0.0344698
0.0346818
0.0349361
0.0351804
0.0354808
0.0357692
0.0360798
0.0364233
0.0368015
0.0371865
0.0376135
0.0380543
0.0384462
0.0388493
0.0391867
0.0394908
0.0396621
0.0397863
0.0399101
0.0399469
0.0400189
0.0400377
0.0400217
0.0399911
0.0399889
0.040003
0.040006
0.0400305
0.0400108
0.0400293
0.0399981
0.0399787
0.0399725
0.0399647
0.039994
0.0399945
0.0400029
0.0399788
0.0399948
)
;

boundaryField
{
    inlet
    {
        type            fixedValue;
        value           uniform 0;
    }
    outlet
    {
        type            zeroGradient;
    }
    yzfaces
    {
        type            empty;
    }
}


// ************************************************************************* //
