/*--------------------------------*- C++ -*----------------------------------*\
| =========                 |                                                 |
| \\      /  F ield         | foam-extend: Open Source CFD                    |
|  \\    /   O peration     | Version:     5.0                                |
|   \\  /    A nd           | Web:         http://www.foam-extend.org         |
|    \\/     M anipulation  |                                                 |
\*---------------------------------------------------------------------------*/
FoamFile
{
    version     2.0;
    format      ascii;
    class       volScalarField;
    location    "6";
    object      alpha.gas;
}
// * * * * * * * * * * * * * * * * * * * * * * * * * * * * * * * * * * * * * //

dimensions      [0 0 0 0 0 0 0];

internalField   nonuniform List<scalar> 
100
(
0.160027
0.146042
0.136639
0.133161
0.127409
0.122
0.116246
0.11257
0.108516
0.105173
0.102145
0.0992069
0.0970642
0.0949719
0.0924733
0.0908775
0.0889026
0.0874488
0.0865569
0.0853789
0.0842259
0.0830578
0.0819729
0.0805468
0.0791119
0.0779371
0.0768895
0.0760485
0.0751574
0.0741764
0.0733558
0.0724035
0.0715383
0.0706223
0.0699474
0.0692327
0.0684005
0.067621
0.0669101
0.06609
0.0654288
0.0648509
0.0641277
0.0634673
0.0628103
0.0621263
0.0615401
0.060931
0.0602744
0.0597555
0.0590879
0.0586177
0.0581057
0.0575208
0.0569712
0.0563996
0.0558717
0.0553659
0.054845
0.0543468
0.0539103
0.0534387
0.0529719
0.0525384
0.0520367
0.0515412
0.0510309
0.0505329
0.0500569
0.0495515
0.0490517
0.048537
0.0479717
0.0474584
0.0468863
0.046366
0.0457308
0.0451755
0.0446144
0.0440418
0.0434722
0.0428945
0.0423098
0.0417558
0.0411666
0.040553
0.0399202
0.0392702
0.0386083
0.0379518
0.0372158
0.0364892
0.0357286
0.0349184
0.0340486
0.0331247
0.0321119
0.031015
0.0298355
0.0285441
)
;

boundaryField
{
    inlet
    {
        type            fixedValue;
        value           uniform 0.2;
    }
    outlet
    {
        type            zeroGradient;
    }
    yzfaces
    {
        type            empty;
    }
}


// ************************************************************************* //
