/*--------------------------------*- C++ -*----------------------------------*\
| =========                 |                                                 |
| \\      /  F ield         | foam-extend: Open Source CFD                    |
|  \\    /   O peration     | Version:     5.0                                |
|   \\  /    A nd           | Web:         http://www.foam-extend.org         |
|    \\/     M anipulation  |                                                 |
\*---------------------------------------------------------------------------*/
FoamFile
{
    version     2.0;
    format      ascii;
    class       volScalarField;
    location    "6";
    object      alpha.gas;
}
// * * * * * * * * * * * * * * * * * * * * * * * * * * * * * * * * * * * * * //

dimensions      [0 0 0 0 0 0 0];

internalField   nonuniform List<scalar> 
100
(
0.159807
0.146465
0.137398
0.132647
0.127411
0.122516
0.116252
0.112399
0.109129
0.105544
0.102614
0.0999902
0.0975007
0.0952713
0.0928643
0.0912788
0.0893968
0.0877501
0.0868888
0.0857917
0.0843835
0.0830708
0.0817972
0.0801738
0.079037
0.0777746
0.0768373
0.075955
0.0749821
0.0740756
0.0730631
0.0723036
0.0714715
0.070775
0.0700031
0.0692168
0.0683468
0.0675409
0.0667248
0.066039
0.0653491
0.0646089
0.063882
0.0631029
0.0624322
0.0618648
0.0612709
0.0606628
0.0600435
0.0595049
0.0589853
0.0583868
0.0579595
0.0573833
0.0568374
0.0563655
0.0558507
0.0553469
0.0548218
0.0542841
0.0538121
0.0533055
0.0528905
0.0524614
0.0519432
0.0513946
0.0508759
0.0503891
0.0499382
0.0494475
0.0489454
0.0484433
0.0478959
0.0473778
0.0468126
0.0462564
0.0456562
0.0451133
0.0445569
0.0439786
0.0434405
0.0428527
0.0422643
0.0416731
0.0410812
0.0404598
0.039831
0.0392061
0.0385518
0.0378898
0.0371851
0.0364342
0.0356493
0.0348011
0.0339209
0.0329634
0.0319646
0.0308849
0.029683
0.0283999
)
;

boundaryField
{
    inlet
    {
        type            fixedValue;
        value           uniform 0.2;
    }
    outlet
    {
        type            zeroGradient;
    }
    yzfaces
    {
        type            empty;
    }
}


// ************************************************************************* //
