/*--------------------------------*- C++ -*----------------------------------*\
| =========                 |                                                 |
| \\      /  F ield         | foam-extend: Open Source CFD                    |
|  \\    /   O peration     | Version:     5.0                                |
|   \\  /    A nd           | Web:         http://www.foam-extend.org         |
|    \\/     M anipulation  |                                                 |
\*---------------------------------------------------------------------------*/
FoamFile
{
    version     2.0;
    format      ascii;
    class       volScalarField;
    location    "6";
    object      alpha.gas;
}
// * * * * * * * * * * * * * * * * * * * * * * * * * * * * * * * * * * * * * //

dimensions      [0 0 0 0 0 0 0];

internalField   nonuniform List<scalar> 
100
(
0.159638
0.145365
0.137026
0.132186
0.126901
0.122366
0.116982
0.112674
0.108694
0.105487
0.102326
0.0994333
0.0969943
0.0951444
0.0926024
0.0909159
0.0889662
0.0874573
0.0865919
0.085605
0.0845105
0.0832974
0.0821053
0.0804762
0.0792232
0.0780487
0.0768081
0.0760496
0.075223
0.0742771
0.0731523
0.0722521
0.0713982
0.0707249
0.069901
0.0692256
0.0684391
0.0675122
0.0668374
0.0661431
0.0654893
0.0649012
0.064294
0.0635209
0.0627877
0.0620681
0.0615249
0.0610102
0.0604119
0.0597547
0.0590764
0.0584155
0.0578537
0.0573151
0.0567992
0.0562446
0.0557495
0.0551901
0.0547658
0.0543114
0.0538075
0.0532986
0.0528827
0.0523185
0.0518174
0.0513017
0.0508458
0.0503829
0.0498691
0.0494146
0.0489456
0.0484474
0.0478475
0.0472719
0.0467486
0.0462359
0.0456723
0.0451163
0.0445513
0.0439883
0.0434101
0.0428566
0.042277
0.0417064
0.0411105
0.0404994
0.0398881
0.0392502
0.0385558
0.0378746
0.0371673
0.0364263
0.0356489
0.0348218
0.0339345
0.0329864
0.0319692
0.0308507
0.0296629
0.0283756
)
;

boundaryField
{
    inlet
    {
        type            fixedValue;
        value           uniform 0.2;
    }
    outlet
    {
        type            zeroGradient;
    }
    yzfaces
    {
        type            empty;
    }
}


// ************************************************************************* //
