/*--------------------------------*- C++ -*----------------------------------*\
| =========                 |                                                 |
| \\      /  F ield         | foam-extend: Open Source CFD                    |
|  \\    /   O peration     | Version:     5.0                                |
|   \\  /    A nd           | Web:         http://www.foam-extend.org         |
|    \\/     M anipulation  |                                                 |
\*---------------------------------------------------------------------------*/
FoamFile
{
    version     2.0;
    format      ascii;
    class       volScalarField;
    location    "6";
    object      Cl.water;
}
// * * * * * * * * * * * * * * * * * * * * * * * * * * * * * * * * * * * * * //

dimensions      [0 0 0 0 0 0 0];

internalField   nonuniform List<scalar> 
100
(
0.00458811
0.00619356
0.00726464
0.00767088
0.008338
0.00896191
0.00961747
0.0100408
0.0105033
0.010887
0.0112434
0.0115749
0.0118218
0.0120592
0.0123407
0.012536
0.0127528
0.0129143
0.0130217
0.0131605
0.0132943
0.0134304
0.0135558
0.0137108
0.0138739
0.0140107
0.0141291
0.0142334
0.0143343
0.0144455
0.0145406
0.0146549
0.0147602
0.0148587
0.0149387
0.0150211
0.0151149
0.0152079
0.0152905
0.0153827
0.0154585
0.01553
0.0156116
0.0156892
0.0157632
0.0158375
0.0159008
0.0159677
0.0160417
0.0161096
0.0161836
0.0162413
0.0162999
0.0163684
0.0164287
0.0164946
0.0165564
0.016612
0.0166687
0.016732
0.0167824
0.0168337
0.016886
0.0169376
0.0169913
0.0170529
0.0171105
0.0171644
0.017221
0.0172754
0.017332
0.0173914
0.0174556
0.0175155
0.0175817
0.0176413
0.0177104
0.0177808
0.017842
0.0179043
0.0179691
0.0180344
0.0181
0.0181643
0.0182262
0.018242
0.0192323
0.0194451
0.0195361
0.0196137
0.0197069
0.0197967
0.0198858
0.0199728
0.0200639
0.0201784
0.0203073
0.0204539
0.0206037
0.0207858
)
;

boundaryField
{
    inlet
    {
        type            fixedValue;
        value           uniform 0;
    }
    outlet
    {
        type            zeroGradient;
    }
    yzfaces
    {
        type            empty;
    }
}


// ************************************************************************* //
