/*--------------------------------*- C++ -*----------------------------------*\
| =========                 |                                                 |
| \\      /  F ield         | foam-extend: Open Source CFD                    |
|  \\    /   O peration     | Version:     5.0                                |
|   \\  /    A nd           | Web:         http://www.foam-extend.org         |
|    \\/     M anipulation  |                                                 |
\*---------------------------------------------------------------------------*/
FoamFile
{
    version     2.0;
    format      ascii;
    class       volScalarField;
    location    "6";
    object      Cl.water;
}
// * * * * * * * * * * * * * * * * * * * * * * * * * * * * * * * * * * * * * //

dimensions      [0 0 0 0 0 0 0];

internalField   nonuniform List<scalar> 
100
(
0.00461637
0.00614924
0.00718409
0.00775051
0.00833587
0.00891145
0.00962016
0.0100576
0.0104381
0.0108371
0.011179
0.0114806
0.0117686
0.0120229
0.0122987
0.0124833
0.0126937
0.0128756
0.0129853
0.0131188
0.0132744
0.013424
0.0135755
0.0137555
0.0138941
0.0140349
0.0141443
0.0142525
0.0143543
0.0144577
0.0145742
0.01466
0.0147499
0.0148348
0.0149263
0.0150183
0.0151162
0.0152094
0.0153058
0.0153839
0.0154632
0.0155482
0.01563
0.0157125
0.0157948
0.0158622
0.0159311
0.0160025
0.016074
0.016135
0.0161897
0.0162562
0.0163117
0.0163751
0.0164453
0.0165018
0.0165585
0.016608
0.0166691
0.0167313
0.0167879
0.0168417
0.0168931
0.0169426
0.0169946
0.0170561
0.017118
0.0171701
0.0172255
0.0172828
0.0173362
0.0173977
0.0174577
0.0175215
0.0175861
0.0176558
0.017722
0.0177813
0.0178415
0.0179108
0.0179763
0.0180452
0.0181115
0.0181751
0.0182334
0.0182543
0.0192661
0.0194816
0.0195634
0.01964
0.0197286
0.0198143
0.0199096
0.0200081
0.020118
0.0202234
0.0203555
0.0204957
0.0206281
0.0207769
)
;

boundaryField
{
    inlet
    {
        type            fixedValue;
        value           uniform 0;
    }
    outlet
    {
        type            zeroGradient;
    }
    yzfaces
    {
        type            empty;
    }
}


// ************************************************************************* //
