/*--------------------------------*- C++ -*----------------------------------*\
| =========                 |                                                 |
| \\      /  F ield         | foam-extend: Open Source CFD                    |
|  \\    /   O peration     | Version:     5.0                                |
|   \\  /    A nd           | Web:         http://www.foam-extend.org         |
|    \\/     M anipulation  |                                                 |
\*---------------------------------------------------------------------------*/
FoamFile
{
    version     2.0;
    format      ascii;
    class       volScalarField;
    location    "6";
    object      Cl.water;
}
// * * * * * * * * * * * * * * * * * * * * * * * * * * * * * * * * * * * * * //

dimensions      [0 0 0 0 0 0 0];

internalField   nonuniform List<scalar> 
100
(
0.00463426
0.00627374
0.0072266
0.00778575
0.00839352
0.00892014
0.00953186
0.0100254
0.010482
0.0108515
0.0112126
0.0115466
0.0118277
0.0120443
0.0123279
0.0125304
0.01275
0.0129185
0.0130264
0.0131382
0.0132663
0.0134036
0.0135493
0.0137282
0.0138719
0.0140065
0.0141431
0.014235
0.0143331
0.0144374
0.01456
0.0146664
0.0147631
0.0148358
0.0149317
0.0150107
0.0151015
0.0152021
0.015287
0.0153654
0.0154455
0.015515
0.0155897
0.0156744
0.0157626
0.0158471
0.0159108
0.0159702
0.0160414
0.0161166
0.0161884
0.0162602
0.0163279
0.0163892
0.0164443
0.0165124
0.016576
0.016635
0.0166842
0.0167323
0.0167889
0.0168509
0.0169055
0.0169647
0.0170225
0.0170803
0.0171342
0.0171868
0.0172382
0.0172932
0.0173499
0.0174046
0.0174676
0.0175278
0.017591
0.0176545
0.0177188
0.0177845
0.0178489
0.0179133
0.0179785
0.0180437
0.0181099
0.0181759
0.0182437
0.0183082
0.0183759
0.0184492
0.0185299
0.0186125
0.0186974
0.0187791
0.018873
0.018969
0.0190709
0.0191802
0.0192833
0.0193484
0.0204429
0.0207538
)
;

boundaryField
{
    inlet
    {
        type            fixedValue;
        value           uniform 0;
    }
    outlet
    {
        type            zeroGradient;
    }
    yzfaces
    {
        type            empty;
    }
}


// ************************************************************************* //
