/*--------------------------------*- C++ -*----------------------------------*\
| =========                 |                                                 |
| \\      /  F ield         | foam-extend: Open Source CFD                    |
|  \\    /   O peration     | Version:     5.0                                |
|   \\  /    A nd           | Web:         http://www.foam-extend.org         |
|    \\/     M anipulation  |                                                 |
\*---------------------------------------------------------------------------*/
FoamFile
{
    version     2.0;
    format      ascii;
    class       volScalarField;
    location    "6";
    object      CO2.water;
}
// * * * * * * * * * * * * * * * * * * * * * * * * * * * * * * * * * * * * * //

dimensions      [0 0 0 0 0 0 0];

internalField   nonuniform List<scalar> 
100
(
0.00106009
0.00143496
0.00165398
0.00178111
0.0019199
0.00203902
0.00218043
0.00229357
0.00239812
0.00248234
0.00256535
0.00264134
0.0027054
0.00275398
0.00282075
0.00286504
0.00291625
0.00295588
0.00297861
0.00300453
0.00303328
0.00306514
0.00309645
0.00313924
0.00317215
0.00320299
0.00323558
0.0032555
0.00327721
0.00330205
0.0033316
0.00335524
0.00337767
0.00339535
0.00341699
0.00343473
0.00345539
0.00347973
0.00349745
0.00351569
0.00353286
0.00354831
0.00356425
0.00358456
0.00360382
0.00362272
0.00363699
0.0036505
0.00366622
0.00368348
0.00370129
0.00371865
0.00373341
0.00374755
0.0037611
0.00377567
0.00378867
0.00380337
0.00381451
0.00382644
0.00383968
0.00385304
0.00386397
0.00387879
0.00389195
0.00390549
0.00391747
0.00392962
0.00394312
0.00395506
0.00396738
0.00398046
0.00399622
0.00401133
0.00402508
0.00403854
0.00405335
0.00406795
0.00408279
0.00409758
0.00411276
0.0041273
0.00414252
0.00415751
0.00417316
0.00418921
0.00420527
0.00422202
0.00424026
0.00425815
0.00427673
0.00429619
0.00431661
0.00433833
0.00436163
0.00438654
0.00441325
0.00444263
0.000604118
8.38502e-05
)
;

boundaryField
{
    inlet
    {
        type            fixedValue;
        value           uniform 0;
    }
    outlet
    {
        type            zeroGradient;
    }
    yzfaces
    {
        type            empty;
    }
}


// ************************************************************************* //
