/*--------------------------------*- C++ -*----------------------------------*\
| =========                 |                                                 |
| \\      /  F ield         | foam-extend: Open Source CFD                    |
|  \\    /   O peration     | Version:     5.0                                |
|   \\  /    A nd           | Web:         http://www.foam-extend.org         |
|    \\/     M anipulation  |                                                 |
\*---------------------------------------------------------------------------*/
FoamFile
{
    version     2.0;
    format      ascii;
    class       volScalarField;
    location    "6";
    object      CO2.water;
}
// * * * * * * * * * * * * * * * * * * * * * * * * * * * * * * * * * * * * * //

dimensions      [0 0 0 0 0 0 0];

internalField   nonuniform List<scalar> 
100
(
0.00104988
0.00141718
0.00166415
0.0017555
0.00190656
0.00204862
0.00219975
0.0022963
0.00240278
0.00249058
0.00257012
0.00264728
0.00270356
0.00275852
0.00282414
0.00286605
0.00291792
0.00295611
0.00297953
0.00301047
0.00304075
0.00307143
0.00309993
0.00313738
0.00317507
0.00320593
0.00323344
0.00325553
0.00327893
0.0033047
0.00332625
0.00335126
0.00337399
0.00339805
0.00341577
0.00343454
0.0034564
0.00347687
0.00349554
0.00351708
0.00353445
0.00354963
0.00356862
0.00358597
0.00360322
0.00362119
0.00363658
0.00365258
0.00366983
0.00368346
0.00370099
0.00371334
0.00372679
0.00374215
0.00375659
0.0037716
0.00378546
0.00379875
0.00381243
0.00382551
0.00383698
0.00384936
0.00386162
0.00387301
0.00388619
0.0038992
0.00391261
0.00392568
0.00393819
0.00395146
0.00396459
0.00397811
0.00399295
0.00400644
0.00402146
0.00403513
0.00405181
0.0040664
0.00408113
0.00409617
0.00411113
0.0041263
0.00414166
0.00415621
0.00417169
0.0041878
0.000476265
5.78911e-05
7.41939e-06
9.89559e-07
1.34613e-07
1.8467e-08
2.58157e-09
4.07276e-10
6.98389e-11
1.26027e-11
2.32071e-12
4.3587e-13
8.34136e-14
1.81226e-14
)
;

boundaryField
{
    inlet
    {
        type            fixedValue;
        value           uniform 0;
    }
    outlet
    {
        type            zeroGradient;
    }
    yzfaces
    {
        type            empty;
    }
}


// ************************************************************************* //
