/*--------------------------------*- C++ -*----------------------------------*\
| =========                 |                                                 |
| \\      /  F ield         | foam-extend: Open Source CFD                    |
|  \\    /   O peration     | Version:     5.0                                |
|   \\  /    A nd           | Web:         http://www.foam-extend.org         |
|    \\/     M anipulation  |                                                 |
\*---------------------------------------------------------------------------*/
FoamFile
{
    version     2.0;
    format      ascii;
    class       volScalarField;
    location    "6";
    object      CO2.gas;
}
// * * * * * * * * * * * * * * * * * * * * * * * * * * * * * * * * * * * * * //

dimensions      [0 0 0 0 0 0 0];

internalField   nonuniform List<scalar> 
100
(
0.159715
0.145758
0.136373
0.132902
0.127161
0.121763
0.11602
0.112351
0.108305
0.104968
0.101946
0.0990137
0.0968751
0.0947869
0.0922933
0.0907006
0.0887295
0.0872785
0.0863883
0.0852126
0.0840619
0.082896
0.0818132
0.0803899
0.0789578
0.0777853
0.0767397
0.0759004
0.075011
0.0740319
0.073213
0.0722625
0.071399
0.0704847
0.0698111
0.0690978
0.0682673
0.0674893
0.0667798
0.0659613
0.0653013
0.0647246
0.0640028
0.0633437
0.062688
0.0620053
0.0614203
0.0608124
0.060157
0.0596391
0.0589729
0.0585035
0.0579925
0.0574087
0.0568602
0.0562898
0.0557629
0.055258
0.0547382
0.0542409
0.0538053
0.0533347
0.0528688
0.052436
0.0519353
0.0514409
0.0509315
0.0504345
0.0499595
0.049455
0.0489562
0.0484425
0.0478783
0.047366
0.046795
0.0462757
0.0456418
0.0450875
0.0445275
0.0439561
0.0433876
0.042811
0.0422274
0.0416745
0.0410865
0.0404741
0.0329803
0.0276522
0.0235033
0.0201139
0.0171918
0.0146439
0.0123919
0.0103831
0.00859958
0.00702883
0.00565553
0.00446784
0.00345495
0.00260549
)
;

boundaryField
{
    inlet
    {
        type            fixedValue;
        value           uniform 0.2;
    }
    outlet
    {
        type            zeroGradient;
    }
    yzfaces
    {
        type            empty;
    }
}


// ************************************************************************* //
