/*--------------------------------*- C++ -*----------------------------------*\
| =========                 |                                                 |
| \\      /  F ield         | foam-extend: Open Source CFD                    |
|  \\    /   O peration     | Version:     5.0                                |
|   \\  /    A nd           | Web:         http://www.foam-extend.org         |
|    \\/     M anipulation  |                                                 |
\*---------------------------------------------------------------------------*/
FoamFile
{
    version     2.0;
    format      ascii;
    class       volScalarField;
    location    "6";
    object      CO2.gas;
}
// * * * * * * * * * * * * * * * * * * * * * * * * * * * * * * * * * * * * * //

dimensions      [0 0 0 0 0 0 0];

internalField   nonuniform List<scalar> 
100
(
0.159327
0.145082
0.136759
0.131928
0.126654
0.122128
0.116754
0.112455
0.108482
0.105282
0.102127
0.0992397
0.0968055
0.0949591
0.0924221
0.0907389
0.088793
0.087287
0.0864233
0.0854383
0.0843459
0.0831352
0.0819454
0.0803195
0.0790689
0.0778967
0.0766585
0.0759015
0.0750765
0.0741324
0.0730098
0.0721114
0.0712592
0.0705871
0.0697649
0.0690908
0.0683058
0.0673807
0.0667072
0.0660143
0.0653617
0.0647749
0.0641688
0.0633972
0.0626654
0.0619473
0.0614051
0.0608914
0.0602942
0.0596384
0.0589613
0.0583017
0.0577411
0.0572035
0.0566886
0.0561351
0.0556409
0.0550826
0.0546592
0.0542056
0.0537027
0.0531948
0.0527797
0.0522166
0.0517165
0.0512018
0.0507468
0.0502848
0.0497719
0.0493183
0.0488503
0.048353
0.0477543
0.0471799
0.0466576
0.0461459
0.0455833
0.0450285
0.0444646
0.0439026
0.0433256
0.0427731
0.0421946
0.0416251
0.0410304
0.0404205
0.0398104
0.0391738
0.0384807
0.0378009
0.0370949
0.0363554
0.0355795
0.0347539
0.0338684
0.0329222
0.0319069
0.0307906
0.0186801
0.0119986
)
;

boundaryField
{
    inlet
    {
        type            fixedValue;
        value           uniform 0.2;
    }
    outlet
    {
        type            zeroGradient;
    }
    yzfaces
    {
        type            empty;
    }
}


// ************************************************************************* //
