/*--------------------------------*- C++ -*----------------------------------*\
| =========                 |                                                 |
| \\      /  F ield         | foam-extend: Open Source CFD                    |
|  \\    /   O peration     | Version:     5.0                                |
|   \\  /    A nd           | Web:         http://www.foam-extend.org         |
|    \\/     M anipulation  |                                                 |
\*---------------------------------------------------------------------------*/
FoamFile
{
    version     2.0;
    format      ascii;
    class       volScalarField;
    location    "6";
    object      CO2.gas;
}
// * * * * * * * * * * * * * * * * * * * * * * * * * * * * * * * * * * * * * //

dimensions      [0 0 0 0 0 0 0];

internalField   nonuniform List<scalar> 
100
(
0.159495
0.14618
0.137131
0.132388
0.127162
0.122278
0.116026
0.11218
0.108917
0.105338
0.102414
0.0997955
0.0973108
0.0950858
0.0926835
0.091101
0.0892227
0.0875793
0.0867196
0.0856246
0.0842192
0.082909
0.0816379
0.0800177
0.0788831
0.0776231
0.0766876
0.0758071
0.0748361
0.0739313
0.0729209
0.0721628
0.0713323
0.0706372
0.0698668
0.069082
0.0682137
0.0674094
0.0665948
0.0659104
0.0652218
0.0644831
0.0637576
0.06298
0.0623106
0.0617443
0.0611516
0.0605446
0.0599265
0.059389
0.0588705
0.0582731
0.0578467
0.0572716
0.0567267
0.0562557
0.0557419
0.0552391
0.054715
0.0541784
0.0537073
0.0532017
0.0527875
0.0523592
0.0518421
0.0512945
0.0507768
0.0502909
0.049841
0.0493512
0.04885
0.048349
0.0478026
0.0472855
0.0467214
0.0461663
0.0455673
0.0450254
0.0444701
0.043893
0.0433559
0.0427693
0.042182
0.0415919
0.0410012
0.040381
0.0330766
0.0277691
0.023566
0.0201142
0.0171568
0.0145603
0.0122691
0.0102381
0.0084492
0.00687202
0.0055141
0.00434141
0.00333787
0.0025022
)
;

boundaryField
{
    inlet
    {
        type            fixedValue;
        value           uniform 0.2;
    }
    outlet
    {
        type            zeroGradient;
    }
    yzfaces
    {
        type            empty;
    }
}


// ************************************************************************* //
