/*--------------------------------*- C++ -*----------------------------------*\
| =========                 |                                                 |
| \\      /  F ield         | foam-extend: Open Source CFD                    |
|  \\    /   O peration     | Version:     5.0                                |
|   \\  /    A nd           | Web:         http://www.foam-extend.org         |
|    \\/     M anipulation  |                                                 |
\*---------------------------------------------------------------------------*/
FoamFile
{
    version     2.0;
    format      ascii;
    class       volScalarField;
    location    "6";
    object      CO2.water;
}
// * * * * * * * * * * * * * * * * * * * * * * * * * * * * * * * * * * * * * //

dimensions      [0 0 0 0 0 0 0];

internalField   nonuniform List<scalar> 
100
(
0.00105566
0.00140606
0.00164421
0.001769
0.00190653
0.00203508
0.00219959
0.00230079
0.00238668
0.00248085
0.0025578
0.00262671
0.0026921
0.00275065
0.00281387
0.00285551
0.00290494
0.00294819
0.00297081
0.00299963
0.00303661
0.00307109
0.00310454
0.00314718
0.00317704
0.0032102
0.00323481
0.00325798
0.00328354
0.00330735
0.00333394
0.00335389
0.00337574
0.00339403
0.00341431
0.00343496
0.00345781
0.00347898
0.00350041
0.00351843
0.00353654
0.00355598
0.00357508
0.00359554
0.00361315
0.00362806
0.00364366
0.00365963
0.00367589
0.00369004
0.00370369
0.0037194
0.00373063
0.00374576
0.0037601
0.0037725
0.00378602
0.00379925
0.00381304
0.00382716
0.00383956
0.00385286
0.00386376
0.00387503
0.00388864
0.00390305
0.00391668
0.00392946
0.0039413
0.00395419
0.00396738
0.00398057
0.00399494
0.00400855
0.0040234
0.004038
0.00405377
0.00406803
0.00408264
0.00409783
0.00411196
0.0041274
0.00414286
0.00415838
0.00417393
0.00419025
0.000524058
6.80874e-05
9.26057e-06
1.34018e-06
2.11749e-07
3.77368e-08
7.72903e-09
1.79763e-09
4.62058e-10
1.26686e-10
3.62157e-11
1.05918e-11
3.16179e-12
1.10987e-12
)
;

boundaryField
{
    inlet
    {
        type            fixedValue;
        value           uniform 0;
    }
    outlet
    {
        type            zeroGradient;
    }
    yzfaces
    {
        type            empty;
    }
}


// ************************************************************************* //
