/*--------------------------------*- C++ -*----------------------------------*\
| =========                 |                                                 |
| \\      /  F ield         | foam-extend: Open Source CFD                    |
|  \\    /   O peration     | Version:     5.0                                |
|   \\  /    A nd           | Web:         http://www.foam-extend.org         |
|    \\/     M anipulation  |                                                 |
\*---------------------------------------------------------------------------*/
FoamFile
{
    version     2.0;
    format      ascii;
    class       volScalarField;
    location    "6";
    object      H2O.gas;
}
// * * * * * * * * * * * * * * * * * * * * * * * * * * * * * * * * * * * * * //

dimensions      [0 0 0 0 0 0 0];

internalField   nonuniform List<scalar> 
100
(
0.000311647
0.000284412
0.0002661
0.000259327
0.000248126
0.000237592
0.000226386
0.000219227
0.000211332
0.000204822
0.000198924
0.000193203
0.00018903
0.000184955
0.000180089
0.000176981
0.000173135
0.000170304
0.000168567
0.000166273
0.000164027
0.000161753
0.00015964
0.000156862
0.000154068
0.00015178
0.00014974
0.000148102
0.000146367
0.000144456
0.000142858
0.000141004
0.000139319
0.000137535
0.00013622
0.000134829
0.000133208
0.00013169
0.000130305
0.000128708
0.000127421
0.000126295
0.000124887
0.000123601
0.000122321
0.000120989
0.000119848
0.000118661
0.000117383
0.000116372
0.000115072
0.000114156
0.000113159
0.00011202
0.00011095
0.000109837
0.000108809
0.000107823
0.000106809
0.000105839
0.000104989
0.00010407
0.000103161
0.000102317
0.00010134
0.000100375
9.93811e-05
9.84114e-05
9.74844e-05
9.65001e-05
9.55268e-05
9.45244e-05
9.34235e-05
9.24238e-05
9.13096e-05
9.02965e-05
8.90595e-05
8.79779e-05
8.68853e-05
8.57702e-05
8.46609e-05
8.35358e-05
8.23971e-05
8.13183e-05
8.01708e-05
7.89759e-05
0.00692427
0.0116081
0.0150924
0.0178118
0.0200051
0.0218318
0.0233207
0.024507
0.0254041
0.0260492
0.026421
0.0265321
0.0263722
0.0259568
)
;

boundaryField
{
    inlet
    {
        type            fixedValue;
        value           uniform 0;
    }
    outlet
    {
        type            zeroGradient;
    }
    yzfaces
    {
        type            empty;
    }
}


// ************************************************************************* //
