/*--------------------------------*- C++ -*----------------------------------*\
| =========                 |                                                 |
| \\      /  F ield         | foam-extend: Open Source CFD                    |
|  \\    /   O peration     | Version:     5.0                                |
|   \\  /    A nd           | Web:         http://www.foam-extend.org         |
|    \\/     M anipulation  |                                                 |
\*---------------------------------------------------------------------------*/
FoamFile
{
    version     2.0;
    format      ascii;
    class       volScalarField;
    location    "6";
    object      H2O.water;
}
// * * * * * * * * * * * * * * * * * * * * * * * * * * * * * * * * * * * * * //

dimensions      [0 0 0 0 0 0 0];

internalField   nonuniform List<scalar> 
100
(
0.0300329
0.0406524
0.046862
0.0504587
0.0543883
0.0577537
0.0617701
0.0649743
0.0679475
0.0703244
0.0726748
0.0748283
0.076644
0.0780085
0.0799198
0.08116
0.082619
0.0837453
0.0843797
0.0851178
0.0859282
0.0868369
0.0877033
0.0889321
0.0898616
0.0907395
0.091674
0.0922314
0.092838
0.0935435
0.0943881
0.095056
0.0956896
0.0961906
0.0968073
0.0973076
0.0978881
0.0985882
0.0990821
0.0996057
0.100087
0.100519
0.100966
0.101551
0.102098
0.102636
0.103035
0.103415
0.103861
0.104353
0.104857
0.105357
0.105774
0.106167
0.106549
0.106964
0.107331
0.107753
0.108063
0.108402
0.108779
0.109157
0.109458
0.109888
0.110258
0.110646
0.110982
0.111324
0.111712
0.112048
0.11239
0.11276
0.113214
0.113645
0.114032
0.114405
0.11483
0.115245
0.115665
0.116085
0.116517
0.116924
0.117358
0.117781
0.118223
0.11868
0.119132
0.119608
0.120129
0.120634
0.12116
0.121713
0.122289
0.122906
0.123566
0.124277
0.125061
0.126022
0.128966
0.130024
)
;

boundaryField
{
    inlet
    {
        type            fixedValue;
        value           uniform 0;
    }
    outlet
    {
        type            zeroGradient;
    }
    yzfaces
    {
        type            empty;
    }
}


// ************************************************************************* //
