/*--------------------------------*- C++ -*----------------------------------*\
| =========                 |                                                 |
| \\      /  F ield         | foam-extend: Open Source CFD                    |
|  \\    /   O peration     | Version:     5.0                                |
|   \\  /    A nd           | Web:         http://www.foam-extend.org         |
|    \\/     M anipulation  |                                                 |
\*---------------------------------------------------------------------------*/
FoamFile
{
    version     2.0;
    format      ascii;
    class       volScalarField;
    location    "6";
    object      H2O.gas;
}
// * * * * * * * * * * * * * * * * * * * * * * * * * * * * * * * * * * * * * //

dimensions      [0 0 0 0 0 0 0];

internalField   nonuniform List<scalar> 
100
(
0.000311219
0.000285237
0.000267579
0.000258325
0.000248128
0.000238597
0.000226398
0.000218894
0.000212526
0.000205543
0.000199838
0.000194728
0.00018988
0.000185538
0.000180851
0.000177763
0.000174098
0.000170891
0.000169213
0.000167077
0.000164334
0.000161778
0.000159298
0.000156136
0.000153922
0.000151464
0.000149638
0.00014792
0.000146026
0.00014426
0.000142288
0.000140809
0.000139189
0.000137832
0.000136329
0.000134798
0.000133103
0.000131534
0.000129945
0.000128609
0.000127265
0.000125824
0.000124408
0.000122891
0.000121585
0.00012048
0.000119323
0.000118139
0.000116933
0.000115884
0.000114872
0.000113707
0.000112875
0.000111752
0.000110689
0.00010977
0.000108768
0.000107786
0.000106764
0.000105717
0.000104798
0.000103811
0.000103003
0.000102167
0.000101158
0.000100089
9.90793e-05
9.81312e-05
9.72532e-05
9.62976e-05
9.53197e-05
9.4342e-05
9.32759e-05
9.22669e-05
9.11661e-05
9.0083e-05
8.89141e-05
8.78568e-05
8.67732e-05
8.56471e-05
8.45991e-05
8.34544e-05
8.23085e-05
8.11571e-05
8.00045e-05
7.87943e-05
0.00681876
0.0115094
0.0150219
0.0177945
0.0200482
0.0218861
0.0234001
0.0245836
0.0254903
0.0260981
0.0264712
0.0265758
0.0263579
0.0259065
)
;

boundaryField
{
    inlet
    {
        type            fixedValue;
        value           uniform 0;
    }
    outlet
    {
        type            zeroGradient;
    }
    yzfaces
    {
        type            empty;
    }
}


// ************************************************************************* //
