/*--------------------------------*- C++ -*----------------------------------*\
| =========                 |                                                 |
| \\      /  F ield         | foam-extend: Open Source CFD                    |
|  \\    /   O peration     | Version:     5.0                                |
|   \\  /    A nd           | Web:         http://www.foam-extend.org         |
|    \\/     M anipulation  |                                                 |
\*---------------------------------------------------------------------------*/
FoamFile
{
    version     2.0;
    format      ascii;
    class       volScalarField;
    location    "6";
    object      H2O.water;
}
// * * * * * * * * * * * * * * * * * * * * * * * * * * * * * * * * * * * * * //

dimensions      [0 0 0 0 0 0 0];

internalField   nonuniform List<scalar> 
100
(
0.0299059
0.0398329
0.0465972
0.0500874
0.0540087
0.0576284
0.0623101
0.0651841
0.0676022
0.0702886
0.0724596
0.0744143
0.0762739
0.0779305
0.0797199
0.080896
0.0823049
0.0835429
0.0841637
0.08497
0.0860307
0.08701
0.0879473
0.0891709
0.0900057
0.0909489
0.0916451
0.0922904
0.0930249
0.0936946
0.0944535
0.0950122
0.0956394
0.0961517
0.0967245
0.0973102
0.0979635
0.0985626
0.0991706
0.0996825
0.100191
0.100739
0.101279
0.101866
0.102362
0.102779
0.103229
0.103681
0.104142
0.104539
0.104926
0.105382
0.105683
0.106123
0.106527
0.106874
0.107256
0.107636
0.108025
0.108427
0.108774
0.109157
0.109459
0.109774
0.110163
0.110572
0.110963
0.111324
0.111657
0.112019
0.112395
0.112765
0.113177
0.113558
0.113978
0.11439
0.114843
0.115245
0.115658
0.11609
0.116491
0.116929
0.117368
0.117808
0.118269
0.118837
0.121376
0.122054
0.122458
0.122908
0.123447
0.123992
0.124617
0.125267
0.125931
0.12662
0.127429
0.128303
0.129134
0.130094
)
;

boundaryField
{
    inlet
    {
        type            fixedValue;
        value           uniform 0;
    }
    outlet
    {
        type            zeroGradient;
    }
    yzfaces
    {
        type            empty;
    }
}


// ************************************************************************* //
