/*--------------------------------*- C++ -*----------------------------------*\
| =========                 |                                                 |
| \\      /  F ield         | foam-extend: Open Source CFD                    |
|  \\    /   O peration     | Version:     5.0                                |
|   \\  /    A nd           | Web:         http://www.foam-extend.org         |
|    \\/     M anipulation  |                                                 |
\*---------------------------------------------------------------------------*/
FoamFile
{
    version     2.0;
    format      ascii;
    class       volScalarField;
    location    "6";
    object      H2O.gas;
}
// * * * * * * * * * * * * * * * * * * * * * * * * * * * * * * * * * * * * * //

dimensions      [0 0 0 0 0 0 0];

internalField   nonuniform List<scalar> 
100
(
0.00031089
0.000283094
0.000266854
0.000257428
0.000247137
0.000238304
0.000227819
0.00021943
0.000211678
0.000205433
0.000199278
0.000193643
0.000188894
0.000185291
0.000180341
0.000177056
0.000173259
0.000170321
0.000168635
0.000166713
0.000164582
0.000162219
0.000159898
0.000156725
0.000154285
0.000151998
0.000149582
0.000148104
0.000146495
0.000144652
0.000142462
0.000140709
0.000139046
0.000137735
0.00013613
0.000134815
0.000133283
0.000131478
0.000130164
0.000128812
0.000127538
0.000126393
0.000125211
0.000123705
0.000122277
0.000120876
0.000119818
0.000118816
0.00011765
0.000116371
0.00011505
0.000113762
0.000112668
0.00011162
0.000110615
0.000109535
0.00010857
0.000107481
0.000106655
0.00010577
0.000104789
0.000103798
0.000102987
0.000101889
0.000100913
9.99086e-05
9.90207e-05
9.81192e-05
9.71185e-05
9.62334e-05
9.53201e-05
9.43498e-05
9.31816e-05
9.20607e-05
9.10416e-05
9.00431e-05
8.89454e-05
8.78628e-05
8.67624e-05
8.56659e-05
8.45399e-05
8.34619e-05
8.23332e-05
8.12219e-05
8.00614e-05
7.88714e-05
7.76809e-05
7.64387e-05
7.50863e-05
7.37598e-05
7.23822e-05
7.09392e-05
6.94252e-05
6.78144e-05
6.60864e-05
6.42401e-05
6.22591e-05
6.00807e-05
0.0110024
0.0163749
)
;

boundaryField
{
    inlet
    {
        type            fixedValue;
        value           uniform 0;
    }
    outlet
    {
        type            zeroGradient;
    }
    yzfaces
    {
        type            empty;
    }
}


// ************************************************************************* //
