/*--------------------------------*- C++ -*----------------------------------*\
| =========                 |                                                 |
| \\      /  F ield         | foam-extend: Open Source CFD                    |
|  \\    /   O peration     | Version:     5.0                                |
|   \\  /    A nd           | Web:         http://www.foam-extend.org         |
|    \\/     M anipulation  |                                                 |
\*---------------------------------------------------------------------------*/
FoamFile
{
    version     2.0;
    format      ascii;
    class       volScalarField;
    location    "6";
    object      Na.water;
}
// * * * * * * * * * * * * * * * * * * * * * * * * * * * * * * * * * * * * * //

dimensions      [0 0 0 0 0 0 0];

internalField   nonuniform List<scalar> 
100
(
0.00461545
0.00614644
0.00717638
0.00774644
0.00833834
0.00890885
0.00961774
0.0100582
0.010444
0.0108498
0.0111896
0.0114882
0.0117647
0.0120246
0.0123032
0.0124863
0.0126996
0.0128831
0.0129913
0.0131198
0.0132747
0.0134241
0.0135755
0.0137525
0.0138861
0.0140314
0.0141384
0.0142441
0.0143552
0.0144648
0.0145752
0.0146703
0.0147634
0.0148444
0.0149318
0.0150199
0.0151157
0.0152081
0.0152985
0.0153762
0.0154599
0.0155483
0.0156344
0.0157233
0.015798
0.0158659
0.0159252
0.0159941
0.0160645
0.016131
0.0161953
0.016255
0.016315
0.0163723
0.0164298
0.0164865
0.0165485
0.0166099
0.0166715
0.0167303
0.016786
0.016843
0.0168933
0.0169471
0.0170104
0.0170741
0.017126
0.0171875
0.0172384
0.0172966
0.0173563
0.017413
0.0174745
0.0175338
0.0176
0.0176596
0.0177254
0.0177925
0.0178606
0.0179228
0.0179803
0.0180458
0.0181137
0.0181856
0.0182424
0.0182589
0.0192614
0.0194866
0.0195693
0.0196416
0.0197267
0.0198144
0.0199154
0.0200212
0.020122
0.0202272
0.0203597
0.0204931
0.0206281
0.020782
)
;

boundaryField
{
    inlet
    {
        type            fixedValue;
        value           uniform 0;
    }
    outlet
    {
        type            zeroGradient;
    }
    yzfaces
    {
        type            empty;
    }
}


// ************************************************************************* //
