/*--------------------------------*- C++ -*----------------------------------*\
| =========                 |                                                 |
| \\      /  F ield         | foam-extend: Open Source CFD                    |
|  \\    /   O peration     | Version:     5.0                                |
|   \\  /    A nd           | Web:         http://www.foam-extend.org         |
|    \\/     M anipulation  |                                                 |
\*---------------------------------------------------------------------------*/
FoamFile
{
    version     2.0;
    format      ascii;
    class       volScalarField;
    location    "6";
    object      Na.water;
}
// * * * * * * * * * * * * * * * * * * * * * * * * * * * * * * * * * * * * * //

dimensions      [0 0 0 0 0 0 0];

internalField   nonuniform List<scalar> 
100
(
0.00463476
0.00627384
0.00723141
0.00778874
0.00839675
0.00892119
0.00953557
0.0100326
0.0104789
0.0108547
0.0112208
0.0115504
0.0118285
0.0120488
0.0123292
0.0125286
0.0127485
0.012923
0.0130235
0.0131345
0.0132618
0.0133969
0.0135456
0.0137243
0.0138711
0.0140023
0.0141392
0.0142286
0.0143288
0.01444
0.014568
0.0146703
0.0147714
0.0148534
0.0149429
0.0150214
0.0151158
0.0152179
0.0152961
0.0153701
0.0154458
0.0155165
0.0155858
0.0156687
0.0157477
0.0158258
0.0158926
0.0159538
0.0160197
0.0160918
0.0161772
0.016249
0.0163112
0.0163809
0.0164468
0.016503
0.0165549
0.0166184
0.0166722
0.0167284
0.0167847
0.0168408
0.0168904
0.0169498
0.0170104
0.0170668
0.0171205
0.0171771
0.0172378
0.0172896
0.0173472
0.0174075
0.017475
0.0175444
0.0176032
0.0176656
0.0177252
0.0177864
0.0178516
0.0179158
0.0179813
0.0180485
0.0181124
0.0181794
0.0182495
0.0183228
0.0183985
0.0184704
0.0185446
0.0186204
0.0186989
0.0187856
0.0188726
0.0189652
0.0190671
0.01917
0.0192736
0.0193361
0.0204365
0.0207499
)
;

boundaryField
{
    inlet
    {
        type            fixedValue;
        value           uniform 0;
    }
    outlet
    {
        type            zeroGradient;
    }
    yzfaces
    {
        type            empty;
    }
}


// ************************************************************************* //
