/*--------------------------------*- C++ -*----------------------------------*\
| =========                 |                                                 |
| \\      /  F ield         | foam-extend: Open Source CFD                    |
|  \\    /   O peration     | Version:     5.0                                |
|   \\  /    A nd           | Web:         http://www.foam-extend.org         |
|    \\/     M anipulation  |                                                 |
\*---------------------------------------------------------------------------*/
FoamFile
{
    version     2.0;
    format      ascii;
    class       volScalarField;
    location    "6";
    object      Na.water;
}
// * * * * * * * * * * * * * * * * * * * * * * * * * * * * * * * * * * * * * //

dimensions      [0 0 0 0 0 0 0];

internalField   nonuniform List<scalar> 
100
(
0.0045867
0.00619255
0.00727069
0.00768176
0.00834744
0.00895989
0.00961345
0.0100405
0.0105068
0.010888
0.0112387
0.0115672
0.0118141
0.0120575
0.0123375
0.012535
0.0127595
0.0129261
0.0130288
0.0131652
0.0132928
0.0134251
0.0135589
0.0137244
0.0138832
0.0140204
0.014142
0.0142328
0.0143404
0.014448
0.0145451
0.0146491
0.0147427
0.0148504
0.0149267
0.0150117
0.0151063
0.0151944
0.0152789
0.0153686
0.0154436
0.0155112
0.0155905
0.0156662
0.0157469
0.015824
0.0158953
0.0159694
0.0160454
0.0161069
0.0161751
0.0162289
0.0162855
0.0163543
0.0164198
0.016481
0.016542
0.0166037
0.0166655
0.0167185
0.0167737
0.016826
0.0168809
0.016932
0.0169897
0.0170429
0.0171019
0.0171593
0.0172153
0.0172775
0.0173356
0.0173949
0.0174573
0.0175184
0.0175808
0.0176459
0.017713
0.0177763
0.0178436
0.0179108
0.0179787
0.0180453
0.0181112
0.018178
0.0182461
0.0182541
0.0192382
0.0194457
0.0195383
0.019615
0.0197058
0.0197963
0.0198831
0.0199705
0.0200587
0.0201705
0.0202962
0.0204445
0.0205911
0.0207646
)
;

boundaryField
{
    inlet
    {
        type            fixedValue;
        value           uniform 0;
    }
    outlet
    {
        type            zeroGradient;
    }
    yzfaces
    {
        type            empty;
    }
}


// ************************************************************************* //
