/*--------------------------------*- C++ -*----------------------------------*\
| =========                 |                                                 |
| \\      /  F ield         | foam-extend: Open Source CFD                    |
|  \\    /   O peration     | Version:     5.0                                |
|   \\  /    A nd           | Web:         http://www.foam-extend.org         |
|    \\/     M anipulation  |                                                 |
\*---------------------------------------------------------------------------*/
FoamFile
{
    version     2.0;
    format      ascii;
    class       volScalarField;
    location    "6";
    object      Ns;
}
// * * * * * * * * * * * * * * * * * * * * * * * * * * * * * * * * * * * * * //

dimensions      [0 -3 0 0 1 0 0];

internalField   nonuniform List<scalar> 
100
(
64.2791
72.7602
91.1271
169.217
112.66
103.012
79.3145
54.4746
33.43
59.4691
42.2687
59.5984
35.5832
42.4687
48.8945
19.5589
47.3021
51.8912
40.0921
69.3622
55.1224
62.6898
57.4663
37.5151
55.2821
46.1213
61.3738
54.968
63.0518
48.7974
55.193
39.092
43.9201
57.4525
42.5655
47.4353
61.651
48.1606
57.2557
60.5533
59.6005
47.3799
57.502
42.3699
56.0969
70.8598
51.401
63.1758
46.5522
62.8721
57.1344
53.2433
63.5727
50.453
63.1098
55.3491
78.7428
55.2424
58.1964
59.812
67.1403
61.5874
55.6101
69.7558
58.4269
58.9645
52.2427
56.403
62.064
52.6087
57.1777
48.894
58.5375
52.6895
59.1366
56.6981
49.1832
55.0796
48.676
54.3382
51.8131
52.2872
55.2038
53.9325
54.3231
61.0198
2
2
2
2
2
2
2
2
2
2
2
2
2
2
)
;

boundaryField
{
    inlet
    {
        type            fixedValue;
        value           uniform 0;
    }
    outlet
    {
        type            zeroGradient;
    }
    yzfaces
    {
        type            empty;
    }
}


// ************************************************************************* //
