/*--------------------------------*- C++ -*----------------------------------*\
| =========                 |                                                 |
| \\      /  F ield         | foam-extend: Open Source CFD                    |
|  \\    /   O peration     | Version:     5.0                                |
|   \\  /    A nd           | Web:         http://www.foam-extend.org         |
|    \\/     M anipulation  |                                                 |
\*---------------------------------------------------------------------------*/
FoamFile
{
    version     2.0;
    format      ascii;
    class       volScalarField;
    location    "6";
    object      Ns;
}
// * * * * * * * * * * * * * * * * * * * * * * * * * * * * * * * * * * * * * //

dimensions      [0 -3 0 0 1 0 0];

internalField   nonuniform List<scalar> 
100
(
44.267
55.5028
100.451
155.478
134.436
132.177
69.1554
35.742
56.5537
18.4491
48.2955
70.6351
51.66
41.2952
47.6772
3.27767
67.3157
33.6165
88.2086
62.6705
64.2522
40.2779
22.9913
54.1024
51.811
70.8949
21.0441
42.1054
53.0916
46.3805
41.947
64.9175
66.4406
68.5307
40.5668
64.6934
54.2679
67.0492
68.4901
57.2188
52.8073
48.6103
52.4924
64.0881
43.5145
52.2166
50.6457
68.139
57.8663
43.1724
36.2985
42.4313
57.4799
52.176
72.2336
63.6624
50.3498
53.1574
66.6213
53.1735
65.2132
52.2745
57.1951
75.6782
50.106
59.1961
60.7611
42.85
50.1778
49.8114
63.3148
48.9246
41.1239
38.6792
46.4398
54.2045
42.0133
49.8187
43.5891
62.917
46.8657
44.9792
45.2386
44.5568
48.6151
49.835
48.056
50.4382
44.9665
45.5454
49.2139
47.5769
52.4228
50.5804
48.8754
51.3146
53.3228
61.2602
2
2
)
;

boundaryField
{
    inlet
    {
        type            fixedValue;
        value           uniform 0;
    }
    outlet
    {
        type            zeroGradient;
    }
    yzfaces
    {
        type            empty;
    }
}


// ************************************************************************* //
