/*--------------------------------*- C++ -*----------------------------------*\
| =========                 |                                                 |
| \\      /  F ield         | foam-extend: Open Source CFD                    |
|  \\    /   O peration     | Version:     5.0                                |
|   \\  /    A nd           | Web:         http://www.foam-extend.org         |
|    \\/     M anipulation  |                                                 |
\*---------------------------------------------------------------------------*/
FoamFile
{
    version     2.0;
    format      ascii;
    class       volScalarField;
    location    "6";
    object      Ns;
}
// * * * * * * * * * * * * * * * * * * * * * * * * * * * * * * * * * * * * * //

dimensions      [0 -3 0 0 1 0 0];

internalField   nonuniform List<scalar> 
100
(
49.6956
110.242
69.1148
174.581
147.426
117.642
46.3066
68.6915
102.242
54.6609
19.3613
92.7182
7.1476
64.3115
65.7036
45.8353
62.8332
65.0184
35.1851
51.5348
45.6663
68.9019
40.8282
28.6881
46.0252
42.6498
71.5372
54.8704
60.0641
41.3672
37.4833
83.9679
52.132
53.4247
47.2365
54.06
23.796
47.5785
42.738
46.0201
47.2631
50.9666
61.0525
63.8482
48.8494
51.7992
67.6414
54.2612
77.4298
64.2599
57.3543
55.8241
54.7387
74.0324
51.9441
75.8786
46.9641
78.8618
71.6396
55.3163
55.9789
55.6282
51.6157
64.4584
59.7966
58.9005
60.3278
51.0603
62.57
60.3659
55.0976
52.4995
59.9044
58.3853
50.7698
57.4865
51.8481
57.5628
53.2176
53.8148
57.8025
57.7223
55.1258
59.7497
56.3827
67.3791
2
2
2
2
2
2
2
2
2
2
2
2
2
2
)
;

boundaryField
{
    inlet
    {
        type            fixedValue;
        value           uniform 0;
    }
    outlet
    {
        type            zeroGradient;
    }
    yzfaces
    {
        type            empty;
    }
}


// ************************************************************************* //
