/*--------------------------------*- C++ -*----------------------------------*\
| =========                 |                                                 |
| \\      /  F ield         | foam-extend: Open Source CFD                    |
|  \\    /   O peration     | Version:     5.0                                |
|   \\  /    A nd           | Web:         http://www.foam-extend.org         |
|    \\/     M anipulation  |                                                 |
\*---------------------------------------------------------------------------*/
FoamFile
{
    version     2.0;
    format      ascii;
    class       surfaceScalarField;
    location    "6";
    object      phi;
}
// * * * * * * * * * * * * * * * * * * * * * * * * * * * * * * * * * * * * * //

dimensions      [0 3 -1 0 0 0 0];

internalField   nonuniform List<scalar> 
99
(
1.2314e-06
1.22552e-06
1.23703e-06
1.21484e-06
1.22045e-06
1.21039e-06
1.2043e-06
1.20698e-06
1.19607e-06
1.19811e-06
1.19663e-06
1.19598e-06
1.19954e-06
1.19933e-06
1.19991e-06
1.19517e-06
1.19742e-06
1.20781e-06
1.20487e-06
1.20689e-06
1.20803e-06
1.21131e-06
1.20465e-06
1.21192e-06
1.21254e-06
1.2143e-06
1.2134e-06
1.20769e-06
1.21038e-06
1.20677e-06
1.20762e-06
1.20545e-06
1.20704e-06
1.20877e-06
1.20502e-06
1.20165e-06
1.2027e-06
1.20158e-06
1.20543e-06
1.20624e-06
1.20824e-06
1.20463e-06
1.20464e-06
1.20576e-06
1.20563e-06
1.20382e-06
1.2062e-06
1.20716e-06
1.20963e-06
1.21104e-06
1.21277e-06
1.2198e-06
1.21832e-06
1.22146e-06
1.22392e-06
1.22355e-06
1.22089e-06
1.22266e-06
1.2228e-06
1.22255e-06
1.22153e-06
1.22442e-06
1.22497e-06
1.22122e-06
1.22149e-06
1.21833e-06
1.22191e-06
1.22179e-06
1.22317e-06
1.22126e-06
1.21898e-06
1.2176e-06
1.21788e-06
1.21704e-06
1.21261e-06
1.20983e-06
1.2068e-06
1.20578e-06
1.20472e-06
1.20347e-06
1.20374e-06
1.20369e-06
1.203e-06
1.20297e-06
1.20198e-06
1.202e-06
1.20199e-06
1.2019e-06
1.20217e-06
1.20137e-06
1.20053e-06
1.2e-06
1.19941e-06
1.19952e-06
1.20067e-06
1.20225e-06
1.2018e-06
1.20133e-06
1.2031e-06
)
;

boundaryField
{
    inlet
    {
        type            calculated;
        value           uniform -1.225e-06;
    }
    outlet
    {
        type            calculated;
        value           uniform 1.20373e-06;
    }
    yzfaces
    {
        type            empty;
    }
}


// ************************************************************************* //
