/*--------------------------------*- C++ -*----------------------------------*\
| =========                 |                                                 |
| \\      /  F ield         | foam-extend: Open Source CFD                    |
|  \\    /   O peration     | Version:     5.0                                |
|   \\  /    A nd           | Web:         http://www.foam-extend.org         |
|    \\/     M anipulation  |                                                 |
\*---------------------------------------------------------------------------*/
FoamFile
{
    version     2.0;
    format      ascii;
    class       surfaceScalarField;
    location    "6";
    object      phi;
}
// * * * * * * * * * * * * * * * * * * * * * * * * * * * * * * * * * * * * * //

dimensions      [0 3 -1 0 0 0 0];

internalField   nonuniform List<scalar> 
99
(
1.22554e-06
1.22311e-06
1.21709e-06
1.21546e-06
1.21549e-06
1.19807e-06
1.19718e-06
1.19028e-06
1.19667e-06
1.1937e-06
1.18463e-06
1.18716e-06
1.18295e-06
1.18284e-06
1.18285e-06
1.17957e-06
1.17654e-06
1.18206e-06
1.18181e-06
1.17955e-06
1.1774e-06
1.1831e-06
1.16892e-06
1.16616e-06
1.16273e-06
1.15953e-06
1.16337e-06
1.16661e-06
1.16297e-06
1.16021e-06
1.16215e-06
1.16429e-06
1.16082e-06
1.16381e-06
1.16547e-06
1.16504e-06
1.16496e-06
1.16648e-06
1.16604e-06
1.16946e-06
1.16966e-06
1.16834e-06
1.16588e-06
1.16755e-06
1.16912e-06
1.16918e-06
1.17014e-06
1.16858e-06
1.16554e-06
1.16536e-06
1.16262e-06
1.16789e-06
1.17259e-06
1.17023e-06
1.16925e-06
1.16863e-06
1.16895e-06
1.16974e-06
1.1694e-06
1.16792e-06
1.16822e-06
1.16757e-06
1.16227e-06
1.16394e-06
1.16154e-06
1.16274e-06
1.16111e-06
1.16027e-06
1.16141e-06
1.16156e-06
1.15851e-06
1.15584e-06
1.15465e-06
1.15707e-06
1.15785e-06
1.15362e-06
1.15404e-06
1.15306e-06
1.15306e-06
1.15371e-06
1.15494e-06
1.15313e-06
1.15334e-06
1.15286e-06
1.15183e-06
1.15212e-06
1.14967e-06
1.14885e-06
1.14929e-06
1.1499e-06
1.14894e-06
1.14949e-06
1.14952e-06
1.14993e-06
1.14947e-06
1.14934e-06
1.14911e-06
1.1513e-06
1.15207e-06
)
;

boundaryField
{
    inlet
    {
        type            calculated;
        value           uniform -1.225e-06;
    }
    outlet
    {
        type            calculated;
        value           uniform 1.15146e-06;
    }
    yzfaces
    {
        type            empty;
    }
}


// ************************************************************************* //
