/*--------------------------------*- C++ -*----------------------------------*\
| =========                 |                                                 |
| \\      /  F ield         | foam-extend: Open Source CFD                    |
|  \\    /   O peration     | Version:     5.0                                |
|   \\  /    A nd           | Web:         http://www.foam-extend.org         |
|    \\/     M anipulation  |                                                 |
\*---------------------------------------------------------------------------*/
FoamFile
{
    version     2.0;
    format      ascii;
    class       surfaceScalarField;
    location    "6";
    object      phi;
}
// * * * * * * * * * * * * * * * * * * * * * * * * * * * * * * * * * * * * * //

dimensions      [0 3 -1 0 0 0 0];

internalField   nonuniform List<scalar> 
99
(
1.22437e-06
1.22395e-06
1.23183e-06
1.23543e-06
1.23268e-06
1.21908e-06
1.2285e-06
1.22608e-06
1.2233e-06
1.22812e-06
1.21834e-06
1.21953e-06
1.22532e-06
1.22286e-06
1.23011e-06
1.22295e-06
1.22858e-06
1.23077e-06
1.23945e-06
1.23535e-06
1.23646e-06
1.23494e-06
1.23134e-06
1.22758e-06
1.23001e-06
1.23115e-06
1.23284e-06
1.23116e-06
1.23009e-06
1.23165e-06
1.22813e-06
1.23049e-06
1.22989e-06
1.2328e-06
1.23339e-06
1.23225e-06
1.23443e-06
1.2335e-06
1.2307e-06
1.23259e-06
1.23541e-06
1.23348e-06
1.23344e-06
1.23349e-06
1.23119e-06
1.23036e-06
1.23169e-06
1.23185e-06
1.23482e-06
1.23197e-06
1.2334e-06
1.23324e-06
1.23701e-06
1.23462e-06
1.23564e-06
1.23682e-06
1.23841e-06
1.23948e-06
1.23945e-06
1.23886e-06
1.23431e-06
1.23345e-06
1.2331e-06
1.23108e-06
1.231e-06
1.22916e-06
1.22881e-06
1.22969e-06
1.22795e-06
1.2265e-06
1.22639e-06
1.22512e-06
1.22545e-06
1.22559e-06
1.22589e-06
1.22472e-06
1.22815e-06
1.22822e-06
1.22742e-06
1.22846e-06
1.22755e-06
1.2281e-06
1.22882e-06
1.22893e-06
1.22717e-06
1.22848e-06
1.22775e-06
1.2298e-06
1.23275e-06
1.23108e-06
1.231e-06
1.23177e-06
1.22991e-06
1.2284e-06
1.22666e-06
1.22676e-06
1.22545e-06
1.22666e-06
1.2276e-06
)
;

boundaryField
{
    inlet
    {
        type            calculated;
        value           uniform -1.225e-06;
    }
    outlet
    {
        type            calculated;
        value           uniform 1.22937e-06;
    }
    yzfaces
    {
        type            empty;
    }
}


// ************************************************************************* //
