/*--------------------------------*- C++ -*----------------------------------*\
| =========                 |                                                 |
| \\      /  F ield         | foam-extend: Open Source CFD                    |
|  \\    /   O peration     | Version:     5.0                                |
|   \\  /    A nd           | Web:         http://www.foam-extend.org         |
|    \\/     M anipulation  |                                                 |
\*---------------------------------------------------------------------------*/
FoamFile
{
    version     2.0;
    format      ascii;
    class       surfaceScalarField;
    location    "6";
    object      phi.water;
}
// * * * * * * * * * * * * * * * * * * * * * * * * * * * * * * * * * * * * * //

dimensions      [0 3 -1 0 0 0 0];

internalField   nonuniform List<scalar> 
99
(
9.3905e-08
1.58531e-07
2.21108e-07
2.50241e-07
2.94416e-07
3.32552e-07
4.02453e-07
4.51082e-07
4.88294e-07
5.43418e-07
5.89879e-07
6.35583e-07
6.841e-07
7.2839e-07
7.81447e-07
8.12667e-07
8.60682e-07
9.1368e-07
9.323e-07
9.59641e-07
1.0005e-06
1.04272e-06
1.07369e-06
1.13394e-06
1.17201e-06
1.21717e-06
1.24992e-06
1.27609e-06
1.3146e-06
1.34571e-06
1.38804e-06
1.41745e-06
1.4537e-06
1.48515e-06
1.51403e-06
1.54416e-06
1.58693e-06
1.62324e-06
1.66801e-06
1.70293e-06
1.73934e-06
1.77204e-06
1.80899e-06
1.85366e-06
1.89008e-06
1.91949e-06
1.95656e-06
1.99289e-06
2.03508e-06
2.06838e-06
2.10535e-06
2.15575e-06
2.17855e-06
2.22135e-06
2.26196e-06
2.29066e-06
2.32169e-06
2.35975e-06
2.39548e-06
2.43199e-06
2.46412e-06
2.50785e-06
2.53845e-06
2.56071e-06
2.59984e-06
2.63648e-06
2.68542e-06
2.72304e-06
2.75971e-06
2.79363e-06
2.82919e-06
2.86537e-06
2.91147e-06
2.95207e-06
2.98709e-06
3.02616e-06
3.07285e-06
3.11663e-06
3.1633e-06
3.21004e-06
3.25883e-06
3.3106e-06
3.36238e-06
3.4174e-06
3.46885e-06
3.52406e-06
3.58005e-06
3.64006e-06
3.70718e-06
3.76811e-06
3.83337e-06
3.90516e-06
3.97963e-06
4.06378e-06
4.15492e-06
4.2563e-06
4.35199e-06
4.45675e-06
4.58431e-06
)
;

boundaryField
{
    inlet
    {
        type            fixedValue;
        value           uniform 0;
    }
    outlet
    {
        type            calculated;
        value           uniform 4.7329e-06;
    }
    yzfaces
    {
        type            empty;
    }
}


// ************************************************************************* //
