/*--------------------------------*- C++ -*----------------------------------*\
| =========                 |                                                 |
| \\      /  F ield         | foam-extend: Open Source CFD                    |
|  \\    /   O peration     | Version:     5.0                                |
|   \\  /    A nd           | Web:         http://www.foam-extend.org         |
|    \\/     M anipulation  |                                                 |
\*---------------------------------------------------------------------------*/
FoamFile
{
    version     2.0;
    format      ascii;
    class       volVectorField;
    location    "6";
    object      U.gas;
}
// * * * * * * * * * * * * * * * * * * * * * * * * * * * * * * * * * * * * * //

dimensions      [0 1 -1 0 0 0 0];

internalField   nonuniform List<vector> 
100
(
(0.00625421 0 0)
(0.00683553 0 0)
(0.0071965 0 0)
(0.00741125 0 0)
(0.00768901 0 0)
(0.00788625 0 0)
(0.00814739 0 0)
(0.00838564 0 0)
(0.00864272 0 0)
(0.00886927 0 0)
(0.00904649 0 0)
(0.00922893 0 0)
(0.0093994 0 0)
(0.00951609 0 0)
(0.00972096 0 0)
(0.00982854 0 0)
(0.00996094 0 0)
(0.0100861 0 0)
(0.0101682 0 0)
(0.0102405 0 0)
(0.0103133 0 0)
(0.0104316 0 0)
(0.0104936 0 0)
(0.0105632 0 0)
(0.0106311 0 0)
(0.0106966 0 0)
(0.0108038 0 0)
(0.0108873 0 0)
(0.0109579 0 0)
(0.0110099 0 0)
(0.0111054 0 0)
(0.0111917 0 0)
(0.0112542 0 0)
(0.0113017 0 0)
(0.0113982 0 0)
(0.0114534 0 0)
(0.0115193 0 0)
(0.0116071 0 0)
(0.0116555 0 0)
(0.0117265 0 0)
(0.0117941 0 0)
(0.0118312 0 0)
(0.0118588 0 0)
(0.0119225 0 0)
(0.0119928 0 0)
(0.012051 0 0)
(0.0120842 0 0)
(0.0121173 0 0)
(0.0121396 0 0)
(0.0121713 0 0)
(0.0122033 0 0)
(0.0122582 0 0)
(0.0123373 0 0)
(0.0123802 0 0)
(0.0123922 0 0)
(0.0124178 0 0)
(0.0124388 0 0)
(0.0124818 0 0)
(0.0124946 0 0)
(0.0125106 0 0)
(0.0125335 0 0)
(0.0125534 0 0)
(0.0125312 0 0)
(0.01255 0 0)
(0.0125583 0 0)
(0.0125723 0 0)
(0.0125775 0 0)
(0.0125788 0 0)
(0.0126017 0 0)
(0.0126128 0 0)
(0.0126095 0 0)
(0.0125918 0 0)
(0.0125934 0 0)
(0.0126052 0 0)
(0.0126197 0 0)
(0.0126025 0 0)
(0.0125875 0 0)
(0.0125782 0 0)
(0.0125701 0 0)
(0.0125664 0 0)
(0.012568 0 0)
(0.0125489 0 0)
(0.0125291 0 0)
(0.0125076 0 0)
(0.0124809 0 0)
(0.0124523 0 0)
(0.0124088 0 0)
(0.0123577 0 0)
(0.0123207 0 0)
(0.0122749 0 0)
(0.0122214 0 0)
(0.0121611 0 0)
(0.012096 0 0)
(0.0120179 0 0)
(0.0119251 0 0)
(0.0118139 0 0)
(0.0116834 0 0)
(0.0115409 0 0)
(0.0113672 0 0)
(0.0111484 0 0)
)
;

boundaryField
{
    inlet
    {
        type            fixedValue;
        value           uniform (0.005 0 0);
    }
    outlet
    {
        type            zeroGradient;
    }
    yzfaces
    {
        type            empty;
    }
}


// ************************************************************************* //
