/*--------------------------------*- C++ -*----------------------------------*\
| =========                 |                                                 |
| \\      /  F ield         | foam-extend: Open Source CFD                    |
|  \\    /   O peration     | Version:     5.0                                |
|   \\  /    A nd           | Web:         http://www.foam-extend.org         |
|    \\/     M anipulation  |                                                 |
\*---------------------------------------------------------------------------*/
FoamFile
{
    version     2.0;
    format      ascii;
    class       volVectorField;
    location    "6";
    object      U.gas;
}
// * * * * * * * * * * * * * * * * * * * * * * * * * * * * * * * * * * * * * //

dimensions      [0 1 -1 0 0 0 0];

internalField   nonuniform List<vector> 
100
(
(0.00623632 0 0)
(0.00680423 0 0)
(0.0072633 0 0)
(0.00746373 0 0)
(0.00777952 0 0)
(0.00803528 0 0)
(0.0083731 0 0)
(0.00862507 0 0)
(0.00888151 0 0)
(0.00911868 0 0)
(0.00931759 0 0)
(0.00950304 0 0)
(0.00968653 0 0)
(0.0098635 0 0)
(0.0100885 0 0)
(0.010207 0 0)
(0.0103703 0 0)
(0.0105172 0 0)
(0.0106292 0 0)
(0.0107553 0 0)
(0.0108413 0 0)
(0.010942 0 0)
(0.0110122 0 0)
(0.0111116 0 0)
(0.0112319 0 0)
(0.0113454 0 0)
(0.011448 0 0)
(0.0115168 0 0)
(0.011584 0 0)
(0.0116763 0 0)
(0.0117342 0 0)
(0.0118172 0 0)
(0.0118989 0 0)
(0.011992 0 0)
(0.0120568 0 0)
(0.0121168 0 0)
(0.0121996 0 0)
(0.0122705 0 0)
(0.0123074 0 0)
(0.0123772 0 0)
(0.012449 0 0)
(0.0124966 0 0)
(0.0125519 0 0)
(0.0126009 0 0)
(0.0126412 0 0)
(0.0126796 0 0)
(0.0127195 0 0)
(0.012773 0 0)
(0.0128407 0 0)
(0.0128695 0 0)
(0.012922 0 0)
(0.0129461 0 0)
(0.0130009 0 0)
(0.0130528 0 0)
(0.0130776 0 0)
(0.0131273 0 0)
(0.0131705 0 0)
(0.0132111 0 0)
(0.0132454 0 0)
(0.0132667 0 0)
(0.0132559 0 0)
(0.0132511 0 0)
(0.0132663 0 0)
(0.0132714 0 0)
(0.0132885 0 0)
(0.0132962 0 0)
(0.0133036 0 0)
(0.0133225 0 0)
(0.0133311 0 0)
(0.0133305 0 0)
(0.0133336 0 0)
(0.0133405 0 0)
(0.0133501 0 0)
(0.0133518 0 0)
(0.0133695 0 0)
(0.0133589 0 0)
(0.0133872 0 0)
(0.0133932 0 0)
(0.0133871 0 0)
(0.0133825 0 0)
(0.0133717 0 0)
(0.0133584 0 0)
(0.0133485 0 0)
(0.013328 0 0)
(0.0133021 0 0)
(0.0132746 0 0)
(0.0132463 0 0)
(0.0132167 0 0)
(0.0132008 0 0)
(0.013155 0 0)
(0.0131002 0 0)
(0.0130351 0 0)
(0.0129575 0 0)
(0.012858 0 0)
(0.0127466 0 0)
(0.0126226 0 0)
(0.0124838 0 0)
(0.0123237 0 0)
(0.0121419 0 0)
(0.0119202 0 0)
)
;

boundaryField
{
    inlet
    {
        type            fixedValue;
        value           uniform (0.005 0 0);
    }
    outlet
    {
        type            zeroGradient;
    }
    yzfaces
    {
        type            empty;
    }
}


// ************************************************************************* //
