/*--------------------------------*- C++ -*----------------------------------*\
| =========                 |                                                 |
| \\      /  F ield         | foam-extend: Open Source CFD                    |
|  \\    /   O peration     | Version:     5.0                                |
|   \\  /    A nd           | Web:         http://www.foam-extend.org         |
|    \\/     M anipulation  |                                                 |
\*---------------------------------------------------------------------------*/
FoamFile
{
    version     2.0;
    format      ascii;
    class       volVectorField;
    location    "6";
    object      U.gas;
}
// * * * * * * * * * * * * * * * * * * * * * * * * * * * * * * * * * * * * * //

dimensions      [0 1 -1 0 0 0 0];

internalField   nonuniform List<vector> 
100
(
(0.00626267 0 0)
(0.00680894 0 0)
(0.00724534 0 0)
(0.00744634 0 0)
(0.00767447 0 0)
(0.0079352 0 0)
(0.00826263 0 0)
(0.00848476 0 0)
(0.00866792 0 0)
(0.00888227 0 0)
(0.00908654 0 0)
(0.00926639 0 0)
(0.00946244 0 0)
(0.00964335 0 0)
(0.00983545 0 0)
(0.00993424 0 0)
(0.0100799 0 0)
(0.0102639 0 0)
(0.0103525 0 0)
(0.0104449 0 0)
(0.0105849 0 0)
(0.0107136 0 0)
(0.0108063 0 0)
(0.0109577 0 0)
(0.01108 0 0)
(0.0112048 0 0)
(0.0112819 0 0)
(0.0113255 0 0)
(0.0113993 0 0)
(0.0114722 0 0)
(0.0115501 0 0)
(0.0115995 0 0)
(0.0116708 0 0)
(0.0117415 0 0)
(0.0118 0 0)
(0.0118325 0 0)
(0.0118974 0 0)
(0.0119604 0 0)
(0.0120423 0 0)
(0.0121155 0 0)
(0.0121853 0 0)
(0.0122389 0 0)
(0.0122781 0 0)
(0.0123484 0 0)
(0.0123982 0 0)
(0.0124241 0 0)
(0.012473 0 0)
(0.0125364 0 0)
(0.0125979 0 0)
(0.01265 0 0)
(0.0127004 0 0)
(0.0127905 0 0)
(0.012834 0 0)
(0.0128917 0 0)
(0.0129533 0 0)
(0.0129872 0 0)
(0.0130052 0 0)
(0.0130271 0 0)
(0.0130682 0 0)
(0.0130982 0 0)
(0.0131093 0 0)
(0.0131461 0 0)
(0.0131734 0 0)
(0.013176 0 0)
(0.0131882 0 0)
(0.0131963 0 0)
(0.0132121 0 0)
(0.0132424 0 0)
(0.0132591 0 0)
(0.0132753 0 0)
(0.0132652 0 0)
(0.0132557 0 0)
(0.0132658 0 0)
(0.0132645 0 0)
(0.0132478 0 0)
(0.0132125 0 0)
(0.0131863 0 0)
(0.0131516 0 0)
(0.0131363 0 0)
(0.0131204 0 0)
(0.0131008 0 0)
(0.0130965 0 0)
(0.0130763 0 0)
(0.0130503 0 0)
(0.0130194 0 0)
(0.012991 0 0)
(0.0129593 0 0)
(0.0129203 0 0)
(0.0128805 0 0)
(0.0128285 0 0)
(0.0127719 0 0)
(0.0127053 0 0)
(0.0126256 0 0)
(0.0125414 0 0)
(0.0124466 0 0)
(0.012348 0 0)
(0.0122124 0 0)
(0.0120517 0 0)
(0.0118735 0 0)
(0.0116471 0 0)
)
;

boundaryField
{
    inlet
    {
        type            fixedValue;
        value           uniform (0.005 0 0);
    }
    outlet
    {
        type            zeroGradient;
    }
    yzfaces
    {
        type            empty;
    }
}


// ************************************************************************* //
