/*--------------------------------*- C++ -*----------------------------------*\
| =========                 |                                                 |
| \\      /  F ield         | foam-extend: Open Source CFD                    |
|  \\    /   O peration     | Version:     5.0                                |
|   \\  /    A nd           | Web:         http://www.foam-extend.org         |
|    \\/     M anipulation  |                                                 |
\*---------------------------------------------------------------------------*/
FoamFile
{
    version     2.0;
    format      ascii;
    class       volVectorField;
    location    "6";
    object      U.water;
}
// * * * * * * * * * * * * * * * * * * * * * * * * * * * * * * * * * * * * * //

dimensions      [0 1 -1 0 0 0 0];

internalField   nonuniform List<vector> 
100
(
(4.46946e-05 0 0)
(0.000103694 0 0)
(0.000153774 0 0)
(0.000193466 0 0)
(0.000223005 0 0)
(0.000257997 0 0)
(0.00029897 0 0)
(0.000348336 0 0)
(0.000384209 0 0)
(0.000420808 0 0)
(0.000462474 0 0)
(0.0005002 0 0)
(0.00053825 0 0)
(0.000576707 0 0)
(0.000615268 0 0)
(0.000651154 0 0)
(0.000682205 0 0)
(0.000722213 0 0)
(0.000753709 0 0)
(0.000773197 0 0)
(0.000799986 0 0)
(0.000833815 0 0)
(0.000864467 0 0)
(0.000899937 0 0)
(0.000941186 0 0)
(0.000974443 0 0)
(0.00100699 0 0)
(0.00103166 0 0)
(0.00105766 0 0)
(0.00108622 0 0)
(0.00111533 0 0)
(0.00114521 0 0)
(0.00117144 0 0)
(0.00119975 0 0)
(0.00122453 0 0)
(0.00124868 0 0)
(0.00127776 0 0)
(0.00130999 0 0)
(0.00134258 0 0)
(0.00137545 0 0)
(0.00140513 0 0)
(0.00143366 0 0)
(0.00146219 0 0)
(0.00149467 0 0)
(0.00152791 0 0)
(0.00155523 0 0)
(0.00158186 0 0)
(0.00161159 0 0)
(0.00164356 0 0)
(0.00167475 0 0)
(0.0017032 0 0)
(0.00173775 0 0)
(0.00176921 0 0)
(0.00179545 0 0)
(0.00182927 0 0)
(0.00185844 0 0)
(0.00188264 0 0)
(0.00191051 0 0)
(0.00194058 0 0)
(0.00197011 0 0)
(0.00199838 0 0)
(0.00202863 0 0)
(0.00205975 0 0)
(0.00208227 0 0)
(0.0021072 0 0)
(0.00213739 0 0)
(0.00217161 0 0)
(0.00220675 0 0)
(0.00223778 0 0)
(0.00226692 0 0)
(0.00229548 0 0)
(0.00232503 0 0)
(0.00235826 0 0)
(0.00239419 0 0)
(0.00242537 0 0)
(0.00245595 0 0)
(0.00249019 0 0)
(0.00252711 0 0)
(0.00256404 0 0)
(0.00260167 0 0)
(0.00264073 0 0)
(0.00268157 0 0)
(0.00272394 0 0)
(0.0027676 0 0)
(0.00281123 0 0)
(0.00285574 0 0)
(0.00290343 0 0)
(0.00295176 0 0)
(0.00300212 0 0)
(0.00305327 0 0)
(0.0031044 0 0)
(0.00316021 0 0)
(0.00322031 0 0)
(0.00328515 0 0)
(0.00335665 0 0)
(0.00343486 0 0)
(0.00351638 0 0)
(0.00359905 0 0)
(0.00369289 0 0)
(0.00379723 0 0)
)
;

boundaryField
{
    inlet
    {
        type            fixedValue;
        value           uniform (0 0 0);
    }
    outlet
    {
        type            zeroGradient;
    }
    yzfaces
    {
        type            empty;
    }
}


// ************************************************************************* //
