/*--------------------------------*- C++ -*----------------------------------*\
| =========                 |                                                 |
| \\      /  F ield         | foam-extend: Open Source CFD                    |
|  \\    /   O peration     | Version:     5.0                                |
|   \\  /    A nd           | Web:         http://www.foam-extend.org         |
|    \\/     M anipulation  |                                                 |
\*---------------------------------------------------------------------------*/
FoamFile
{
    version     2.0;
    format      ascii;
    class       volVectorField;
    location    "6";
    object      U.water;
}
// * * * * * * * * * * * * * * * * * * * * * * * * * * * * * * * * * * * * * //

dimensions      [0 1 -1 0 0 0 0];

internalField   nonuniform List<vector> 
100
(
(4.41392e-05 0 0)
(0.000103977 0 0)
(0.000156434 0 0)
(0.000197015 0 0)
(0.000223281 0 0)
(0.000261646 0 0)
(0.000306475 0 0)
(0.000353892 0 0)
(0.000393045 0 0)
(0.000438022 0 0)
(0.000478337 0 0)
(0.000518681 0 0)
(0.000560356 0 0)
(0.000595079 0 0)
(0.000635153 0 0)
(0.000675082 0 0)
(0.000708169 0 0)
(0.000747179 0 0)
(0.000777667 0 0)
(0.000801335 0 0)
(0.00082733 0 0)
(0.00085441 0 0)
(0.000880667 0 0)
(0.000909458 0 0)
(0.000947328 0 0)
(0.000985777 0 0)
(0.00101928 0 0)
(0.00104782 0 0)
(0.0010731 0 0)
(0.00110226 0 0)
(0.00113087 0 0)
(0.00115919 0 0)
(0.00119109 0 0)
(0.00122336 0 0)
(0.00125536 0 0)
(0.00128092 0 0)
(0.00130963 0 0)
(0.00134142 0 0)
(0.00136977 0 0)
(0.00139956 0 0)
(0.00143285 0 0)
(0.00145981 0 0)
(0.00148653 0 0)
(0.00151733 0 0)
(0.00154524 0 0)
(0.00157375 0 0)
(0.00160451 0 0)
(0.00163414 0 0)
(0.0016664 0 0)
(0.00169579 0 0)
(0.00172263 0 0)
(0.00175355 0 0)
(0.00178188 0 0)
(0.00181092 0 0)
(0.00184035 0 0)
(0.00187184 0 0)
(0.00190413 0 0)
(0.00193548 0 0)
(0.00196591 0 0)
(0.0019948 0 0)
(0.00201813 0 0)
(0.00204094 0 0)
(0.00206773 0 0)
(0.00209229 0 0)
(0.00211838 0 0)
(0.00214769 0 0)
(0.00217734 0 0)
(0.00220949 0 0)
(0.00223956 0 0)
(0.00226835 0 0)
(0.00229975 0 0)
(0.00233131 0 0)
(0.0023667 0 0)
(0.00240437 0 0)
(0.00244101 0 0)
(0.00247893 0 0)
(0.00252135 0 0)
(0.00256779 0 0)
(0.00260671 0 0)
(0.00264819 0 0)
(0.00269062 0 0)
(0.0027326 0 0)
(0.00277793 0 0)
(0.0028225 0 0)
(0.00286392 0 0)
(0.00290994 0 0)
(0.00295946 0 0)
(0.00301164 0 0)
(0.00306994 0 0)
(0.00312493 0 0)
(0.00317841 0 0)
(0.00323877 0 0)
(0.00329829 0 0)
(0.00335842 0 0)
(0.00342306 0 0)
(0.00349528 0 0)
(0.00357395 0 0)
(0.00366093 0 0)
(0.00375801 0 0)
(0.00386451 0 0)
)
;

boundaryField
{
    inlet
    {
        type            fixedValue;
        value           uniform (0 0 0);
    }
    outlet
    {
        type            zeroGradient;
    }
    yzfaces
    {
        type            empty;
    }
}


// ************************************************************************* //
