/*--------------------------------*- C++ -*----------------------------------*\
| =========                 |                                                 |
| \\      /  F ield         | foam-extend: Open Source CFD                    |
|  \\    /   O peration     | Version:     5.0                                |
|   \\  /    A nd           | Web:         http://www.foam-extend.org         |
|    \\/     M anipulation  |                                                 |
\*---------------------------------------------------------------------------*/
FoamFile
{
    version     2.0;
    format      ascii;
    class       volVectorField;
    location    "6";
    object      U.water;
}
// * * * * * * * * * * * * * * * * * * * * * * * * * * * * * * * * * * * * * //

dimensions      [0 1 -1 0 0 0 0];

internalField   nonuniform List<vector> 
100
(
(4.48895e-05 0 0)
(0.00010618 0 0)
(0.000157106 0 0)
(0.000194928 0 0)
(0.000225428 0 0)
(0.000259125 0 0)
(0.000295782 0 0)
(0.000339289 0 0)
(0.000381749 0 0)
(0.000423936 0 0)
(0.000461238 0 0)
(0.000501298 0 0)
(0.000540771 0 0)
(0.000574372 0 0)
(0.000609008 0 0)
(0.000647981 0 0)
(0.000679874 0 0)
(0.000716074 0 0)
(0.000743827 0 0)
(0.000762128 0 0)
(0.000783125 0 0)
(0.000810121 0 0)
(0.00083491 0 0)
(0.000861846 0 0)
(0.000896982 0 0)
(0.000926652 0 0)
(0.000960352 0 0)
(0.000992643 0 0)
(0.00101434 0 0)
(0.00103758 0 0)
(0.00106832 0 0)
(0.00110331 0 0)
(0.00113138 0 0)
(0.00115656 0 0)
(0.00118355 0 0)
(0.00121092 0 0)
(0.00123625 0 0)
(0.00126793 0 0)
(0.00129935 0 0)
(0.0013271 0 0)
(0.0013557 0 0)
(0.00137993 0 0)
(0.00140224 0 0)
(0.00142944 0 0)
(0.00146303 0 0)
(0.00149655 0 0)
(0.00152626 0 0)
(0.00154907 0 0)
(0.00157124 0 0)
(0.00159788 0 0)
(0.00162693 0 0)
(0.00166092 0 0)
(0.00169919 0 0)
(0.00172881 0 0)
(0.00175293 0 0)
(0.00177944 0 0)
(0.00180697 0 0)
(0.00183476 0 0)
(0.00186231 0 0)
(0.00188443 0 0)
(0.00190935 0 0)
(0.00193799 0 0)
(0.00195947 0 0)
(0.00198319 0 0)
(0.00201399 0 0)
(0.00204242 0 0)
(0.00207164 0 0)
(0.00209701 0 0)
(0.00212608 0 0)
(0.00215752 0 0)
(0.00218322 0 0)
(0.00220774 0 0)
(0.00223783 0 0)
(0.00227652 0 0)
(0.00231589 0 0)
(0.00234625 0 0)
(0.00237809 0 0)
(0.00241596 0 0)
(0.00245264 0 0)
(0.00249188 0 0)
(0.00253356 0 0)
(0.0025726 0 0)
(0.00261042 0 0)
(0.00265114 0 0)
(0.00269113 0 0)
(0.00273401 0 0)
(0.00277645 0 0)
(0.00281883 0 0)
(0.00286775 0 0)
(0.00292081 0 0)
(0.00297277 0 0)
(0.00302708 0 0)
(0.00308585 0 0)
(0.00314851 0 0)
(0.00321476 0 0)
(0.00328472 0 0)
(0.0033603 0 0)
(0.00344606 0 0)
(0.00353986 0 0)
(0.00363511 0 0)
)
;

boundaryField
{
    inlet
    {
        type            fixedValue;
        value           uniform (0 0 0);
    }
    outlet
    {
        type            zeroGradient;
    }
    yzfaces
    {
        type            empty;
    }
}


// ************************************************************************* //
