/*--------------------------------*- C++ -*----------------------------------*\
| =========                 |                                                 |
| \\      /  F ield         | foam-extend: Open Source CFD                    |
|  \\    /   O peration     | Version:     5.0                                |
|   \\  /    A nd           | Web:         http://www.foam-extend.org         |
|    \\/     M anipulation  |                                                 |
\*---------------------------------------------------------------------------*/
FoamFile
{
    version     2.0;
    format      ascii;
    class       volScalarField;
    location    "4";
    object      alpha.gas;
}
// * * * * * * * * * * * * * * * * * * * * * * * * * * * * * * * * * * * * * //

dimensions      [0 0 0 0 0 0 0];

internalField   nonuniform List<scalar> 
100
(
0.151146
0.135797
0.125301
0.117928
0.111965
0.107064
0.102706
0.0991843
0.0955608
0.0923584
0.0892328
0.0869656
0.0846858
0.0828146
0.0810251
0.079547
0.078192
0.0769182
0.0752255
0.073594
0.0720788
0.0705678
0.0693164
0.0681897
0.0670349
0.065824
0.0647321
0.0635395
0.0624253
0.061354
0.0601015
0.0588964
0.0576513
0.0564304
0.0552089
0.0540546
0.0526789
0.0511188
0.0492216
0.047245
0.045274
0.0434049
0.0212851
0.0302892
0.034229
0.0358484
0.0363806
0.0364742
0.036412
0.0362961
0.0361462
0.0359877
0.0358229
0.0356144
0.0353684
0.0350608
0.034687
0.0342441
0.0337475
0.0331564
0.0324758
0.0316938
0.0307971
0.0297913
0.028652
0.0273714
0.0259245
0.0243145
0.0225365
0.0206167
0.0186184
0.0166478
0.0148354
0.0133144
0.0121434
0.0113209
0.0107867
0.0104553
0.01026
0.0101479
0.0100838
0.0100462
0.010026
0.0100163
0.0100088
0.0100054
0.0100037
0.0100037
0.0100012
0.0100013
0.0100011
0.00999994
0.0100012
0.0100032
0.0100038
0.0100044
0.0100029
0.010004
0.0100054
0.0100062
)
;

boundaryField
{
    inlet
    {
        type            fixedValue;
        value           uniform 0.2;
    }
    outlet
    {
        type            zeroGradient;
    }
    yzfaces
    {
        type            empty;
    }
}


// ************************************************************************* //
