/*--------------------------------*- C++ -*----------------------------------*\
| =========                 |                                                 |
| \\      /  F ield         | foam-extend: Open Source CFD                    |
|  \\    /   O peration     | Version:     5.0                                |
|   \\  /    A nd           | Web:         http://www.foam-extend.org         |
|    \\/     M anipulation  |                                                 |
\*---------------------------------------------------------------------------*/
FoamFile
{
    version     2.0;
    format      ascii;
    class       volScalarField;
    location    "4";
    object      Cl.water;
}
// * * * * * * * * * * * * * * * * * * * * * * * * * * * * * * * * * * * * * //

dimensions      [0 0 0 0 0 0 0];

internalField   nonuniform List<scalar> 
100
(
0
0.00250408
0.00501809
0.00713667
0.00758931
0.00727928
0.0072411
0.00777846
0.00878324
0.00935925
0.00927909
0.00907177
0.00916959
0.00982079
0.0102463
0.0101329
0.00984328
0.00992075
0.0105179
0.0108773
0.0106353
0.010311
0.0105086
0.0113115
0.0124508
0.0125125
0.0116342
0.011095
0.0115188
0.0126596
0.0120403
0.0109033
0.0109388
0.0122233
0.0139481
0.0154744
0.0114936
0.0104246
0.0124454
0.01501
0.0169553
0.0181412
0.00217132
0.0164626
0.0193085
0.0197229
0.0197683
0.0197758
0.0197886
0.0197932
0.0198145
0.0198385
0.0198649
0.0198897
0.0199188
0.0199667
0.0200189
0.0200622
0.0201335
0.0202073
0.0202822
0.0203725
0.0204698
0.0205943
0.0207297
0.0208859
0.0210523
0.0212503
0.0214654
0.0216699
0.0219108
0.0221658
0.0224007
0.0225943
0.0227691
0.0228548
0.0229215
0.0229441
0.0229541
0.0229723
0.0229816
0.0229831
0.0229997
0.022977
0.0229658
0.0229743
0.0229846
0.022979
0.0229891
0.022993
0.0230129
0.0230253
0.0230179
0.0230257
0.0230172
0.0230228
0.0230167
0.0229826
0.022981
0.0229915
)
;

boundaryField
{
    inlet
    {
        type            fixedValue;
        value           uniform 0;
    }
    outlet
    {
        type            zeroGradient;
    }
    yzfaces
    {
        type            empty;
    }
}


// ************************************************************************* //
