/*--------------------------------*- C++ -*----------------------------------*\
| =========                 |                                                 |
| \\      /  F ield         | foam-extend: Open Source CFD                    |
|  \\    /   O peration     | Version:     5.0                                |
|   \\  /    A nd           | Web:         http://www.foam-extend.org         |
|    \\/     M anipulation  |                                                 |
\*---------------------------------------------------------------------------*/
FoamFile
{
    version     2.0;
    format      ascii;
    class       volScalarField;
    location    "4";
    object      CO2.water;
}
// * * * * * * * * * * * * * * * * * * * * * * * * * * * * * * * * * * * * * //

dimensions      [0 0 0 0 0 0 0];

internalField   nonuniform List<scalar> 
100
(
0.00128219
0.00114252
0.000869494
0.000611354
0.000663732
0.000856666
0.000976238
0.000949775
0.000818361
0.000771823
0.000863421
0.000987792
0.00102338
0.000945879
0.000900658
0.000973197
0.00107677
0.00109701
0.000994861
0.000959477
0.001056
0.00116398
0.00115815
0.00101406
0.000790108
0.000811136
0.00103094
0.00117509
0.00110764
0.000885117
0.001053
0.00133683
0.00135898
0.00111546
0.000777051
0.000478671
0.00137452
0.0016422
0.00125421
0.000748146
0.000382714
0.000175358
0.00420625
0.00087599
0.000159422
2.7653e-05
4.87589e-06
9.1385e-07
1.83822e-07
3.91562e-08
8.58685e-09
1.89254e-09
4.14828e-10
9.12733e-11
2.11928e-11
5.605e-12
2.07032e-12
7.09363e-13
2.26054e-13
6.87745e-14
2.0152e-14
5.72161e-15
1.64302e-15
4.78785e-16
1.41522e-16
4.25867e-17
1.30531e-17
4.07787e-18
1.29576e-18
4.21869e-19
1.40088e-19
4.74665e-20
1.63452e-20
5.70965e-21
2.012e-21
7.16237e-22
2.55611e-22
9.1702e-23
3.28761e-23
1.1804e-23
4.23803e-24
1.52146e-24
5.45659e-25
1.95548e-25
7.02657e-26
2.52328e-26
9.05166e-27
3.25338e-27
1.16934e-27
4.20288e-28
1.51041e-28
5.43323e-29
1.95111e-29
7.00936e-30
2.51879e-30
9.0429e-31
3.246e-31
1.16811e-31
4.19043e-32
1.83413e-32
)
;

boundaryField
{
    inlet
    {
        type            fixedValue;
        value           uniform 0;
    }
    outlet
    {
        type            zeroGradient;
    }
    yzfaces
    {
        type            empty;
    }
}


// ************************************************************************* //
