/*--------------------------------*- C++ -*----------------------------------*\
| =========                 |                                                 |
| \\      /  F ield         | foam-extend: Open Source CFD                    |
|  \\    /   O peration     | Version:     5.0                                |
|   \\  /    A nd           | Web:         http://www.foam-extend.org         |
|    \\/     M anipulation  |                                                 |
\*---------------------------------------------------------------------------*/
FoamFile
{
    version     2.0;
    format      ascii;
    class       volScalarField;
    location    "4";
    object      H2O.gas;
}
// * * * * * * * * * * * * * * * * * * * * * * * * * * * * * * * * * * * * * //

dimensions      [0 0 0 0 0 0 0];

internalField   nonuniform List<scalar> 
100
(
1.56579e-16
7.17711e-15
7.0892e-14
4.31607e-13
1.94963e-12
7.36344e-12
2.42876e-11
7.14604e-11
1.92415e-10
4.84843e-10
1.15322e-09
2.64378e-09
5.7231e-09
1.20579e-08
2.42883e-08
4.73406e-08
8.89784e-08
1.61771e-07
2.82597e-07
4.83785e-07
8.11523e-07
1.33138e-06
2.14948e-06
3.39741e-06
5.25518e-06
8.02495e-06
1.20636e-05
1.77917e-05
2.58784e-05
3.70776e-05
5.24007e-05
7.34239e-05
0.000101311
0.00013867
0.000188784
0.000256241
0.00034167
0.000446893
0.000582859
0.000771487
0.00104384
0.0014267
0.000684301
0.00206339
0.0031372
0.00419779
0.00531644
0.00651923
0.00781136
0.0091723
0.0106114
0.0121086
0.013645
0.0151984
0.0167298
0.0182285
0.0196581
0.0209744
0.0221966
0.0232365
0.0240974
0.0247338
0.0251255
0.0252756
0.0251555
0.0247489
0.0240133
0.022985
0.0216582
0.0200514
0.0182824
0.0164729
0.0147523
0.0132786
0.012139
0.0113145
0.0107851
0.0104477
0.0102504
0.0101429
0.0100808
0.0100399
0.0100258
0.010006
0.00999837
0.00999878
0.00999907
0.00999412
0.00999588
0.00999668
0.010001
0.0100061
0.0100061
0.0100084
0.0100078
0.0100092
0.0100031
0.00999173
0.00999499
0.0100019
)
;

boundaryField
{
    inlet
    {
        type            fixedValue;
        value           uniform 0;
    }
    outlet
    {
        type            zeroGradient;
    }
    yzfaces
    {
        type            empty;
    }
}


// ************************************************************************* //
