/*--------------------------------*- C++ -*----------------------------------*\
| =========                 |                                                 |
| \\      /  F ield         | foam-extend: Open Source CFD                    |
|  \\    /   O peration     | Version:     5.0                                |
|   \\  /    A nd           | Web:         http://www.foam-extend.org         |
|    \\/     M anipulation  |                                                 |
\*---------------------------------------------------------------------------*/
FoamFile
{
    version     2.0;
    format      ascii;
    class       volScalarField;
    location    "4";
    object      Na.water;
}
// * * * * * * * * * * * * * * * * * * * * * * * * * * * * * * * * * * * * * //

dimensions      [0 0 0 0 0 0 0];

internalField   nonuniform List<scalar> 
100
(
0
0.00250301
0.00501703
0.00713332
0.00758503
0.00728074
0.00724047
0.0077802
0.0087829
0.0093586
0.00927817
0.0090625
0.00915854
0.00980758
0.0102382
0.010119
0.00983772
0.00991628
0.0105174
0.010881
0.0106363
0.0103121
0.0105106
0.0113128
0.0124521
0.0125118
0.0116366
0.0110953
0.0115144
0.01265
0.0120301
0.0108995
0.010938
0.0122183
0.0139478
0.0154773
0.0114976
0.0104264
0.0124418
0.0150095
0.0169544
0.0181457
0.00217213
0.0164724
0.0193257
0.0197363
0.0197739
0.0197846
0.0198007
0.0198091
0.0198366
0.01986
0.0198862
0.0199094
0.0199397
0.0199844
0.0200333
0.0200788
0.0201464
0.0202115
0.0202863
0.0203784
0.0204827
0.0206031
0.0207433
0.0209012
0.0210696
0.0212569
0.0214664
0.0216809
0.0219102
0.0221634
0.02239
0.0225753
0.0227429
0.0228288
0.0228984
0.0229243
0.0229456
0.0229693
0.0229823
0.0229754
0.022994
0.0229714
0.0229701
0.0229852
0.022997
0.0229883
0.0229919
0.0229897
0.0230086
0.0230229
0.0230218
0.0230228
0.0230221
0.0230287
0.023017
0.0229875
0.0229913
0.0229988
)
;

boundaryField
{
    inlet
    {
        type            fixedValue;
        value           uniform 0;
    }
    outlet
    {
        type            zeroGradient;
    }
    yzfaces
    {
        type            empty;
    }
}


// ************************************************************************* //
