/*--------------------------------*- C++ -*----------------------------------*\
| =========                 |                                                 |
| \\      /  F ield         | foam-extend: Open Source CFD                    |
|  \\    /   O peration     | Version:     5.0                                |
|   \\  /    A nd           | Web:         http://www.foam-extend.org         |
|    \\/     M anipulation  |                                                 |
\*---------------------------------------------------------------------------*/
FoamFile
{
    version     2.0;
    format      ascii;
    class       surfaceScalarField;
    location    "4";
    object      phi;
}
// * * * * * * * * * * * * * * * * * * * * * * * * * * * * * * * * * * * * * //

dimensions      [0 3 -1 0 0 0 0];

internalField   nonuniform List<scalar> 
99
(
1.2201e-06
1.22366e-06
1.22059e-06
1.22782e-06
1.22432e-06
1.22659e-06
1.23239e-06
1.22846e-06
1.22696e-06
1.22033e-06
1.23096e-06
1.22787e-06
1.22546e-06
1.22441e-06
1.22206e-06
1.22339e-06
1.22589e-06
1.22207e-06
1.2197e-06
1.22274e-06
1.22074e-06
1.22429e-06
1.22811e-06
1.22589e-06
1.22301e-06
1.22237e-06
1.22033e-06
1.22682e-06
1.23104e-06
1.22894e-06
1.2286e-06
1.23134e-06
1.23528e-06
1.23717e-06
1.2411e-06
1.24071e-06
1.24306e-06
1.23843e-06
1.24209e-06
1.24276e-06
1.24202e-06
1.24201e-06
1.23967e-06
1.24358e-06
1.24732e-06
1.24572e-06
1.24815e-06
1.24923e-06
1.24936e-06
1.24982e-06
1.25078e-06
1.25171e-06
1.25193e-06
1.2518e-06
1.25273e-06
1.25338e-06
1.25274e-06
1.25461e-06
1.25341e-06
1.2528e-06
1.2521e-06
1.25227e-06
1.25284e-06
1.25307e-06
1.25207e-06
1.25243e-06
1.25066e-06
1.25037e-06
1.24846e-06
1.24791e-06
1.2485e-06
1.24891e-06
1.24956e-06
1.24923e-06
1.24883e-06
1.24959e-06
1.24929e-06
1.24934e-06
1.24798e-06
1.24764e-06
1.24878e-06
1.25093e-06
1.24899e-06
1.25075e-06
1.25121e-06
1.25246e-06
1.25077e-06
1.25187e-06
1.2518e-06
1.25194e-06
1.25272e-06
1.25402e-06
1.25503e-06
1.25536e-06
1.25415e-06
1.25425e-06
1.25381e-06
1.25627e-06
1.25608e-06
)
;

boundaryField
{
    inlet
    {
        type            calculated;
        value           uniform -1.225e-06;
    }
    outlet
    {
        type            calculated;
        value           uniform 1.25435e-06;
    }
    yzfaces
    {
        type            empty;
    }
}


// ************************************************************************* //
