/*--------------------------------*- C++ -*----------------------------------*\
| =========                 |                                                 |
| \\      /  F ield         | foam-extend: Open Source CFD                    |
|  \\    /   O peration     | Version:     5.0                                |
|   \\  /    A nd           | Web:         http://www.foam-extend.org         |
|    \\/     M anipulation  |                                                 |
\*---------------------------------------------------------------------------*/
FoamFile
{
    version     2.0;
    format      ascii;
    class       surfaceScalarField;
    location    "4";
    object      phi.water;
}
// * * * * * * * * * * * * * * * * * * * * * * * * * * * * * * * * * * * * * //

dimensions      [0 3 -1 0 0 0 0];

internalField   nonuniform List<scalar> 
99
(
1.27515e-07
2.21355e-07
3.08222e-07
3.86019e-07
4.6059e-07
5.31273e-07
6.06128e-07
6.67153e-07
7.40164e-07
8.08553e-07
8.93843e-07
9.45629e-07
1.00835e-06
1.05996e-06
1.11341e-06
1.16069e-06
1.20799e-06
1.24941e-06
1.31308e-06
1.3796e-06
1.43883e-06
1.50904e-06
1.56994e-06
1.61954e-06
1.67205e-06
1.73133e-06
1.78497e-06
1.86269e-06
1.93204e-06
1.99067e-06
2.0635e-06
2.14053e-06
2.22777e-06
2.3085e-06
2.39865e-06
2.47904e-06
2.58556e-06
2.6933e-06
2.852e-06
3.01698e-06
3.18425e-06
3.15667e-06
5.71069e-06
4.75595e-06
4.32071e-06
4.13459e-06
4.08138e-06
4.07266e-06
4.0788e-06
4.09272e-06
4.11004e-06
4.12823e-06
4.14522e-06
4.16566e-06
4.19227e-06
4.22394e-06
4.26061e-06
4.31228e-06
4.35726e-06
4.41667e-06
4.4854e-06
4.5675e-06
4.66331e-06
4.76775e-06
4.87869e-06
5.00938e-06
5.14696e-06
5.29937e-06
5.45707e-06
5.6239e-06
5.78512e-06
5.92589e-06
6.04288e-06
6.1226e-06
6.17816e-06
6.22045e-06
6.24221e-06
6.25811e-06
6.25793e-06
6.25844e-06
6.26685e-06
6.27817e-06
6.27043e-06
6.28277e-06
6.28422e-06
6.28882e-06
6.28136e-06
6.28698e-06
6.28524e-06
6.28422e-06
6.2848e-06
6.28984e-06
6.29519e-06
6.29713e-06
6.29109e-06
6.29269e-06
6.29594e-06
6.31166e-06
6.30811e-06
)
;

boundaryField
{
    inlet
    {
        type            fixedValue;
        value           uniform 0;
    }
    outlet
    {
        type            calculated;
        value           uniform 6.29727e-06;
    }
    yzfaces
    {
        type            empty;
    }
}


// ************************************************************************* //
