/*--------------------------------*- C++ -*----------------------------------*\
| =========                 |                                                 |
| \\      /  F ield         | foam-extend: Open Source CFD                    |
|  \\    /   O peration     | Version:     5.0                                |
|   \\  /    A nd           | Web:         http://www.foam-extend.org         |
|    \\/     M anipulation  |                                                 |
\*---------------------------------------------------------------------------*/
FoamFile
{
    version     2.0;
    format      ascii;
    class       volVectorField;
    location    "4";
    object      U.gas;
}
// * * * * * * * * * * * * * * * * * * * * * * * * * * * * * * * * * * * * * //

dimensions      [0 1 -1 0 0 0 0];

internalField   nonuniform List<vector> 
100
(
(0.00658345 0 0)
(0.00727736 0 0)
(0.00783339 0 0)
(0.00827704 0 0)
(0.0086678 0 0)
(0.00899293 0 0)
(0.0093342 0 0)
(0.0096005 0 0)
(0.00986434 0 0)
(0.0100853 0 0)
(0.0103593 0 0)
(0.0105708 0 0)
(0.0107439 0 0)
(0.0108824 0 0)
(0.0110221 0 0)
(0.0111399 0 0)
(0.0112738 0 0)
(0.011378 0 0)
(0.0115115 0 0)
(0.0116575 0 0)
(0.011793 0 0)
(0.0119335 0 0)
(0.0120682 0 0)
(0.0121689 0 0)
(0.0122438 0 0)
(0.0123303 0 0)
(0.012401 0 0)
(0.0125246 0 0)
(0.0126636 0 0)
(0.0127557 0 0)
(0.0128482 0 0)
(0.0129446 0 0)
(0.0130689 0 0)
(0.0131787 0 0)
(0.0132848 0 0)
(0.0133609 0 0)
(0.0134636 0 0)
(0.013543 0 0)
(0.0136459 0 0)
(0.0137328 0 0)
(0.0137599 0 0)
(0.0137354 0 0)
(0.0184391 0 0)
(0.00935704 0 0)
(0.0117047 0 0)
(0.0125603 0 0)
(0.012891 0 0)
(0.0130234 0 0)
(0.0130601 0 0)
(0.013064 0 0)
(0.0130632 0 0)
(0.0130573 0 0)
(0.0130442 0 0)
(0.0130295 0 0)
(0.0130138 0 0)
(0.0129996 0 0)
(0.0129675 0 0)
(0.0129318 0 0)
(0.0128812 0 0)
(0.0128109 0 0)
(0.0127211 0 0)
(0.0126164 0 0)
(0.0124941 0 0)
(0.0123356 0 0)
(0.0121349 0 0)
(0.0118871 0 0)
(0.011576 0 0)
(0.0111857 0 0)
(0.0107101 0 0)
(0.0101266 0 0)
(0.00944224 0 0)
(0.00866673 0 0)
(0.00784247 0 0)
(0.0070352 0 0)
(0.00632626 0 0)
(0.00576857 0 0)
(0.0053749 0 0)
(0.00511803 0 0)
(0.00495626 0 0)
(0.00485895 0 0)
(0.00480681 0 0)
(0.00478282 0 0)
(0.00476532 0 0)
(0.00475532 0 0)
(0.00475525 0 0)
(0.00475505 0 0)
(0.00475208 0 0)
(0.00475057 0 0)
(0.00475281 0 0)
(0.00475171 0 0)
(0.00475325 0 0)
(0.0047567 0 0)
(0.00476063 0 0)
(0.0047633 0 0)
(0.00476263 0 0)
(0.0047612 0 0)
(0.00476096 0 0)
(0.00476394 0 0)
(0.00476891 0 0)
(0.00476792 0 0)
)
;

boundaryField
{
    inlet
    {
        type            fixedValue;
        value           uniform (0.005 0 0);
    }
    outlet
    {
        type            zeroGradient;
    }
    yzfaces
    {
        type            empty;
    }
}


// ************************************************************************* //
