/*--------------------------------*- C++ -*----------------------------------*\
| =========                 |                                                 |
| \\      /  F ield         | foam-extend: Open Source CFD                    |
|  \\    /   O peration     | Version:     5.0                                |
|   \\  /    A nd           | Web:         http://www.foam-extend.org         |
|    \\/     M anipulation  |                                                 |
\*---------------------------------------------------------------------------*/
FoamFile
{
    version     2.0;
    format      ascii;
    class       volVectorField;
    location    "4";
    object      U.water;
}
// * * * * * * * * * * * * * * * * * * * * * * * * * * * * * * * * * * * * * //

dimensions      [0 1 -1 0 0 0 0];

internalField   nonuniform List<vector> 
100
(
(6.01867e-05 0 0)
(0.000143405 0 0)
(0.000215871 0 0)
(0.000283413 0 0)
(0.000345141 0 0)
(0.000404076 0 0)
(0.000462384 0 0)
(0.000517883 0 0)
(0.000570359 0 0)
(0.000626454 0 0)
(0.000687413 0 0)
(0.000745877 0 0)
(0.000793549 0 0)
(0.0008425 0 0)
(0.000886659 0 0)
(0.0009298 0 0)
(0.000970278 0 0)
(0.00100738 0 0)
(0.00104734 0 0)
(0.00109956 0 0)
(0.00115158 0 0)
(0.00120413 0 0)
(0.00125844 0 0)
(0.0013037 0 0)
(0.00134463 0 0)
(0.00138983 0 0)
(0.00143627 0 0)
(0.00148785 0 0)
(0.00154593 0 0)
(0.0015973 0 0)
(0.00165035 0 0)
(0.00171268 0 0)
(0.00177974 0 0)
(0.00184918 0 0)
(0.00192069 0 0)
(0.00199227 0 0)
(0.00206714 0 0)
(0.00215307 0 0)
(0.00226015 0 0)
(0.00239218 0 0)
(0.00252853 0 0)
(0.00266745 0 0)
(0.00347175 0 0)
(0.00430234 0 0)
(0.0037163 0 0)
(0.00345596 0 0)
(0.00335488 0 0)
(0.00332866 0 0)
(0.00332717 0 0)
(0.00333467 0 0)
(0.00334732 0 0)
(0.00336271 0 0)
(0.00337815 0 0)
(0.00339383 0 0)
(0.00341357 0 0)
(0.00343841 0 0)
(0.00346676 0 0)
(0.00350256 0 0)
(0.00354264 0 0)
(0.00358526 0 0)
(0.00363694 0 0)
(0.00369758 0 0)
(0.00376894 0 0)
(0.00385014 0 0)
(0.00393828 0 0)
(0.00403687 0 0)
(0.00414514 0 0)
(0.00426246 0 0)
(0.00438718 0 0)
(0.00451633 0 0)
(0.00464846 0 0)
(0.00477262 0 0)
(0.00487911 0 0)
(0.00496151 0 0)
(0.00501869 0 0)
(0.00505864 0 0)
(0.00508409 0 0)
(0.00509822 0 0)
(0.00510415 0 0)
(0.00510561 0 0)
(0.00511003 0 0)
(0.00511831 0 0)
(0.00511965 0 0)
(0.00511976 0 0)
(0.00512452 0 0)
(0.00512821 0 0)
(0.00512742 0 0)
(0.00512622 0 0)
(0.0051283 0 0)
(0.00512851 0 0)
(0.0051304 0 0)
(0.0051347 0 0)
(0.00513947 0 0)
(0.00514221 0 0)
(0.00514035 0 0)
(0.00513804 0 0)
(0.00513731 0 0)
(0.0051415 0 0)
(0.00514611 0 0)
(0.00514204 0 0)
)
;

boundaryField
{
    inlet
    {
        type            fixedValue;
        value           uniform (0 0 0);
    }
    outlet
    {
        type            zeroGradient;
    }
    yzfaces
    {
        type            empty;
    }
}


// ************************************************************************* //
