/*--------------------------------*- C++ -*----------------------------------*\
| =========                 |                                                 |
| \\      /  F ield         | foam-extend: Open Source CFD                    |
|  \\    /   O peration     | Version:     5.0                                |
|   \\  /    A nd           | Web:         http://www.foam-extend.org         |
|    \\/     M anipulation  |                                                 |
\*---------------------------------------------------------------------------*/
FoamFile
{
    version     2.0;
    format      ascii;
    class       volScalarField;
    location    "1";
    object      alpha.gas;
}
// * * * * * * * * * * * * * * * * * * * * * * * * * * * * * * * * * * * * * //

dimensions      [0 0 0 0 0 0 0];

internalField   nonuniform List<scalar> 
100
(
0.115605
0.0973927
0.0861483
0.0784549
0.0723339
0.0672719
0.0629424
0.05914
0.055749
0.052511
0.0495502
0.0466599
0.0438934
0.0412038
0.0385019
0.0357667
0.0329983
0.0301561
0.0272303
0.0242523
0.0212908
0.0184744
0.0159468
0.0138873
0.0123722
0.0113612
0.010748
0.0103955
0.010205
0.0101054
0.0100543
0.0100272
0.0100137
0.0100072
0.0100039
0.00999919
0.00999884
0.00999923
0.0100007
0.00999994
0.0100022
0.0100016
0.0100004
0.0100001
0.00999841
0.00999967
0.00999932
0.00999982
0.0100003
0.00999998
0.00999938
0.00999802
0.00999791
0.00999835
0.00999838
0.00999921
0.00999716
0.00999613
0.00999603
0.00999822
0.00999982
0.0100017
0.0100006
0.0100006
0.0100017
0.0100018
0.0100027
0.0100039
0.0100023
0.0100001
0.00999946
0.00999867
0.00999793
0.00999735
0.00999602
0.00999525
0.00999627
0.00999728
0.00999748
0.00999768
0.00999676
0.00999844
0.0100016
0.0100021
0.0100044
0.0100055
0.0100028
0.0100041
0.0100056
0.0100057
0.0100043
0.0100033
0.0100025
0.010002
0.0100029
0.010005
0.0100019
0.0100048
0.0100052
0.0100082
)
;

boundaryField
{
    inlet
    {
        type            fixedValue;
        value           uniform 0.2;
    }
    outlet
    {
        type            zeroGradient;
    }
    yzfaces
    {
        type            empty;
    }
}


// ************************************************************************* //
