/*--------------------------------*- C++ -*----------------------------------*\
| =========                 |                                                 |
| \\      /  F ield         | foam-extend: Open Source CFD                    |
|  \\    /   O peration     | Version:     5.0                                |
|   \\  /    A nd           | Web:         http://www.foam-extend.org         |
|    \\/     M anipulation  |                                                 |
\*---------------------------------------------------------------------------*/
FoamFile
{
    version     2.0;
    format      ascii;
    class       volScalarField;
    location    "1";
    object      Na.water;
}
// * * * * * * * * * * * * * * * * * * * * * * * * * * * * * * * * * * * * * //

dimensions      [0 0 0 0 0 0 0];

internalField   nonuniform List<scalar> 
100
(
0.0172545
0.0209938
0.0232068
0.0248487
0.026058
0.027059
0.0279956
0.0287161
0.0294704
0.0300758
0.0307213
0.031264
0.0318489
0.0324209
0.0329792
0.034547
0.0351669
0.0357564
0.0363997
0.0370385
0.037656
0.0382417
0.0387154
0.0391738
0.0394939
0.039701
0.0398651
0.0399348
0.039992
0.0400211
0.0400411
0.0400391
0.0399821
0.039997
0.0400014
0.0400182
0.0400516
0.0400181
0.0400178
0.0400345
0.040001
0.0400097
0.0400124
0.0399757
0.0400022
0.0399523
0.0399936
0.0400159
0.039995
0.0400178
0.039997
0.0399968
0.0400004
0.0400045
0.0400168
0.0399967
0.0400356
0.0400456
0.0400274
0.0399921
0.0399913
0.039965
0.0399619
0.0400036
0.0399921
0.0399837
0.039971
0.0399472
0.0399673
0.0400033
0.0400039
0.0400141
0.0400178
0.0400148
0.0400284
0.0400596
0.0400111
0.0400231
0.0400442
0.0400283
0.0400313
0.0400013
0.0400028
0.0400151
0.040006
0.0399732
0.0399958
0.0399823
0.0400134
0.0400069
0.0399906
0.0400184
0.0400055
0.0400138
0.0400253
0.0400157
0.040057
0.0399855
0.0400126
0.0399844
)
;

boundaryField
{
    inlet
    {
        type            fixedValue;
        value           uniform 0;
    }
    outlet
    {
        type            zeroGradient;
    }
    yzfaces
    {
        type            empty;
    }
}


// ************************************************************************* //
