/*--------------------------------*- C++ -*----------------------------------*\
| =========                 |                                                 |
| \\      /  F ield         | foam-extend: Open Source CFD                    |
|  \\    /   O peration     | Version:     5.0                                |
|   \\  /    A nd           | Web:         http://www.foam-extend.org         |
|    \\/     M anipulation  |                                                 |
\*---------------------------------------------------------------------------*/
FoamFile
{
    version     2.0;
    format      ascii;
    class       volVectorField;
    location    "1";
    object      U.gas;
}
// * * * * * * * * * * * * * * * * * * * * * * * * * * * * * * * * * * * * * //

dimensions      [0 1 -1 0 0 0 0];

internalField   nonuniform List<vector> 
100
(
(0.00851522 0 0)
(0.0097959 0 0)
(0.0107296 0 0)
(0.0113859 0 0)
(0.0119286 0 0)
(0.0123782 0 0)
(0.0127318 0 0)
(0.0130317 0 0)
(0.0132634 0 0)
(0.0134608 0 0)
(0.0135775 0 0)
(0.0136397 0 0)
(0.0136446 0 0)
(0.0135848 0 0)
(0.0134622 0 0)
(0.0132788 0 0)
(0.0130021 0 0)
(0.0126145 0 0)
(0.0120887 0 0)
(0.0114006 0 0)
(0.0105431 0 0)
(0.00952694 0 0)
(0.00843175 0 0)
(0.00736561 0 0)
(0.00643853 0 0)
(0.00573402 0 0)
(0.00526216 0 0)
(0.00497758 0 0)
(0.00481191 0 0)
(0.00471864 0 0)
(0.00466943 0 0)
(0.00464119 0 0)
(0.00462724 0 0)
(0.0046241 0 0)
(0.00461949 0 0)
(0.00462008 0 0)
(0.00462166 0 0)
(0.00462218 0 0)
(0.00462386 0 0)
(0.00462418 0 0)
(0.0046198 0 0)
(0.00461782 0 0)
(0.0046186 0 0)
(0.00462188 0 0)
(0.00462342 0 0)
(0.00462198 0 0)
(0.00462554 0 0)
(0.00462803 0 0)
(0.00462916 0 0)
(0.004626 0 0)
(0.0046238 0 0)
(0.00462466 0 0)
(0.00462251 0 0)
(0.00462195 0 0)
(0.00462196 0 0)
(0.0046224 0 0)
(0.00462774 0 0)
(0.00462367 0 0)
(0.00461459 0 0)
(0.00461192 0 0)
(0.00461019 0 0)
(0.00461095 0 0)
(0.00461766 0 0)
(0.0046211 0 0)
(0.0046229 0 0)
(0.00462365 0 0)
(0.0046195 0 0)
(0.00461778 0 0)
(0.00462006 0 0)
(0.00462154 0 0)
(0.00462032 0 0)
(0.00461767 0 0)
(0.00461424 0 0)
(0.00461588 0 0)
(0.00462223 0 0)
(0.00462248 0 0)
(0.00462192 0 0)
(0.00462632 0 0)
(0.00462731 0 0)
(0.00462653 0 0)
(0.00462701 0 0)
(0.00462769 0 0)
(0.0046284 0 0)
(0.00462319 0 0)
(0.00461656 0 0)
(0.0046149 0 0)
(0.00461718 0 0)
(0.00461742 0 0)
(0.00461815 0 0)
(0.00461755 0 0)
(0.00461643 0 0)
(0.00461214 0 0)
(0.00460583 0 0)
(0.0046061 0 0)
(0.00460506 0 0)
(0.00460726 0 0)
(0.00460967 0 0)
(0.00460406 0 0)
(0.00460233 0 0)
(0.00460178 0 0)
)
;

boundaryField
{
    inlet
    {
        type            fixedValue;
        value           uniform (0.005 0 0);
    }
    outlet
    {
        type            zeroGradient;
    }
    yzfaces
    {
        type            empty;
    }
}


// ************************************************************************* //
