/*--------------------------------*- C++ -*----------------------------------*\
| =========                 |                                                 |
| \\      /  F ield         | foam-extend: Open Source CFD                    |
|  \\    /   O peration     | Version:     5.0                                |
|   \\  /    A nd           | Web:         http://www.foam-extend.org         |
|    \\/     M anipulation  |                                                 |
\*---------------------------------------------------------------------------*/
FoamFile
{
    version     2.0;
    format      ascii;
    class       volScalarField;
    location    "8";
    object      Cl.water;
}
// * * * * * * * * * * * * * * * * * * * * * * * * * * * * * * * * * * * * * //

dimensions      [0 0 0 0 0 0 0];

internalField   nonuniform List<scalar> 
100
(
0.00369846
0.00528269
0.00630981
0.00707593
0.00774161
0.008249
0.00837692
0.00884922
0.00952164
0.00998909
0.01018
0.0105389
0.0108109
0.0110786
0.0112351
0.0114198
0.0116063
0.0117999
0.0119758
0.0121186
0.0123189
0.0124878
0.0127049
0.0129488
0.0131138
0.0132248
0.0133231
0.0134135
0.0134525
0.0134677
0.0136257
0.0137467
0.0138401
0.013928
0.0140295
0.0141402
0.0142446
0.0143329
0.0143894
0.0144264
0.0145196
0.0146152
0.0147325
0.0148244
0.0149268
0.0150257
0.0150988
0.0151598
0.0152562
0.0153181
0.015406
0.0154439
0.015534
0.0156115
0.0156723
0.0157461
0.0158144
0.0158874
0.0159502
0.0160405
0.0161338
0.016225
0.0163141
0.0164113
0.0165307
0.0166704
0.0167985
0.016961
0.0171379
0.0174116
0.0177894
0.0184835
0.0198095
0.0225542
0.0210307
0.0211655
0.0211911
0.0212071
0.0212297
0.0212421
0.021239
0.0212579
0.0212546
0.0212717
0.0212765
0.0212531
0.0212346
0.0212295
0.021222
0.0212055
0.0211957
0.0211908
0.0211758
0.0211764
0.021173
0.0211725
0.0211654
0.021145
0.021137
0.0211279
)
;

boundaryField
{
    inlet
    {
        type            fixedValue;
        value           uniform 0;
    }
    outlet
    {
        type            zeroGradient;
    }
    yzfaces
    {
        type            empty;
    }
}


// ************************************************************************* //
