/*--------------------------------*- C++ -*----------------------------------*\
| =========                 |                                                 |
| \\      /  F ield         | foam-extend: Open Source CFD                    |
|  \\    /   O peration     | Version:     5.0                                |
|   \\  /    A nd           | Web:         http://www.foam-extend.org         |
|    \\/     M anipulation  |                                                 |
\*---------------------------------------------------------------------------*/
FoamFile
{
    version     2.0;
    format      ascii;
    class       volScalarField;
    location    "8";
    object      CO2.gas;
}
// * * * * * * * * * * * * * * * * * * * * * * * * * * * * * * * * * * * * * //

dimensions      [0 0 0 0 0 0 0];

internalField   nonuniform List<scalar> 
100
(
0.167316
0.152666
0.142353
0.134318
0.130197
0.127165
0.126494
0.122461
0.116828
0.112761
0.11098
0.107915
0.105386
0.103252
0.101875
0.0996822
0.0975047
0.0959545
0.0942748
0.091991
0.0905604
0.0885434
0.0862353
0.0850951
0.0844886
0.0841832
0.0836361
0.0830313
0.0826485
0.0824553
0.0809947
0.079872
0.0791351
0.0782722
0.0771771
0.0761579
0.0754286
0.0750473
0.0745082
0.0738257
0.0728894
0.0717255
0.0707434
0.0699078
0.06932
0.0689594
0.0683053
0.0674534
0.0668254
0.0659175
0.0655507
0.0648527
0.0643637
0.0638616
0.0631901
0.0624887
0.061925
0.0613575
0.0605647
0.0596967
0.0589743
0.0583596
0.0575986
0.056731
0.0557311
0.0546879
0.0536273
0.0521668
0.0506616
0.0482826
0.044772
0.0388785
0.0268121
7.29216e-05
0.0239324
0.0236178
0.0231772
0.0226275
0.0220146
0.0213399
0.0206213
0.0199035
0.0191589
0.0184132
0.0176478
0.0168442
0.0160181
0.0151944
0.0143573
0.0134967
0.0126429
0.0117886
0.0109289
0.0100907
0.00925851
0.00845768
0.00768209
0.00692636
0.00621306
0.00554681
)
;

boundaryField
{
    inlet
    {
        type            fixedValue;
        value           uniform 0.2;
    }
    outlet
    {
        type            zeroGradient;
    }
    yzfaces
    {
        type            empty;
    }
}


// ************************************************************************* //
