/*--------------------------------*- C++ -*----------------------------------*\
| =========                 |                                                 |
| \\      /  F ield         | foam-extend: Open Source CFD                    |
|  \\    /   O peration     | Version:     5.0                                |
|   \\  /    A nd           | Web:         http://www.foam-extend.org         |
|    \\/     M anipulation  |                                                 |
\*---------------------------------------------------------------------------*/
FoamFile
{
    version     2.0;
    format      ascii;
    class       volScalarField;
    location    "8";
    object      CO2.water;
}
// * * * * * * * * * * * * * * * * * * * * * * * * * * * * * * * * * * * * * //

dimensions      [0 0 0 0 0 0 0];

internalField   nonuniform List<scalar> 
100
(
0.000847649
0.00120779
0.00144528
0.0016189
0.00177159
0.00188904
0.00191799
0.00202401
0.00217706
0.00228448
0.00232831
0.00241004
0.00247043
0.00253523
0.00257073
0.00261351
0.0026563
0.00269985
0.00273898
0.00277256
0.00281825
0.00285696
0.00290685
0.00296178
0.00299927
0.00302469
0.00304782
0.00306758
0.00307627
0.00307869
0.00311759
0.00314353
0.00316598
0.00318699
0.00320994
0.0032345
0.00325718
0.00327833
0.00329171
0.00330135
0.00332219
0.00334299
0.00336944
0.00339029
0.0034142
0.00343563
0.00345135
0.00346632
0.00349012
0.00350508
0.0035254
0.00353309
0.00355344
0.00357091
0.00358493
0.00360036
0.0036147
0.00363322
0.0036478
0.00366957
0.00368898
0.0037105
0.00373175
0.00375341
0.00378192
0.00381316
0.00384129
0.00387943
0.00391969
0.00398221
0.00406885
0.00422742
0.00453663
0.00520668
0.000689163
0.000245605
8.78771e-05
3.18126e-05
1.16137e-05
4.25879e-06
1.56192e-06
5.72738e-07
2.09453e-07
7.63962e-08
2.77682e-08
1.00428e-08
3.62017e-09
1.3024e-09
4.67117e-10
1.66972e-10
5.95734e-11
2.1218e-11
7.54028e-12
2.67749e-12
9.49259e-13
3.3646e-13
1.19147e-13
4.21539e-14
1.49465e-14
5.32895e-15
)
;

boundaryField
{
    inlet
    {
        type            fixedValue;
        value           uniform 0;
    }
    outlet
    {
        type            zeroGradient;
    }
    yzfaces
    {
        type            empty;
    }
}


// ************************************************************************* //
