/*--------------------------------*- C++ -*----------------------------------*\
| =========                 |                                                 |
| \\      /  F ield         | foam-extend: Open Source CFD                    |
|  \\    /   O peration     | Version:     5.0                                |
|   \\  /    A nd           | Web:         http://www.foam-extend.org         |
|    \\/     M anipulation  |                                                 |
\*---------------------------------------------------------------------------*/
FoamFile
{
    version     2.0;
    format      ascii;
    class       volScalarField;
    location    "8";
    object      H2O.water;
}
// * * * * * * * * * * * * * * * * * * * * * * * * * * * * * * * * * * * * * //

dimensions      [0 0 0 0 0 0 0];

internalField   nonuniform List<scalar> 
100
(
0.0240286
0.0342095
0.0409394
0.0458739
0.0502077
0.0535271
0.0543479
0.0573383
0.0616732
0.0647188
0.0659638
0.0682781
0.0700264
0.0718332
0.0728273
0.0740476
0.0752424
0.0764793
0.0776524
0.0785646
0.0798493
0.0809599
0.0823196
0.0838899
0.0849695
0.0857087
0.0863471
0.086908
0.0871512
0.0872084
0.0883292
0.0890877
0.0896808
0.0902775
0.0909255
0.0916493
0.092289
0.0928791
0.0932587
0.0935187
0.0941228
0.0947201
0.0954586
0.0960372
0.0967248
0.0972966
0.0977737
0.0982167
0.0988972
0.0993176
0.0998633
0.100048
0.100657
0.10118
0.10158
0.102005
0.102395
0.102889
0.103309
0.103914
0.104472
0.105132
0.1057
0.106367
0.107131
0.10803
0.108821
0.109908
0.111073
0.112819
0.115276
0.119778
0.128589
0.147945
0.132364
0.132703
0.132722
0.132782
0.13295
0.133051
0.133038
0.133127
0.133098
0.133161
0.133184
0.13307
0.132968
0.132942
0.132909
0.132768
0.132676
0.132634
0.132543
0.132573
0.132563
0.132566
0.132521
0.132386
0.132373
0.132293
)
;

boundaryField
{
    inlet
    {
        type            fixedValue;
        value           uniform 0;
    }
    outlet
    {
        type            zeroGradient;
    }
    yzfaces
    {
        type            empty;
    }
}


// ************************************************************************* //
