/*--------------------------------*- C++ -*----------------------------------*\
| =========                 |                                                 |
| \\      /  F ield         | foam-extend: Open Source CFD                    |
|  \\    /   O peration     | Version:     5.0                                |
|   \\  /    A nd           | Web:         http://www.foam-extend.org         |
|    \\/     M anipulation  |                                                 |
\*---------------------------------------------------------------------------*/
FoamFile
{
    version     2.0;
    format      ascii;
    class       volScalarField;
    location    "8";
    object      Na.water;
}
// * * * * * * * * * * * * * * * * * * * * * * * * * * * * * * * * * * * * * //

dimensions      [0 0 0 0 0 0 0];

internalField   nonuniform List<scalar> 
100
(
0.0036988
0.00528318
0.00630847
0.0070803
0.00774853
0.00825767
0.00838301
0.00885104
0.00951786
0.00998735
0.0101763
0.0105337
0.0108006
0.0110797
0.0112452
0.0114265
0.0116135
0.0118037
0.0119809
0.0121209
0.012322
0.0124918
0.0127102
0.0129494
0.0131118
0.0132166
0.0133159
0.0134064
0.0134465
0.0134638
0.0136272
0.0137417
0.0138352
0.0139265
0.0140297
0.0141393
0.0142362
0.0143282
0.0143893
0.0144269
0.0145214
0.0146175
0.0147294
0.0148256
0.0149303
0.0150218
0.0150919
0.0151557
0.0152711
0.0153295
0.0154158
0.0154467
0.0155326
0.0156128
0.0156758
0.0157365
0.0157959
0.0158768
0.0159423
0.0160368
0.016127
0.0162266
0.0163101
0.016408
0.016536
0.0166693
0.0167927
0.0169572
0.0171326
0.017406
0.017782
0.0184668
0.0197931
0.0225335
0.0210115
0.0211505
0.0211786
0.0211974
0.0212267
0.0212429
0.0212405
0.0212638
0.0212617
0.0212778
0.0212861
0.0212674
0.0212463
0.0212429
0.0212345
0.0212188
0.0212128
0.0212043
0.0211908
0.0211936
0.0211898
0.0211913
0.0211816
0.0211645
0.0211586
0.0211567
)
;

boundaryField
{
    inlet
    {
        type            fixedValue;
        value           uniform 0;
    }
    outlet
    {
        type            zeroGradient;
    }
    yzfaces
    {
        type            empty;
    }
}


// ************************************************************************* //
