/*--------------------------------*- C++ -*----------------------------------*\
| =========                 |                                                 |
| \\      /  F ield         | foam-extend: Open Source CFD                    |
|  \\    /   O peration     | Version:     5.0                                |
|   \\  /    A nd           | Web:         http://www.foam-extend.org         |
|    \\/     M anipulation  |                                                 |
\*---------------------------------------------------------------------------*/
FoamFile
{
    version     2.0;
    format      ascii;
    class       volVectorField;
    location    "8";
    object      U.gas;
}
// * * * * * * * * * * * * * * * * * * * * * * * * * * * * * * * * * * * * * //

dimensions      [0 1 -1 0 0 0 0];

internalField   nonuniform List<vector> 
100
(
(0.00594245 0 0)
(0.00649882 0 0)
(0.00691036 0 0)
(0.00730267 0 0)
(0.00766656 0 0)
(0.0078993 0 0)
(0.00790081 0 0)
(0.00814478 0 0)
(0.00849388 0 0)
(0.00874315 0 0)
(0.00880802 0 0)
(0.00902085 0 0)
(0.00918577 0 0)
(0.00932997 0 0)
(0.00945681 0 0)
(0.00955312 0 0)
(0.00965168 0 0)
(0.00975642 0 0)
(0.00983554 0 0)
(0.009948 0 0)
(0.010071 0 0)
(0.010182 0 0)
(0.0103204 0 0)
(0.0104789 0 0)
(0.0106003 0 0)
(0.0106627 0 0)
(0.0107541 0 0)
(0.0108146 0 0)
(0.0108431 0 0)
(0.0108363 0 0)
(0.0109235 0 0)
(0.0110255 0 0)
(0.0110807 0 0)
(0.0111378 0 0)
(0.0112057 0 0)
(0.0112533 0 0)
(0.0113422 0 0)
(0.0114243 0 0)
(0.0114553 0 0)
(0.0115243 0 0)
(0.0115957 0 0)
(0.0116553 0 0)
(0.0117318 0 0)
(0.0118338 0 0)
(0.0119244 0 0)
(0.0119688 0 0)
(0.012005 0 0)
(0.0120676 0 0)
(0.01213 0 0)
(0.0121848 0 0)
(0.0122105 0 0)
(0.0122875 0 0)
(0.0123582 0 0)
(0.0123805 0 0)
(0.0124226 0 0)
(0.0125054 0 0)
(0.0125467 0 0)
(0.0125784 0 0)
(0.0126413 0 0)
(0.0127337 0 0)
(0.012789 0 0)
(0.0128264 0 0)
(0.0128923 0 0)
(0.0129722 0 0)
(0.0130595 0 0)
(0.0131238 0 0)
(0.0131875 0 0)
(0.0132697 0 0)
(0.0133571 0 0)
(0.013498 0 0)
(0.0137498 0 0)
(0.014116 0 0)
(0.0148948 0 0)
(0.0113424 0 0)
(0.0105427 0 0)
(0.0104393 0 0)
(0.0104588 0 0)
(0.010473 0 0)
(0.0104687 0 0)
(0.0104588 0 0)
(0.0104409 0 0)
(0.0104241 0 0)
(0.0104187 0 0)
(0.0104098 0 0)
(0.0103993 0 0)
(0.0104061 0 0)
(0.0104329 0 0)
(0.0104575 0 0)
(0.0104807 0 0)
(0.0105127 0 0)
(0.0105388 0 0)
(0.0105648 0 0)
(0.0105909 0 0)
(0.0106189 0 0)
(0.0106531 0 0)
(0.0106784 0 0)
(0.0106893 0 0)
(0.0107014 0 0)
(0.0107226 0 0)
(0.0107463 0 0)
)
;

boundaryField
{
    inlet
    {
        type            fixedValue;
        value           uniform (0.005 0 0);
    }
    outlet
    {
        type            zeroGradient;
    }
    yzfaces
    {
        type            empty;
    }
}


// ************************************************************************* //
