/*--------------------------------*- C++ -*----------------------------------*\
| =========                 |                                                 |
| \\      /  F ield         | foam-extend: Open Source CFD                    |
|  \\    /   O peration     | Version:     5.0                                |
|   \\  /    A nd           | Web:         http://www.foam-extend.org         |
|    \\/     M anipulation  |                                                 |
\*---------------------------------------------------------------------------*/
FoamFile
{
    version     2.0;
    format      ascii;
    class       volVectorField;
    location    "8";
    object      U.water;
}
// * * * * * * * * * * * * * * * * * * * * * * * * * * * * * * * * * * * * * //

dimensions      [0 1 -1 0 0 0 0];

internalField   nonuniform List<vector> 
100
(
(3.19332e-05 0 0)
(7.75684e-05 0 0)
(0.000121862 0 0)
(0.000162469 0 0)
(0.000201159 0 0)
(0.000233443 0 0)
(0.000254218 0 0)
(0.000266791 0 0)
(0.000305457 0 0)
(0.000352589 0 0)
(0.00038497 0 0)
(0.000408941 0 0)
(0.000443347 0 0)
(0.000472721 0 0)
(0.000498607 0 0)
(0.000520587 0 0)
(0.000546189 0 0)
(0.00057398 0 0)
(0.000598464 0 0)
(0.000625294 0 0)
(0.000656213 0 0)
(0.00068508 0 0)
(0.000720356 0 0)
(0.000763339 0 0)
(0.000797198 0 0)
(0.00081809 0 0)
(0.000834203 0 0)
(0.00085025 0 0)
(0.000863223 0 0)
(0.000869353 0 0)
(0.000883731 0 0)
(0.000916792 0 0)
(0.000942477 0 0)
(0.000962337 0 0)
(0.000984659 0 0)
(0.00101074 0 0)
(0.00104103 0 0)
(0.0010657 0 0)
(0.00108103 0 0)
(0.00109618 0 0)
(0.00111902 0 0)
(0.00114721 0 0)
(0.00118162 0 0)
(0.00121729 0 0)
(0.00124891 0 0)
(0.0012729 0 0)
(0.00129138 0 0)
(0.00131727 0 0)
(0.00134583 0 0)
(0.00137435 0 0)
(0.00140252 0 0)
(0.00142678 0 0)
(0.00145283 0 0)
(0.00147524 0 0)
(0.00149994 0 0)
(0.00153202 0 0)
(0.00156095 0 0)
(0.00158561 0 0)
(0.00161539 0 0)
(0.0016549 0 0)
(0.00169701 0 0)
(0.00173262 0 0)
(0.00177028 0 0)
(0.00181461 0 0)
(0.00186619 0 0)
(0.00192305 0 0)
(0.00198159 0 0)
(0.00205206 0 0)
(0.00214109 0 0)
(0.00225685 0 0)
(0.00244663 0 0)
(0.00277514 0 0)
(0.00342124 0 0)
(0.00407453 0 0)
(0.00420751 0 0)
(0.00422549 0 0)
(0.00422219 0 0)
(0.0042233 0 0)
(0.00422927 0 0)
(0.00424076 0 0)
(0.00424831 0 0)
(0.00425226 0 0)
(0.00425649 0 0)
(0.00425327 0 0)
(0.00424498 0 0)
(0.00423968 0 0)
(0.00424004 0 0)
(0.00423811 0 0)
(0.00423234 0 0)
(0.00422735 0 0)
(0.0042209 0 0)
(0.00421425 0 0)
(0.00420832 0 0)
(0.00420543 0 0)
(0.00420557 0 0)
(0.00420267 0 0)
(0.00419373 0 0)
(0.0041872 0 0)
(0.00418772 0 0)
(0.0041897 0 0)
)
;

boundaryField
{
    inlet
    {
        type            fixedValue;
        value           uniform (0 0 0);
    }
    outlet
    {
        type            zeroGradient;
    }
    yzfaces
    {
        type            empty;
    }
}


// ************************************************************************* //
