/*--------------------------------*- C++ -*----------------------------------*\
| =========                 |                                                 |
| \\      /  F ield         | foam-extend: Open Source CFD                    |
|  \\    /   O peration     | Version:     5.0                                |
|   \\  /    A nd           | Web:         http://www.foam-extend.org         |
|    \\/     M anipulation  |                                                 |
\*---------------------------------------------------------------------------*/
FoamFile
{
    version     2.0;
    format      ascii;
    class       volScalarField;
    location    "8";
    object      CO2.gas;
}
// * * * * * * * * * * * * * * * * * * * * * * * * * * * * * * * * * * * * * //

dimensions      [0 0 0 0 0 0 0];

internalField   nonuniform List<scalar> 
100
(
0.16488
0.153175
0.14616
0.140441
0.134298
0.127991
0.124974
0.123198
0.120402
0.116504
0.11234
0.10932
0.106303
0.104054
0.101624
0.0993871
0.0977149
0.0959766
0.0944717
0.0927878
0.0916218
0.0901017
0.0888378
0.0871695
0.086306
0.0857993
0.085258
0.084668
0.0839078
0.0829912
0.0821226
0.0809187
0.0798658
0.0787065
0.0778116
0.0769664
0.0761638
0.0753387
0.0746273
0.073967
0.0732304
0.0724652
0.071742
0.0712532
0.0706452
0.0700599
0.069628
0.069071
0.0684575
0.0678744
0.0672842
0.0667405
0.0662484
0.0657339
0.065159
0.0646106
0.0641201
0.0636304
0.0632298
0.0627012
0.0621755
0.0616328
0.0611383
0.0606761
0.0602885
0.0598346
0.0593611
0.0589506
0.0585443
0.0581295
0.0577542
0.0573919
0.0570391
0.0566049
0.0562078
0.0557718
0.0553878
0.0550416
0.0547015
0.0543421
0.0539367
0.0536623
0.0533358
0.0530793
0.052755
0.0523979
0.0520489
0.0517611
0.0514057
0.0510835
0.0506696
0.0502933
0.0499492
0.0495301
0.0491164
0.0487902
0.0484121
0.0479658
0.0474914
0.0470709
)
;

boundaryField
{
    inlet
    {
        type            fixedValue;
        value           uniform 0.2;
    }
    outlet
    {
        type            zeroGradient;
    }
    yzfaces
    {
        type            empty;
    }
}


// ************************************************************************* //
