/*--------------------------------*- C++ -*----------------------------------*\
| =========                 |                                                 |
| \\      /  F ield         | foam-extend: Open Source CFD                    |
|  \\    /   O peration     | Version:     5.0                                |
|   \\  /    A nd           | Web:         http://www.foam-extend.org         |
|    \\/     M anipulation  |                                                 |
\*---------------------------------------------------------------------------*/
FoamFile
{
    version     2.0;
    format      ascii;
    class       volScalarField;
    location    "8";
    object      CO2.water;
}
// * * * * * * * * * * * * * * * * * * * * * * * * * * * * * * * * * * * * * //

dimensions      [0 0 0 0 0 0 0];

internalField   nonuniform List<scalar> 
100
(
0.000913423
0.00121462
0.0014002
0.00155954
0.00172939
0.0018736
0.00196543
0.00200058
0.00208155
0.00219599
0.00229684
0.00236862
0.00244266
0.0025133
0.00257736
0.00264657
0.00269404
0.00274022
0.00277793
0.00281845
0.00285984
0.00289853
0.002932
0.00295325
0.00296832
0.00298167
0.00300155
0.00301543
0.00302932
0.00306075
0.00308581
0.00312004
0.00314852
0.00317887
0.00320657
0.00323018
0.00324886
0.00326578
0.00328111
0.00329965
0.00331676
0.00333732
0.00335722
0.00337162
0.00338666
0.00340201
0.00341937
0.00343446
0.00345048
0.00346734
0.00348629
0.00350084
0.00351681
0.00352989
0.00354015
0.00355462
0.00356792
0.00358133
0.00359433
0.00360854
0.00362062
0.00363096
0.00364133
0.00365251
0.00366544
0.00367559
0.00368745
0.00370027
0.00371225
0.00372404
0.00373385
0.00374273
0.00375386
0.00376448
0.00377446
0.00378591
0.00379433
0.0038023
0.00381109
0.00382
0.00382744
0.00383771
0.00384541
0.00385565
0.00386373
0.0038717
0.00388012
0.00388853
0.00389662
0.00390659
0.00391602
0.00392678
0.00393714
0.00394674
0.0039563
0.00396606
0.00397756
0.00398944
0.0040021
0.00401644
)
;

boundaryField
{
    inlet
    {
        type            fixedValue;
        value           uniform 0;
    }
    outlet
    {
        type            zeroGradient;
    }
    yzfaces
    {
        type            empty;
    }
}


// ************************************************************************* //
