/*--------------------------------*- C++ -*----------------------------------*\
| =========                 |                                                 |
| \\      /  F ield         | foam-extend: Open Source CFD                    |
|  \\    /   O peration     | Version:     5.0                                |
|   \\  /    A nd           | Web:         http://www.foam-extend.org         |
|    \\/     M anipulation  |                                                 |
\*---------------------------------------------------------------------------*/
FoamFile
{
    version     2.0;
    format      ascii;
    class       volScalarField;
    location    "8";
    object      CO2.gas;
}
// * * * * * * * * * * * * * * * * * * * * * * * * * * * * * * * * * * * * * //

dimensions      [0 0 0 0 0 0 0];

internalField   nonuniform List<scalar> 
100
(
0.1649
0.153455
0.146403
0.140348
0.133894
0.128414
0.124924
0.123588
0.120512
0.116163
0.112331
0.109603
0.10679
0.104105
0.101671
0.0990407
0.0972368
0.0954823
0.0940491
0.0925095
0.0909367
0.0894665
0.0881944
0.0873869
0.0868144
0.086307
0.0855517
0.085024
0.0844962
0.0833019
0.0823495
0.0810491
0.0799667
0.0788136
0.077761
0.0768638
0.0761537
0.0755108
0.0749284
0.074224
0.0735737
0.0727923
0.0720362
0.0714889
0.0709175
0.070334
0.0696743
0.0691011
0.0684923
0.0678517
0.0671313
0.0665787
0.0659716
0.0654746
0.0650849
0.064535
0.0640295
0.0635201
0.0630261
0.0624858
0.0620269
0.0616339
0.0612398
0.0608153
0.0603239
0.0599382
0.0594873
0.0590001
0.0585452
0.058097
0.0577242
0.0573867
0.0569637
0.0565603
0.0561809
0.0557458
0.0554259
0.0551231
0.054789
0.0544504
0.0541676
0.0537774
0.0534848
0.0530959
0.0527887
0.052486
0.0521659
0.0518462
0.0515389
0.0511602
0.0508018
0.050393
0.0499993
0.0496345
0.049271
0.0489003
0.0484632
0.0480119
0.0475308
0.0469856
)
;

boundaryField
{
    inlet
    {
        type            fixedValue;
        value           uniform 0.2;
    }
    outlet
    {
        type            zeroGradient;
    }
    yzfaces
    {
        type            empty;
    }
}


// ************************************************************************* //
