/*--------------------------------*- C++ -*----------------------------------*\
| =========                 |                                                 |
| \\      /  F ield         | foam-extend: Open Source CFD                    |
|  \\    /   O peration     | Version:     5.0                                |
|   \\  /    A nd           | Web:         http://www.foam-extend.org         |
|    \\/     M anipulation  |                                                 |
\*---------------------------------------------------------------------------*/
FoamFile
{
    version     2.0;
    format      ascii;
    class       volScalarField;
    location    "8";
    object      H2O.gas;
}
// * * * * * * * * * * * * * * * * * * * * * * * * * * * * * * * * * * * * * //

dimensions      [0 0 0 0 0 0 0];

internalField   nonuniform List<scalar> 
100
(
0.000321765
0.000299432
0.000285672
0.000273857
0.000261263
0.00025057
0.000243761
0.000241154
0.000235151
0.000226665
0.000219187
0.000213865
0.000208375
0.000203138
0.000198387
0.000193255
0.000189735
0.000186312
0.000183515
0.000180511
0.000177442
0.000174573
0.000172091
0.000170516
0.000169398
0.000168408
0.000166935
0.000165905
0.000164875
0.000162545
0.000160686
0.000158149
0.000156037
0.000153787
0.000151733
0.000149982
0.000148597
0.000147342
0.000146206
0.000144831
0.000143562
0.000142038
0.000140562
0.000139494
0.000138379
0.000137241
0.000135954
0.000134835
0.000133647
0.000132397
0.000130991
0.000129913
0.000128728
0.000127759
0.000126998
0.000125925
0.000124939
0.000123945
0.000122981
0.000121927
0.000121031
0.000120264
0.000119495
0.000118667
0.000117708
0.000116956
0.000116076
0.000115125
0.000114238
0.000113363
0.000112636
0.000111977
0.000111152
0.000110364
0.000109624
0.000108775
0.000108151
0.00010756
0.000106908
0.000106247
0.000105696
0.000104934
0.000104363
0.000103604
0.000103005
0.000102414
0.00010179
0.000101166
0.000100566
9.98274e-05
9.91281e-05
9.83304e-05
9.75622e-05
9.68504e-05
9.61411e-05
9.54178e-05
9.45649e-05
9.36842e-05
9.27455e-05
9.16817e-05
)
;

boundaryField
{
    inlet
    {
        type            fixedValue;
        value           uniform 0;
    }
    outlet
    {
        type            zeroGradient;
    }
    yzfaces
    {
        type            empty;
    }
}


// ************************************************************************* //
