/*--------------------------------*- C++ -*----------------------------------*\
| =========                 |                                                 |
| \\      /  F ield         | foam-extend: Open Source CFD                    |
|  \\    /   O peration     | Version:     5.0                                |
|   \\  /    A nd           | Web:         http://www.foam-extend.org         |
|    \\/     M anipulation  |                                                 |
\*---------------------------------------------------------------------------*/
FoamFile
{
    version     2.0;
    format      ascii;
    class       volScalarField;
    location    "8";
    object      H2O.water;
}
// * * * * * * * * * * * * * * * * * * * * * * * * * * * * * * * * * * * * * //

dimensions      [0 0 0 0 0 0 0];

internalField   nonuniform List<scalar> 
100
(
0.0204981
0.0259929
0.0284809
0.0319542
0.0360636
0.0390046
0.0404955
0.0404885
0.0435148
0.0470322
0.0497292
0.0511953
0.0528323
0.0545944
0.0561572
0.0580432
0.0587685
0.0596093
0.0601221
0.0608658
0.061995
0.0627283
0.0633071
0.063448
0.0637016
0.063981
0.0645588
0.0647001
0.0650246
0.0661264
0.0666269
0.0675922
0.068136
0.0689439
0.069408
0.0698278
0.0701715
0.0704763
0.070715
0.071255
0.0715773
0.0721261
0.0725363
0.0726921
0.0730643
0.073473
0.0738823
0.0741409
0.074447
0.0747475
0.0752118
0.075547
0.0758728
0.0760433
0.0761895
0.0764779
0.0767815
0.0770865
0.0774034
0.0777039
0.0779241
0.0780947
0.0782936
0.0785881
0.0788757
0.0789763
0.0791761
0.0795165
0.0797362
0.0800071
0.0801972
0.0803072
0.0806187
0.0808695
0.0809698
0.0812729
0.0813591
0.0814437
0.0817203
0.0820695
0.0822593
0.0824304
0.0824928
0.0827609
0.0829562
0.083114
0.0833309
0.0834802
0.083725
0.0840378
0.0841861
0.0845478
0.0847587
0.0848248
0.0850568
0.0853166
0.0856875
0.0859623
0.0862341
0.0866682
)
;

boundaryField
{
    inlet
    {
        type            fixedValue;
        value           uniform 0;
    }
    outlet
    {
        type            zeroGradient;
    }
    yzfaces
    {
        type            empty;
    }
}


// ************************************************************************* //
