/*--------------------------------*- C++ -*----------------------------------*\
| =========                 |                                                 |
| \\      /  F ield         | foam-extend: Open Source CFD                    |
|  \\    /   O peration     | Version:     5.0                                |
|   \\  /    A nd           | Web:         http://www.foam-extend.org         |
|    \\/     M anipulation  |                                                 |
\*---------------------------------------------------------------------------*/
FoamFile
{
    version     2.0;
    format      ascii;
    class       volScalarField;
    location    "8";
    object      Na.water;
}
// * * * * * * * * * * * * * * * * * * * * * * * * * * * * * * * * * * * * * //

dimensions      [0 0 0 0 0 0 0];

internalField   nonuniform List<scalar> 
100
(
0.00668334
0.00952037
0.0117154
0.0129339
0.0140284
0.0152311
0.016191
0.0168402
0.0168282
0.0171883
0.0177122
0.0183089
0.0188633
0.0192833
0.0196921
0.0200336
0.0205523
0.0209844
0.0214223
0.021796
0.0220042
0.022358
0.0226923
0.0230232
0.0231833
0.0232903
0.0233721
0.0235526
0.0236442
0.0236797
0.0239016
0.024051
0.0243056
0.0244621
0.0247386
0.02497
0.0251438
0.0253063
0.0254699
0.0255414
0.0256957
0.0258038
0.0259673
0.0261532
0.0262485
0.0263313
0.026451
0.0265986
0.0267482
0.0269091
0.0270245
0.027115
0.0272498
0.0274082
0.0275286
0.0276495
0.0277431
0.0278367
0.0279167
0.0280343
0.0281503
0.0282556
0.0283532
0.0284108
0.0285077
0.0286495
0.0287618
0.028828
0.0289402
0.0290243
0.0291109
0.0292215
0.0292664
0.0293331
0.0294682
0.0295301
0.0296432
0.0297498
0.0297703
0.0297645
0.029817
0.0299127
0.0300295
0.0300878
0.0301376
0.0302058
0.0302522
0.0303315
0.0303656
0.0303956
0.0304974
0.030523
0.0306074
0.0307553
0.0308214
0.0308752
0.0308977
0.03098
0.0310782
0.0311186
)
;

boundaryField
{
    inlet
    {
        type            fixedValue;
        value           uniform 0;
    }
    outlet
    {
        type            zeroGradient;
    }
    yzfaces
    {
        type            empty;
    }
}


// ************************************************************************* //
