/*--------------------------------*- C++ -*----------------------------------*\
| =========                 |                                                 |
| \\      /  F ield         | foam-extend: Open Source CFD                    |
|  \\    /   O peration     | Version:     5.0                                |
|   \\  /    A nd           | Web:         http://www.foam-extend.org         |
|    \\/     M anipulation  |                                                 |
\*---------------------------------------------------------------------------*/
FoamFile
{
    version     2.0;
    format      ascii;
    class       surfaceScalarField;
    location    "8";
    object      phi;
}
// * * * * * * * * * * * * * * * * * * * * * * * * * * * * * * * * * * * * * //

dimensions      [0 3 -1 0 0 0 0];

internalField   nonuniform List<scalar> 
99
(
1.22391e-06
1.22699e-06
1.21887e-06
1.20936e-06
1.19392e-06
1.1928e-06
1.19953e-06
1.18155e-06
1.17898e-06
1.16585e-06
1.17296e-06
1.17127e-06
1.17492e-06
1.17596e-06
1.16551e-06
1.17099e-06
1.17089e-06
1.17553e-06
1.17472e-06
1.17197e-06
1.17903e-06
1.18286e-06
1.1778e-06
1.18383e-06
1.18224e-06
1.18164e-06
1.17718e-06
1.17746e-06
1.16588e-06
1.1664e-06
1.16245e-06
1.15658e-06
1.15363e-06
1.15636e-06
1.15528e-06
1.15018e-06
1.14786e-06
1.14849e-06
1.1471e-06
1.14583e-06
1.14364e-06
1.14231e-06
1.14807e-06
1.14905e-06
1.15186e-06
1.14893e-06
1.14619e-06
1.14048e-06
1.14171e-06
1.13985e-06
1.13798e-06
1.13471e-06
1.13478e-06
1.13453e-06
1.13199e-06
1.12956e-06
1.12806e-06
1.12742e-06
1.12522e-06
1.12433e-06
1.12336e-06
1.12591e-06
1.12331e-06
1.12265e-06
1.12045e-06
1.12125e-06
1.1242e-06
1.1269e-06
1.12732e-06
1.12796e-06
1.12542e-06
1.12548e-06
1.12264e-06
1.12071e-06
1.12023e-06
1.12031e-06
1.12133e-06
1.11898e-06
1.11778e-06
1.11934e-06
1.12336e-06
1.12213e-06
1.1207e-06
1.11887e-06
1.11776e-06
1.11956e-06
1.11941e-06
1.11844e-06
1.11902e-06
1.11516e-06
1.11528e-06
1.11625e-06
1.11116e-06
1.11361e-06
1.11405e-06
1.10979e-06
1.10701e-06
1.10655e-06
1.10658e-06
)
;

boundaryField
{
    inlet
    {
        type            calculated;
        value           uniform -1.225e-06;
    }
    outlet
    {
        type            calculated;
        value           uniform 1.1045e-06;
    }
    yzfaces
    {
        type            empty;
    }
}


// ************************************************************************* //
