/*--------------------------------*- C++ -*----------------------------------*\
| =========                 |                                                 |
| \\      /  F ield         | foam-extend: Open Source CFD                    |
|  \\    /   O peration     | Version:     5.0                                |
|   \\  /    A nd           | Web:         http://www.foam-extend.org         |
|    \\/     M anipulation  |                                                 |
\*---------------------------------------------------------------------------*/
FoamFile
{
    version     2.0;
    format      ascii;
    class       surfaceScalarField;
    location    "8";
    object      phi.water;
}
// * * * * * * * * * * * * * * * * * * * * * * * * * * * * * * * * * * * * * //

dimensions      [0 3 -1 0 0 0 0];

internalField   nonuniform List<scalar> 
99
(
7.56329e-08
1.27525e-07
1.62754e-07
1.9341e-07
2.31119e-07
2.84759e-07
3.14353e-07
3.24384e-07
3.47643e-07
3.83419e-07
4.37137e-07
4.75685e-07
5.21632e-07
5.53447e-07
5.88324e-07
6.31259e-07
6.62427e-07
6.97979e-07
7.27363e-07
7.63924e-07
7.92026e-07
8.29955e-07
8.548e-07
9.03916e-07
9.27744e-07
9.38897e-07
9.49582e-07
9.64384e-07
9.77207e-07
1.00255e-06
1.0227e-06
1.05371e-06
1.08415e-06
1.12537e-06
1.15266e-06
1.17467e-06
1.20147e-06
1.23171e-06
1.25507e-06
1.27794e-06
1.30339e-06
1.33253e-06
1.36894e-06
1.38824e-06
1.41641e-06
1.437e-06
1.45026e-06
1.46731e-06
1.49596e-06
1.51893e-06
1.54223e-06
1.56406e-06
1.58615e-06
1.60981e-06
1.63288e-06
1.65542e-06
1.67759e-06
1.70283e-06
1.71821e-06
1.74306e-06
1.76989e-06
1.80329e-06
1.82329e-06
1.84899e-06
1.86529e-06
1.89151e-06
1.92301e-06
1.9523e-06
1.97616e-06
2.00097e-06
2.01866e-06
2.03935e-06
2.05578e-06
2.07812e-06
2.10182e-06
2.12871e-06
2.15576e-06
2.17272e-06
2.19227e-06
2.21875e-06
2.25362e-06
2.26784e-06
2.28708e-06
2.29875e-06
2.31926e-06
2.34732e-06
2.37087e-06
2.38796e-06
2.41477e-06
2.42725e-06
2.4575e-06
2.48613e-06
2.49901e-06
2.5352e-06
2.56728e-06
2.57916e-06
2.60035e-06
2.63445e-06
2.66952e-06
)
;

boundaryField
{
    inlet
    {
        type            fixedValue;
        value           uniform 0;
    }
    outlet
    {
        type            calculated;
        value           uniform 2.70509e-06;
    }
    yzfaces
    {
        type            empty;
    }
}


// ************************************************************************* //
