/*--------------------------------*- C++ -*----------------------------------*\
| =========                 |                                                 |
| \\      /  F ield         | foam-extend: Open Source CFD                    |
|  \\    /   O peration     | Version:     5.0                                |
|   \\  /    A nd           | Web:         http://www.foam-extend.org         |
|    \\/     M anipulation  |                                                 |
\*---------------------------------------------------------------------------*/
FoamFile
{
    version     2.0;
    format      ascii;
    class       volScalarField;
    location    "8.38563";
    object      CO2.water;
}
// * * * * * * * * * * * * * * * * * * * * * * * * * * * * * * * * * * * * * //

dimensions      [0 0 0 0 0 0 0];

internalField   nonuniform List<scalar> 
100
(
6.24616e-05
1.23878e-05
2.01205e-06
2.94318e-07
4.03191e-08
5.27679e-09
6.67178e-10
8.20747e-11
9.87196e-12
1.16519e-12
1.35312e-13
1.54899e-14
1.7507e-15
1.95606e-16
2.16314e-17
2.36962e-18
2.57284e-19
2.77058e-20
2.96115e-21
3.14223e-22
3.31172e-23
3.46811e-24
3.61013e-25
3.7361e-26
3.84549e-27
3.93755e-28
4.01124e-29
4.06654e-30
4.10359e-31
4.12185e-32
4.12275e-33
4.10605e-34
4.07284e-35
4.02425e-36
3.96097e-37
3.88395e-38
3.79531e-39
3.69534e-40
3.58591e-41
3.46803e-42
3.3433e-43
3.21316e-44
3.07807e-45
2.94001e-46
2.79975e-47
2.65862e-48
2.51737e-49
2.37687e-50
2.23829e-51
2.10212e-52
1.9692e-53
1.83991e-54
1.71478e-55
1.59411e-56
1.47835e-57
1.36795e-58
1.26273e-59
1.16301e-60
1.06873e-61
9.79895e-63
8.96503e-64
8.18434e-65
7.45573e-66
6.77811e-67
6.14813e-68
5.56575e-69
5.02888e-70
4.53432e-71
4.08138e-72
3.66627e-73
3.28771e-74
2.94257e-75
2.62929e-76
2.34498e-77
2.08781e-78
1.85558e-79
1.64658e-80
1.45831e-81
1.28958e-82
1.13845e-83
1.00345e-84
8.82989e-86
7.75871e-87
6.80593e-88
5.9616e-89
5.21326e-90
4.55223e-91
3.96896e-92
3.45618e-93
3.00495e-94
2.60889e-95
2.26197e-96
1.95845e-97
1.69324e-98
1.46192e-99
1.26026e-100
1.0849e-101
9.32603e-103
8.00587e-104
6.86267e-105
)
;

boundaryField
{
    inlet
    {
        type            fixedValue;
        value           uniform 0;
    }
    outlet
    {
        type            zeroGradient;
    }
    yzfaces
    {
        type            empty;
    }
}


// ************************************************************************* //
