/*--------------------------------*- C++ -*----------------------------------*\
| =========                 |                                                 |
| \\      /  F ield         | foam-extend: Open Source CFD                    |
|  \\    /   O peration     | Version:     5.0                                |
|   \\  /    A nd           | Web:         http://www.foam-extend.org         |
|    \\/     M anipulation  |                                                 |
\*---------------------------------------------------------------------------*/
FoamFile
{
    version     2.0;
    format      ascii;
    class       volScalarField;
    location    "6";
    object      Cl.water;
}
// * * * * * * * * * * * * * * * * * * * * * * * * * * * * * * * * * * * * * //

dimensions      [0 0 0 0 0 0 0];

internalField   nonuniform List<scalar> 
100
(
0.00448807
0.0061007
0.00717084
0.00801055
0.00868723
0.00926482
0.0097735
0.0102496
0.0106242
0.0109508
0.0112539
0.0114992
0.0117523
0.0119792
0.0121909
0.0123961
0.0126418
0.0129143
0.0130876
0.0132694
0.0134098
0.0135176
0.0136304
0.0137957
0.0139222
0.0140778
0.0141804
0.0142661
0.0143529
0.0144665
0.0146012
0.0147236
0.0148546
0.0150037
0.015109
0.0152447
0.0153681
0.0154697
0.0155581
0.0156156
0.0157291
0.0158396
0.0159393
0.0160237
0.0161609
0.016282
0.0163915
0.0165108
0.0167175
0.0168942
0.0171178
0.0174373
0.0178994
0.018625
0.0199464
0.0206153
0.0209915
0.0211411
0.0211876
0.0211822
0.0211823
0.0211604
0.0211298
0.0211278
0.0211283
0.0211264
0.0211096
0.0210966
0.0211002
0.0211069
0.0211052
0.0211189
0.0211276
0.0211344
0.0211355
0.0211518
0.0211649
0.021168
0.0211586
0.0211672
0.0211738
0.0211754
0.0211782
0.0211989
0.0212505
0.021281
0.021304
0.0213375
0.0213881
0.0214514
0.0215384
0.0216513
0.0217393
0.0218616
0.022012
0.0221737
0.0223263
0.0224662
0.0226198
0.0227439
)
;

boundaryField
{
    inlet
    {
        type            fixedValue;
        value           uniform 0;
    }
    outlet
    {
        type            zeroGradient;
    }
    yzfaces
    {
        type            empty;
    }
}


// ************************************************************************* //
