/*--------------------------------*- C++ -*----------------------------------*\
| =========                 |                                                 |
| \\      /  F ield         | foam-extend: Open Source CFD                    |
|  \\    /   O peration     | Version:     5.0                                |
|   \\  /    A nd           | Web:         http://www.foam-extend.org         |
|    \\/     M anipulation  |                                                 |
\*---------------------------------------------------------------------------*/
FoamFile
{
    version     2.0;
    format      ascii;
    class       volScalarField;
    location    "6";
    object      CO2.gas;
}
// * * * * * * * * * * * * * * * * * * * * * * * * * * * * * * * * * * * * * //

dimensions      [0 0 0 0 0 0 0];

internalField   nonuniform List<scalar> 
100
(
0.160432
0.146109
0.134694
0.127641
0.123406
0.11807
0.113386
0.109489
0.106822
0.103616
0.101377
0.0991268
0.0967129
0.0944131
0.0919273
0.0897386
0.0874537
0.0862215
0.0847813
0.083629
0.0830332
0.0817905
0.0797932
0.0790615
0.0776611
0.0769599
0.0761609
0.0751415
0.0740853
0.072871
0.0720383
0.0707848
0.0695715
0.0687906
0.0675013
0.0666031
0.0657728
0.0649498
0.0643686
0.0635462
0.0628284
0.0619217
0.0610378
0.060085
0.0591413
0.0579015
0.0568903
0.0556357
0.0542119
0.0527769
0.0507557
0.0480173
0.0440198
0.0375523
0.0251442
0.0250963
0.0240477
0.023182
0.0225311
0.0219973
0.0214737
0.0208426
0.0200967
0.0192558
0.0183054
0.0172819
0.0161908
0.0150542
0.0139191
0.0127955
0.0116759
0.0106021
0.00956102
0.00856065
0.0076096
0.00672892
0.00590356
0.00513894
0.00443448
0.00379982
0.00322588
0.00271268
0.00225563
0.00185379
0.00150672
0.00120598
0.000948796
0.000732523
0.00055399
0.000408361
0.000292801
0.000202987
0.000134939
8.54777e-05
5.11655e-05
2.86268e-05
1.48318e-05
7.0657e-06
3.09352e-06
1.25678e-06
)
;

boundaryField
{
    inlet
    {
        type            fixedValue;
        value           uniform 0.2;
    }
    outlet
    {
        type            zeroGradient;
    }
    yzfaces
    {
        type            empty;
    }
}


// ************************************************************************* //
