/*--------------------------------*- C++ -*----------------------------------*\
| =========                 |                                                 |
| \\      /  F ield         | foam-extend: Open Source CFD                    |
|  \\    /   O peration     | Version:     5.0                                |
|   \\  /    A nd           | Web:         http://www.foam-extend.org         |
|    \\/     M anipulation  |                                                 |
\*---------------------------------------------------------------------------*/
FoamFile
{
    version     2.0;
    format      ascii;
    class       volScalarField;
    location    "6";
    object      CO2.water;
}
// * * * * * * * * * * * * * * * * * * * * * * * * * * * * * * * * * * * * * //

dimensions      [0 0 0 0 0 0 0];

internalField   nonuniform List<scalar> 
100
(
0.00102739
0.00139595
0.00164261
0.00183385
0.00198808
0.00212106
0.0022375
0.00234439
0.00242998
0.00250481
0.00257432
0.00262824
0.0026863
0.0027387
0.00278985
0.00283806
0.00289345
0.00295429
0.00299323
0.00303437
0.0030664
0.00309172
0.00311723
0.00315344
0.00318204
0.003218
0.00324313
0.0032638
0.00328422
0.00330957
0.00333956
0.0033681
0.00339937
0.00343186
0.0034537
0.0034867
0.00351617
0.00353852
0.00355868
0.00357371
0.00359916
0.00362308
0.00364443
0.0036651
0.00369595
0.00372493
0.00374975
0.00377688
0.00382547
0.00386371
0.00391494
0.00398752
0.00409335
0.00426176
0.00457588
0.00169251
0.000659436
0.000254701
9.62342e-05
3.57393e-05
1.31706e-05
4.85216e-06
1.79958e-06
6.75434e-07
2.56508e-07
9.83459e-08
3.79697e-08
1.47564e-08
5.77067e-09
2.26792e-09
8.93131e-10
3.52926e-10
1.39831e-10
5.5489e-11
2.20748e-11
8.82553e-12
3.54152e-12
1.42875e-12
5.79764e-13
2.37372e-13
9.79625e-14
4.07851e-14
1.71445e-14
7.28209e-15
3.13319e-15
1.36217e-15
5.98817e-16
2.66475e-16
1.20231e-16
5.49199e-17
2.5466e-17
1.19733e-17
5.68902e-18
2.73216e-18
1.32356e-18
6.44572e-19
3.1446e-19
1.5316e-19
7.43067e-20
3.5765e-20
)
;

boundaryField
{
    inlet
    {
        type            fixedValue;
        value           uniform 0;
    }
    outlet
    {
        type            zeroGradient;
    }
    yzfaces
    {
        type            empty;
    }
}


// ************************************************************************* //
