/*--------------------------------*- C++ -*----------------------------------*\
| =========                 |                                                 |
| \\      /  F ield         | foam-extend: Open Source CFD                    |
|  \\    /   O peration     | Version:     5.0                                |
|   \\  /    A nd           | Web:         http://www.foam-extend.org         |
|    \\/     M anipulation  |                                                 |
\*---------------------------------------------------------------------------*/
FoamFile
{
    version     2.0;
    format      ascii;
    class       volScalarField;
    location    "6";
    object      H2O.water;
}
// * * * * * * * * * * * * * * * * * * * * * * * * * * * * * * * * * * * * * //

dimensions      [0 0 0 0 0 0 0];

internalField   nonuniform List<scalar> 
100
(
0.0291089
0.0395605
0.0465549
0.0519701
0.0563194
0.0600559
0.063363
0.0664476
0.0688198
0.0709366
0.0729569
0.0744918
0.0761214
0.0776322
0.0790396
0.0803883
0.081966
0.083722
0.0848162
0.0859538
0.0868629
0.087614
0.0883335
0.0893868
0.0902047
0.0912036
0.0919333
0.092491
0.0930469
0.0937747
0.0946107
0.0954505
0.0963442
0.0972469
0.0978595
0.0987774
0.0995757
0.100239
0.100819
0.10122
0.101947
0.10264
0.103267
0.103856
0.104713
0.105544
0.106237
0.106995
0.108387
0.109457
0.110911
0.112965
0.115967
0.120756
0.129758
0.131023
0.132152
0.13262
0.132671
0.132581
0.132566
0.132414
0.132209
0.132208
0.132165
0.132147
0.132087
0.132016
0.132062
0.132121
0.132152
0.132276
0.132326
0.132369
0.132358
0.13242
0.132491
0.132456
0.132406
0.132471
0.132504
0.132546
0.132565
0.132723
0.133039
0.133199
0.133341
0.133546
0.133863
0.134245
0.134824
0.135516
0.136122
0.136902
0.137827
0.138802
0.139843
0.140706
0.141618
0.142426
)
;

boundaryField
{
    inlet
    {
        type            fixedValue;
        value           uniform 0;
    }
    outlet
    {
        type            zeroGradient;
    }
    yzfaces
    {
        type            empty;
    }
}


// ************************************************************************* //
