/*--------------------------------*- C++ -*----------------------------------*\
| =========                 |                                                 |
| \\      /  F ield         | foam-extend: Open Source CFD                    |
|  \\    /   O peration     | Version:     5.0                                |
|   \\  /    A nd           | Web:         http://www.foam-extend.org         |
|    \\/     M anipulation  |                                                 |
\*---------------------------------------------------------------------------*/
FoamFile
{
    version     2.0;
    format      ascii;
    class       volScalarField;
    location    "6";
    object      H2O.gas;
}
// * * * * * * * * * * * * * * * * * * * * * * * * * * * * * * * * * * * * * //

dimensions      [0 0 0 0 0 0 0];

internalField   nonuniform List<scalar> 
100
(
4.63974e-10
3.466e-09
2.89262e-07
3.08068e-06
1.22156e-05
2.80076e-05
4.73401e-05
6.7046e-05
8.45526e-05
9.76941e-05
0.000107757
0.000114565
0.000118833
0.000121872
0.000123819
0.00012587
0.000127225
0.000129849
0.000131943
0.000134361
0.00016202
0.000143632
0.000139968
0.000140066
0.000139449
0.000139561
0.000139038
0.000137527
0.000135581
0.00013281
0.000130254
0.000126894
0.000123141
0.000119994
0.0001164
0.000115405
0.000117501
0.000122584
0.000125601
0.000121983
0.000120674
0.000120826
0.000118445
0.000116776
0.000115184
0.000112953
0.000111047
0.000108624
0.000105782
0.000102982
9.90381e-05
9.36947e-05
8.58946e-05
7.32747e-05
4.90631e-05
0.000476264
0.000962455
0.00151494
0.00213724
0.0028334
0.00361358
0.0044682
0.00538947
0.00637502
0.0074152
0.00848873
0.00958413
0.0106771
0.0117829
0.0128854
0.0139503
0.0150015
0.0160067
0.0169605
0.0178494
0.018702
0.0194933
0.0202027
0.0208321
0.0214089
0.0219063
0.0223227
0.0226646
0.0229142
0.023119
0.0231952
0.023149
0.0229918
0.0227242
0.0222963
0.0217437
0.0210463
0.0201489
0.0191105
0.0179437
0.016677
0.0153908
0.0141442
0.0130553
0.0121578
)
;

boundaryField
{
    inlet
    {
        type            fixedValue;
        value           uniform 0;
    }
    outlet
    {
        type            zeroGradient;
    }
    yzfaces
    {
        type            empty;
    }
}


// ************************************************************************* //
