/*--------------------------------*- C++ -*----------------------------------*\
| =========                 |                                                 |
| \\      /  F ield         | foam-extend: Open Source CFD                    |
|  \\    /   O peration     | Version:     5.0                                |
|   \\  /    A nd           | Web:         http://www.foam-extend.org         |
|    \\/     M anipulation  |                                                 |
\*---------------------------------------------------------------------------*/
FoamFile
{
    version     2.0;
    format      ascii;
    class       volScalarField;
    location    "6";
    object      Na.water;
}
// * * * * * * * * * * * * * * * * * * * * * * * * * * * * * * * * * * * * * //

dimensions      [0 0 0 0 0 0 0];

internalField   nonuniform List<scalar> 
100
(
0.00448912
0.00610064
0.00717043
0.00801436
0.0086918
0.0092712
0.00978199
0.0102497
0.0106186
0.010944
0.0112478
0.0114807
0.0117386
0.0119768
0.0121948
0.0124077
0.0126547
0.0129194
0.0130949
0.0132708
0.0134116
0.0135219
0.013637
0.0137906
0.0139105
0.0140645
0.0141737
0.0142621
0.0143523
0.014464
0.0145992
0.0147315
0.0148604
0.0150046
0.0151004
0.0152378
0.0153667
0.0154643
0.0155581
0.0156309
0.0157303
0.0158434
0.0159341
0.0160174
0.0161574
0.0162815
0.016396
0.0165213
0.016721
0.0168922
0.0171136
0.0174313
0.0178908
0.0186208
0.019942
0.0206062
0.0209854
0.0211394
0.0211844
0.0211822
0.0211742
0.0211454
0.0211207
0.0211137
0.0211113
0.021113
0.0210973
0.0210875
0.0210956
0.0211049
0.0211034
0.0211245
0.0211352
0.0211416
0.0211348
0.0211495
0.0211632
0.0211639
0.0211595
0.0211721
0.0211807
0.021187
0.0211912
0.021219
0.0212739
0.0212994
0.0213244
0.0213574
0.0214152
0.0214722
0.0215592
0.0216701
0.0217641
0.0218924
0.0220358
0.0221908
0.0223422
0.0224882
0.0226363
0.0227611
)
;

boundaryField
{
    inlet
    {
        type            fixedValue;
        value           uniform 0;
    }
    outlet
    {
        type            zeroGradient;
    }
    yzfaces
    {
        type            empty;
    }
}


// ************************************************************************* //
