/*--------------------------------*- C++ -*----------------------------------*\
| =========                 |                                                 |
| \\      /  F ield         | foam-extend: Open Source CFD                    |
|  \\    /   O peration     | Version:     5.0                                |
|   \\  /    A nd           | Web:         http://www.foam-extend.org         |
|    \\/     M anipulation  |                                                 |
\*---------------------------------------------------------------------------*/
FoamFile
{
    version     2.0;
    format      ascii;
    class       volVectorField;
    location    "6";
    object      U.water;
}
// * * * * * * * * * * * * * * * * * * * * * * * * * * * * * * * * * * * * * //

dimensions      [0 1 -1 0 0 0 0];

internalField   nonuniform List<vector> 
100
(
(4.27738e-05 0 0)
(0.000100899 0 0)
(0.00015304 0 0)
(0.000203426 0 0)
(0.00024889 0 0)
(0.000290483 0 0)
(0.0003343 0 0)
(0.000377537 0 0)
(0.000416945 0 0)
(0.000452387 0 0)
(0.000490525 0 0)
(0.000522762 0 0)
(0.000553436 0 0)
(0.000587845 0 0)
(0.000625013 0 0)
(0.000664697 0 0)
(0.000705955 0 0)
(0.000750152 0 0)
(0.000787232 0 0)
(0.000819858 0 0)
(0.000847279 0 0)
(0.000868506 0 0)
(0.000901426 0 0)
(0.000941318 0 0)
(0.000971802 0 0)
(0.00100286 0 0)
(0.00102914 0 0)
(0.00105563 0 0)
(0.00108462 0 0)
(0.00111801 0 0)
(0.00115135 0 0)
(0.00118425 0 0)
(0.00122495 0 0)
(0.00126329 0 0)
(0.00130071 0 0)
(0.00134307 0 0)
(0.00138261 0 0)
(0.00142129 0 0)
(0.00145417 0 0)
(0.00148314 0 0)
(0.00152008 0 0)
(0.00155818 0 0)
(0.00159842 0 0)
(0.00163865 0 0)
(0.00168118 0 0)
(0.00173564 0 0)
(0.0017938 0 0)
(0.00185248 0 0)
(0.00192791 0 0)
(0.00201346 0 0)
(0.00211603 0 0)
(0.00225811 0 0)
(0.00247366 0 0)
(0.00283482 0 0)
(0.0035046 0 0)
(0.00410625 0 0)
(0.00414963 0 0)
(0.00419479 0 0)
(0.00421436 0 0)
(0.00421268 0 0)
(0.00419627 0 0)
(0.00417686 0 0)
(0.00416401 0 0)
(0.00415672 0 0)
(0.0041502 0 0)
(0.00414364 0 0)
(0.00413781 0 0)
(0.00413849 0 0)
(0.00414732 0 0)
(0.00415193 0 0)
(0.00415311 0 0)
(0.00415437 0 0)
(0.00415126 0 0)
(0.0041509 0 0)
(0.0041577 0 0)
(0.00416103 0 0)
(0.00416165 0 0)
(0.00416431 0 0)
(0.00416807 0 0)
(0.00417293 0 0)
(0.00417824 0 0)
(0.00418378 0 0)
(0.00418768 0 0)
(0.00419911 0 0)
(0.00421708 0 0)
(0.00423095 0 0)
(0.00424462 0 0)
(0.00426572 0 0)
(0.00429311 0 0)
(0.00432833 0 0)
(0.00437447 0 0)
(0.00442433 0 0)
(0.00447835 0 0)
(0.00453944 0 0)
(0.00460586 0 0)
(0.00467608 0 0)
(0.00474376 0 0)
(0.00480902 0 0)
(0.00486456 0 0)
(0.00490561 0 0)
)
;

boundaryField
{
    inlet
    {
        type            fixedValue;
        value           uniform (0 0 0);
    }
    outlet
    {
        type            zeroGradient;
    }
    yzfaces
    {
        type            empty;
    }
}


// ************************************************************************* //
