/*--------------------------------*- C++ -*----------------------------------*\
| =========                 |                                                 |
| \\      /  F ield         | foam-extend: Open Source CFD                    |
|  \\    /   O peration     | Version:     5.0                                |
|   \\  /    A nd           | Web:         http://www.foam-extend.org         |
|    \\/     M anipulation  |                                                 |
\*---------------------------------------------------------------------------*/
FoamFile
{
    version     2.0;
    format      ascii;
    class       volScalarField;
    location    "3";
    object      alpha.gas;
}
// * * * * * * * * * * * * * * * * * * * * * * * * * * * * * * * * * * * * * //

dimensions      [0 0 0 0 0 0 0];

internalField   nonuniform List<scalar> 
100
(
0.16931
0.157315
0.148718
0.142079
0.136625
0.132012
0.128028
0.124572
0.121481
0.118753
0.116224
0.113929
0.111814
0.109875
0.108087
0.106369
0.10479
0.103338
0.101924
0.100625
0.0993637
0.0981595
0.0970061
0.0959385
0.0949085
0.0939132
0.0929604
0.0920543
0.0911459
0.0903033
0.0894844
0.0886938
0.0879334
0.0872021
0.086498
0.0858165
0.0851412
0.0844908
0.0838556
0.083248
0.0826625
0.0820881
0.0815095
0.0809374
0.0803983
0.0798728
0.0793775
0.0789171
0.0784186
0.0779548
0.0774837
0.0770535
0.0765991
0.0761875
0.0757371
0.0753252
0.0749173
0.0745549
0.0741695
0.0737854
0.0734022
0.0730322
0.0726784
0.072327
0.0719847
0.0716451
0.071321
0.0709806
0.0706565
0.0703202
0.0699775
0.0696498
0.0693361
0.0690321
0.0687331
0.0684461
0.0681682
0.0678994
0.0676407
0.0673765
0.0671208
0.0668721
0.0666159
0.0663736
0.066121
0.0658622
0.0656125
0.0653713
0.0651337
0.0648983
0.0646702
0.0644236
0.0641929
0.0639592
0.063748
0.0635408
0.0633274
0.0631191
0.0628994
0.0627042
)
;

boundaryField
{
    inlet
    {
        type            fixedValue;
        value           uniform 0.2;
    }
    outlet
    {
        type            zeroGradient;
    }
    yzfaces
    {
        type            empty;
    }
}


// ************************************************************************* //
