/*--------------------------------*- C++ -*----------------------------------*\
| =========                 |                                                 |
| \\      /  F ield         | foam-extend: Open Source CFD                    |
|  \\    /   O peration     | Version:     5.0                                |
|   \\  /    A nd           | Web:         http://www.foam-extend.org         |
|    \\/     M anipulation  |                                                 |
\*---------------------------------------------------------------------------*/
FoamFile
{
    version     2.0;
    format      ascii;
    class       volScalarField;
    location    "3";
    object      CO2.gas;
}
// * * * * * * * * * * * * * * * * * * * * * * * * * * * * * * * * * * * * * //

dimensions      [0 0 0 0 0 0 0];

internalField   nonuniform List<scalar> 
100
(
0.169338
0.157356
0.14856
0.141968
0.136497
0.131876
0.127855
0.124446
0.121367
0.118717
0.116167
0.11388
0.111768
0.109858
0.108089
0.10634
0.10477
0.10335
0.10193
0.100654
0.0993797
0.0981714
0.0970078
0.0959524
0.0949253
0.0939196
0.0929602
0.0920612
0.0911305
0.0902892
0.0894707
0.0886676
0.0879085
0.0871668
0.0864678
0.085792
0.0851042
0.08446
0.0838159
0.083206
0.0826219
0.0820527
0.0814597
0.0808699
0.0803389
0.0798155
0.0793298
0.0788827
0.0783667
0.0779078
0.0774298
0.0770142
0.0765554
0.0761542
0.0756811
0.07528
0.0748785
0.0745317
0.0741492
0.0737665
0.0733765
0.0729982
0.0726453
0.0722901
0.071952
0.0716169
0.0712968
0.0709562
0.0706313
0.0702876
0.069938
0.0696113
0.0692959
0.0689913
0.0686948
0.0684171
0.0681402
0.0678794
0.067622
0.0673605
0.067113
0.066866
0.0666073
0.0663743
0.066117
0.0658548
0.0656057
0.065369
0.0651349
0.0648936
0.0646675
0.0644164
0.0641932
0.0639537
0.0637507
0.0635429
0.0633269
0.0631185
0.0628948
0.0627043
)
;

boundaryField
{
    inlet
    {
        type            fixedValue;
        value           uniform 0.2;
    }
    outlet
    {
        type            zeroGradient;
    }
    yzfaces
    {
        type            empty;
    }
}


// ************************************************************************* //
