/*--------------------------------*- C++ -*----------------------------------*\
| =========                 |                                                 |
| \\      /  F ield         | foam-extend: Open Source CFD                    |
|  \\    /   O peration     | Version:     5.0                                |
|   \\  /    A nd           | Web:         http://www.foam-extend.org         |
|    \\/     M anipulation  |                                                 |
\*---------------------------------------------------------------------------*/
FoamFile
{
    version     2.0;
    format      ascii;
    class       surfaceScalarField;
    location    "3";
    object      phi;
}
// * * * * * * * * * * * * * * * * * * * * * * * * * * * * * * * * * * * * * //

dimensions      [0 3 -1 0 0 0 0];

internalField   nonuniform List<scalar> 
99
(
1.22573e-05
1.2253e-05
1.22643e-05
1.22614e-05
1.226e-05
1.22648e-05
1.22635e-05
1.22601e-05
1.22663e-05
1.2267e-05
1.22618e-05
1.22717e-05
1.22737e-05
1.22763e-05
1.22747e-05
1.22902e-05
1.22935e-05
1.22925e-05
1.22925e-05
1.22934e-05
1.22889e-05
1.2299e-05
1.23019e-05
1.22982e-05
1.23046e-05
1.23e-05
1.23017e-05
1.23007e-05
1.23006e-05
1.23003e-05
1.22975e-05
1.22993e-05
1.22949e-05
1.22963e-05
1.22957e-05
1.22916e-05
1.22953e-05
1.22914e-05
1.22862e-05
1.22923e-05
1.22904e-05
1.22879e-05
1.22889e-05
1.22864e-05
1.22879e-05
1.22897e-05
1.22888e-05
1.22926e-05
1.22937e-05
1.22857e-05
1.22899e-05
1.22858e-05
1.22809e-05
1.22788e-05
1.22768e-05
1.22759e-05
1.22777e-05
1.22811e-05
1.22808e-05
1.22779e-05
1.22781e-05
1.22711e-05
1.22759e-05
1.22761e-05
1.22787e-05
1.22799e-05
1.22823e-05
1.22773e-05
1.22783e-05
1.22761e-05
1.22755e-05
1.22725e-05
1.22706e-05
1.22704e-05
1.22749e-05
1.22755e-05
1.22731e-05
1.22772e-05
1.2277e-05
1.22799e-05
1.22781e-05
1.22769e-05
1.22775e-05
1.22767e-05
1.22752e-05
1.22755e-05
1.22769e-05
1.22778e-05
1.22805e-05
1.22796e-05
1.22762e-05
1.22779e-05
1.2277e-05
1.22747e-05
1.2274e-05
1.22714e-05
1.22755e-05
1.2272e-05
1.2273e-05
)
;

boundaryField
{
    inlet
    {
        type            calculated;
        value           uniform -1.225e-05;
    }
    outlet
    {
        type            calculated;
        value           uniform 1.22755e-05;
    }
    yzfaces
    {
        type            empty;
    }
}


// ************************************************************************* //
