/*--------------------------------*- C++ -*----------------------------------*\
| =========                 |                                                 |
| \\      /  F ield         | foam-extend: Open Source CFD                    |
|  \\    /   O peration     | Version:     5.0                                |
|   \\  /    A nd           | Web:         http://www.foam-extend.org         |
|    \\/     M anipulation  |                                                 |
\*---------------------------------------------------------------------------*/
FoamFile
{
    version     2.0;
    format      ascii;
    class       surfaceScalarField;
    location    "3";
    object      phi.water;
}
// * * * * * * * * * * * * * * * * * * * * * * * * * * * * * * * * * * * * * //

dimensions      [0 3 -1 0 0 0 0];

internalField   nonuniform List<scalar> 
99
(
1.93024e-07
3.37598e-07
4.69485e-07
5.90286e-07
7.05014e-07
8.15282e-07
9.21178e-07
1.02262e-06
1.12138e-06
1.21494e-06
1.30906e-06
1.40187e-06
1.49094e-06
1.5784e-06
1.66318e-06
1.75117e-06
1.83485e-06
1.91463e-06
1.99601e-06
2.07395e-06
2.15177e-06
2.23224e-06
2.31116e-06
2.38522e-06
2.46165e-06
2.53493e-06
2.60943e-06
2.68174e-06
2.75701e-06
2.82869e-06
2.89921e-06
2.97042e-06
3.04054e-06
3.11033e-06
3.17771e-06
3.24447e-06
3.31435e-06
3.38104e-06
3.4482e-06
3.51572e-06
3.58001e-06
3.64508e-06
3.71293e-06
3.78122e-06
3.84591e-06
3.91166e-06
3.97317e-06
4.03256e-06
4.09904e-06
4.15752e-06
4.2238e-06
4.27964e-06
4.34205e-06
4.39928e-06
4.46429e-06
4.52438e-06
4.58543e-06
4.64037e-06
4.69902e-06
4.75833e-06
4.81942e-06
4.87705e-06
4.93664e-06
4.99467e-06
5.05298e-06
5.11126e-06
5.16672e-06
5.22506e-06
5.28224e-06
5.34157e-06
5.40483e-06
5.46326e-06
5.52119e-06
5.57818e-06
5.63696e-06
5.69265e-06
5.74581e-06
5.80075e-06
5.85182e-06
5.9054e-06
5.95789e-06
6.0086e-06
6.06147e-06
6.11212e-06
6.1657e-06
6.22113e-06
6.27599e-06
6.32853e-06
6.38311e-06
6.43593e-06
6.48604e-06
6.54303e-06
6.59529e-06
6.64909e-06
6.69839e-06
6.74627e-06
6.80046e-06
6.8482e-06
6.90282e-06
)
;

boundaryField
{
    inlet
    {
        type            fixedValue;
        value           uniform 0;
    }
    outlet
    {
        type            calculated;
        value           uniform 6.95975e-06;
    }
    yzfaces
    {
        type            empty;
    }
}


// ************************************************************************* //
