/*--------------------------------*- C++ -*----------------------------------*\
| =========                 |                                                 |
| \\      /  F ield         | foam-extend: Open Source CFD                    |
|  \\    /   O peration     | Version:     5.0                                |
|   \\  /    A nd           | Web:         http://www.foam-extend.org         |
|    \\/     M anipulation  |                                                 |
\*---------------------------------------------------------------------------*/
FoamFile
{
    version     2.0;
    format      ascii;
    class       surfaceScalarField;
    location    "3";
    object      phi.gas;
}
// * * * * * * * * * * * * * * * * * * * * * * * * * * * * * * * * * * * * * //

dimensions      [0 3 -1 0 0 0 0];

internalField   nonuniform List<scalar> 
99
(
7.49947e-05
8.00035e-05
8.42515e-05
8.78076e-05
9.10207e-05
9.40031e-05
9.66753e-05
9.91113e-05
0.000101438
0.000103599
0.000105636
0.000107687
0.000109561
0.000111336
0.000113048
0.000114868
0.000116447
0.000117947
0.000119411
0.000120839
0.000122207
0.000123685
0.000125027
0.000126246
0.000127561
0.000128744
0.000129944
0.00013112
0.000132283
0.000133388
0.000134457
0.000135552
0.000136549
0.000137582
0.000138559
0.000139502
0.000140521
0.000141434
0.000142315
0.000143293
0.000144157
0.000145032
0.000145978
0.000146835
0.000147698
0.000148533
0.000149279
0.000150126
0.000150949
0.000151639
0.000152442
0.000153142
0.000153814
0.000154555
0.000155292
0.000155985
0.000156663
0.000157361
0.000158046
0.000158711
0.000159417
0.000159997
0.000160718
0.000161366
0.00016203
0.000162661
0.000163326
0.000163892
0.000164555
0.000165203
0.000165852
0.00016644
0.000167025
0.00016762
0.00016825
0.00016881
0.000169315
0.000169894
0.00017042
0.000170979
0.000171455
0.000171965
0.00017248
0.000172981
0.000173507
0.00017405
0.000174581
0.000175091
0.000175638
0.000176123
0.000176594
0.000177127
0.000177618
0.000178059
0.000178495
0.000178925
0.00017945
0.000179885
0.000180352
)
;

boundaryField
{
    inlet
    {
        type            fixedValue;
        value           uniform -6.125e-05;
    }
    outlet
    {
        type            calculated;
        value           uniform 0.00018053;
    }
    yzfaces
    {
        type            empty;
    }
}


// ************************************************************************* //
