/*--------------------------------*- C++ -*----------------------------------*\
| =========                 |                                                 |
| \\      /  F ield         | foam-extend: Open Source CFD                    |
|  \\    /   O peration     | Version:     5.0                                |
|   \\  /    A nd           | Web:         http://www.foam-extend.org         |
|    \\/     M anipulation  |                                                 |
\*---------------------------------------------------------------------------*/
FoamFile
{
    version     2.0;
    format      ascii;
    class       volVectorField;
    location    "3";
    object      U.gas;
}
// * * * * * * * * * * * * * * * * * * * * * * * * * * * * * * * * * * * * * //

dimensions      [0 1 -1 0 0 0 0];

internalField   nonuniform List<vector> 
100
(
(0.0590636 0 0)
(0.063534 0 0)
(0.0671751 0 0)
(0.070281 0 0)
(0.0730121 0 0)
(0.075508 0 0)
(0.0778004 0 0)
(0.0798722 0 0)
(0.0818412 0 0)
(0.0836707 0 0)
(0.0853995 0 0)
(0.0870586 0 0)
(0.0886689 0 0)
(0.0901708 0 0)
(0.0915859 0 0)
(0.0930353 0 0)
(0.0944255 0 0)
(0.0956775 0 0)
(0.0969162 0 0)
(0.0980861 0 0)
(0.0992314 0 0)
(0.100384 0 0)
(0.101542 0 0)
(0.10258 0 0)
(0.103616 0 0)
(0.104632 0 0)
(0.105602 0 0)
(0.106553 0 0)
(0.107517 0 0)
(0.108425 0 0)
(0.10931 0 0)
(0.110187 0 0)
(0.111034 0 0)
(0.111857 0 0)
(0.112677 0 0)
(0.113456 0 0)
(0.114259 0 0)
(0.115041 0 0)
(0.115772 0 0)
(0.116523 0 0)
(0.117273 0 0)
(0.117975 0 0)
(0.118706 0 0)
(0.119436 0 0)
(0.12013 0 0)
(0.120837 0 0)
(0.121497 0 0)
(0.122125 0 0)
(0.122827 0 0)
(0.123422 0 0)
(0.124052 0 0)
(0.124646 0 0)
(0.12524 0 0)
(0.125779 0 0)
(0.126404 0 0)
(0.126975 0 0)
(0.127568 0 0)
(0.128117 0 0)
(0.128701 0 0)
(0.129252 0 0)
(0.129807 0 0)
(0.130323 0 0)
(0.130843 0 0)
(0.131403 0 0)
(0.131939 0 0)
(0.132481 0 0)
(0.133 0 0)
(0.133519 0 0)
(0.134003 0 0)
(0.134529 0 0)
(0.135058 0 0)
(0.135559 0 0)
(0.136034 0 0)
(0.136512 0 0)
(0.137022 0 0)
(0.137517 0 0)
(0.137961 0 0)
(0.138413 0 0)
(0.138863 0 0)
(0.13932 0 0)
(0.139753 0 0)
(0.140152 0 0)
(0.140585 0 0)
(0.140993 0 0)
(0.141412 0 0)
(0.141851 0 0)
(0.14229 0 0)
(0.142719 0 0)
(0.143153 0 0)
(0.143574 0 0)
(0.143946 0 0)
(0.144375 0 0)
(0.144785 0 0)
(0.145182 0 0)
(0.145535 0 0)
(0.145886 0 0)
(0.146278 0 0)
(0.146657 0 0)
(0.147044 0 0)
(0.14741 0 0)
)
;

boundaryField
{
    inlet
    {
        type            fixedValue;
        value           uniform (0.05 0 0);
    }
    outlet
    {
        type            zeroGradient;
    }
    yzfaces
    {
        type            empty;
    }
}


// ************************************************************************* //
