/*--------------------------------*- C++ -*----------------------------------*\
| =========                 |                                                 |
| \\      /  F ield         | foam-extend: Open Source CFD                    |
|  \\    /   O peration     | Version:     5.0                                |
|   \\  /    A nd           | Web:         http://www.foam-extend.org         |
|    \\/     M anipulation  |                                                 |
\*---------------------------------------------------------------------------*/
FoamFile
{
    version     2.0;
    format      ascii;
    class       volVectorField;
    location    "3";
    object      U.water;
}
// * * * * * * * * * * * * * * * * * * * * * * * * * * * * * * * * * * * * * //

dimensions      [0 1 -1 0 0 0 0];

internalField   nonuniform List<vector> 
100
(
(9.42033e-05 0 0)
(0.000219331 0 0)
(0.000330031 0 0)
(0.000432538 0 0)
(0.000528306 0 0)
(0.000619836 0 0)
(0.000707736 0 0)
(0.000792481 0 0)
(0.00087415 0 0)
(0.000953155 0 0)
(0.00102959 0 0)
(0.00110592 0 0)
(0.00118016 0 0)
(0.00125243 0 0)
(0.00132304 0 0)
(0.00139316 0 0)
(0.00146327 0 0)
(0.00153052 0 0)
(0.00159615 0 0)
(0.00166159 0 0)
(0.00172505 0 0)
(0.00178955 0 0)
(0.00185437 0 0)
(0.0019171 0 0)
(0.00197858 0 0)
(0.00203951 0 0)
(0.00209971 0 0)
(0.00215979 0 0)
(0.00221945 0 0)
(0.00227951 0 0)
(0.00233743 0 0)
(0.00239509 0 0)
(0.00245261 0 0)
(0.00250959 0 0)
(0.00256561 0 0)
(0.00262046 0 0)
(0.00267599 0 0)
(0.00273168 0 0)
(0.00278609 0 0)
(0.00284095 0 0)
(0.00289482 0 0)
(0.00294766 0 0)
(0.00300142 0 0)
(0.00305638 0 0)
(0.00311073 0 0)
(0.00316402 0 0)
(0.00321622 0 0)
(0.00326621 0 0)
(0.00331688 0 0)
(0.00336796 0 0)
(0.00341857 0 0)
(0.00346902 0 0)
(0.00351696 0 0)
(0.00356626 0 0)
(0.00361527 0 0)
(0.0036666 0 0)
(0.00371618 0 0)
(0.00376451 0 0)
(0.00381096 0 0)
(0.00385908 0 0)
(0.00390783 0 0)
(0.00395593 0 0)
(0.00400371 0 0)
(0.0040516 0 0)
(0.00409923 0 0)
(0.00414693 0 0)
(0.00419377 0 0)
(0.00423997 0 0)
(0.0042872 0 0)
(0.00433433 0 0)
(0.00438384 0 0)
(0.00443337 0 0)
(0.00448081 0 0)
(0.00452771 0 0)
(0.00457509 0 0)
(0.00462218 0 0)
(0.00466691 0 0)
(0.00471131 0 0)
(0.00475493 0 0)
(0.00479777 0 0)
(0.00484144 0 0)
(0.00488385 0 0)
(0.00492603 0 0)
(0.00496872 0 0)
(0.00501115 0 0)
(0.00505529 0 0)
(0.00510035 0 0)
(0.00514448 0 0)
(0.00518833 0 0)
(0.00523199 0 0)
(0.00527412 0 0)
(0.0053175 0 0)
(0.00536237 0 0)
(0.0054055 0 0)
(0.00544797 0 0)
(0.00548783 0 0)
(0.00552926 0 0)
(0.00557087 0 0)
(0.00561221 0 0)
(0.00565609 0 0)
)
;

boundaryField
{
    inlet
    {
        type            fixedValue;
        value           uniform (0 0 0);
    }
    outlet
    {
        type            zeroGradient;
    }
    yzfaces
    {
        type            empty;
    }
}


// ************************************************************************* //
