/*--------------------------------*- C++ -*----------------------------------*\
| =========                 |                                                 |
| \\      /  F ield         | foam-extend: Open Source CFD                    |
|  \\    /   O peration     | Version:     5.0                                |
|   \\  /    A nd           | Web:         http://www.foam-extend.org         |
|    \\/     M anipulation  |                                                 |
\*---------------------------------------------------------------------------*/
FoamFile
{
    version     2.0;
    format      ascii;
    class       volScalarField;
    location    "3";
    object      H2O.gas;
}
// * * * * * * * * * * * * * * * * * * * * * * * * * * * * * * * * * * * * * //

dimensions      [0 0 0 0 0 0 0];

internalField   nonuniform List<scalar> 
100
(
0.000284361
0.000252998
0.000196881
0.000171475
0.000153008
0.000141608
0.0001351
0.000131377
0.000132272
0.000133666
0.000133741
0.000131943
0.000130077
0.000128995
0.000127627
0.000126662
0.00012544
0.000127309
0.000123539
0.000119798
0.000115195
0.000111224
0.000106576
0.000101176
9.42162e-05
8.37954e-05
6.57679e-05
2.5968e-05
0.00125216
0.00219682
0.00332426
0.00459644
0.00598767
0.00746455
0.00900492
0.0105528
0.0121015
0.0135966
0.0150444
0.0163835
0.0176069
0.018655
0.0195463
0.0202212
0.0206155
0.0207932
0.0206403
0.0202047
0.0194395
0.018443
0.0172217
0.0158709
0.0145199
0.0132896
0.0122565
0.0114868
0.0109372
0.0105774
0.0103482
0.0102132
0.0101369
0.0100847
0.0100496
0.0100305
0.0100178
0.0100104
0.0100035
0.0100058
0.00999931
0.00999956
0.0100004
0.0100024
0.0100013
0.0100031
0.010001
0.00999861
0.00999551
0.00999437
0.00999705
0.00999686
0.00998943
0.00998462
0.00998704
0.0099905
0.00998436
0.00999177
0.0099959
0.00999583
0.00999217
0.00999505
0.0100055
0.00999974
0.0100037
0.00999721
0.0100001
0.00999837
0.0100006
0.0100052
0.0100006
0.010009
)
;

boundaryField
{
    inlet
    {
        type            fixedValue;
        value           uniform 0;
    }
    outlet
    {
        type            zeroGradient;
    }
    yzfaces
    {
        type            empty;
    }
}


// ************************************************************************* //
