/*--------------------------------*- C++ -*----------------------------------*\
| =========                 |                                                 |
| \\      /  F ield         | foam-extend: Open Source CFD                    |
|  \\    /   O peration     | Version:     5.0                                |
|   \\  /    A nd           | Web:         http://www.foam-extend.org         |
|    \\/     M anipulation  |                                                 |
\*---------------------------------------------------------------------------*/
FoamFile
{
    version     2.0;
    format      ascii;
    class       volScalarField;
    location    "3";
    object      Na.water;
}
// * * * * * * * * * * * * * * * * * * * * * * * * * * * * * * * * * * * * * //

dimensions      [0 0 0 0 0 0 0];

internalField   nonuniform List<scalar> 
100
(
0.00618262
0.00801446
0.00947144
0.0104089
0.0111112
0.0116989
0.0121636
0.0126067
0.0130086
0.013356
0.0136742
0.0139496
0.0142362
0.014516
0.0147573
0.0149977
0.0152341
0.0154586
0.0156778
0.0158992
0.0161195
0.0164003
0.0166766
0.0169922
0.0173938
0.0180016
0.0190338
0.0213207
0.0203853
0.020615
0.0207339
0.0207859
0.020831
0.020882
0.0209418
0.0209652
0.0209972
0.0210049
0.0210313
0.0210443
0.0210678
0.02109
0.0211513
0.021212
0.0212551
0.0213676
0.0214677
0.0216093
0.0217327
0.0219131
0.0220898
0.0222786
0.0224572
0.022608
0.0227117
0.0228167
0.022874
0.0229221
0.0229541
0.0229848
0.0230194
0.0230214
0.0230123
0.0230094
0.0230061
0.0230055
0.0229928
0.0230017
0.0229926
0.0230042
0.0229999
0.0229985
0.0229981
0.0229986
0.0230067
0.0230085
0.0230007
0.0230043
0.0230044
0.0230029
0.0229841
0.0229722
0.0229789
0.0229877
0.0229678
0.0229823
0.0229861
0.0229928
0.0229814
0.0229884
0.0230103
0.0229919
0.0230028
0.022994
0.0230007
0.0230027
0.0230135
0.0230223
0.0230133
0.0230187
)
;

boundaryField
{
    inlet
    {
        type            fixedValue;
        value           uniform 0;
    }
    outlet
    {
        type            zeroGradient;
    }
    yzfaces
    {
        type            empty;
    }
}


// ************************************************************************* //
