/*--------------------------------*- C++ -*----------------------------------*\
| =========                 |                                                 |
| \\      /  F ield         | foam-extend: Open Source CFD                    |
|  \\    /   O peration     | Version:     5.0                                |
|   \\  /    A nd           | Web:         http://www.foam-extend.org         |
|    \\/     M anipulation  |                                                 |
\*---------------------------------------------------------------------------*/
FoamFile
{
    version     2.0;
    format      ascii;
    class       surfaceScalarField;
    location    "3";
    object      phi.water;
}
// * * * * * * * * * * * * * * * * * * * * * * * * * * * * * * * * * * * * * //

dimensions      [0 3 -1 0 0 0 0];

internalField   nonuniform List<scalar> 
99
(
1.51131e-07
2.60308e-07
3.84084e-07
4.83127e-07
5.80651e-07
6.74604e-07
7.6287e-07
8.54333e-07
9.38857e-07
1.01382e-06
1.0932e-06
1.18097e-06
1.2665e-06
1.35181e-06
1.44714e-06
1.53631e-06
1.63268e-06
1.71814e-06
1.81145e-06
1.91369e-06
2.05307e-06
2.18419e-06
2.33856e-06
2.52976e-06
2.7848e-06
3.18968e-06
4.1142e-06
4.45579e-06
4.59628e-06
4.66841e-06
4.71262e-06
4.75412e-06
4.79436e-06
4.82052e-06
4.8551e-06
4.87599e-06
4.89938e-06
4.91437e-06
4.93097e-06
4.95245e-06
4.98279e-06
5.01531e-06
5.04596e-06
5.08557e-06
5.14207e-06
5.19109e-06
5.26029e-06
5.34007e-06
5.43969e-06
5.54185e-06
5.63544e-06
5.73704e-06
5.81829e-06
5.87902e-06
5.93165e-06
5.96543e-06
5.9832e-06
5.98791e-06
5.99974e-06
6.00981e-06
6.00302e-06
5.99711e-06
5.99803e-06
5.99757e-06
5.99487e-06
6.00207e-06
6.00107e-06
6.00207e-06
6.00965e-06
5.9978e-06
6.00233e-06
6.00496e-06
6.00312e-06
6.00131e-06
5.99141e-06
5.99456e-06
5.99214e-06
5.98944e-06
5.97918e-06
5.98288e-06
5.98844e-06
5.98827e-06
5.98764e-06
5.98656e-06
5.99446e-06
5.98724e-06
5.99059e-06
5.99218e-06
6.00512e-06
6.00925e-06
6.00302e-06
6.00541e-06
6.00731e-06
6.01094e-06
6.00807e-06
6.00986e-06
6.00267e-06
6.0027e-06
6.00783e-06
)
;

boundaryField
{
    inlet
    {
        type            fixedValue;
        value           uniform 0;
    }
    outlet
    {
        type            calculated;
        value           uniform 6.00439e-06;
    }
    yzfaces
    {
        type            empty;
    }
}


// ************************************************************************* //
