/*--------------------------------*- C++ -*----------------------------------*\
| =========                 |                                                 |
| \\      /  F ield         | foam-extend: Open Source CFD                    |
|  \\    /   O peration     | Version:     5.0                                |
|   \\  /    A nd           | Web:         http://www.foam-extend.org         |
|    \\/     M anipulation  |                                                 |
\*---------------------------------------------------------------------------*/
FoamFile
{
    version     2.0;
    format      ascii;
    class       volVectorField;
    location    "3";
    object      U.gas;
}
// * * * * * * * * * * * * * * * * * * * * * * * * * * * * * * * * * * * * * //

dimensions      [0 1 -1 0 0 0 0];

internalField   nonuniform List<vector> 
100
(
(0.00680426 0 0)
(0.00756881 0 0)
(0.00826961 0 0)
(0.00873629 0 0)
(0.00911889 0 0)
(0.00947413 0 0)
(0.00980673 0 0)
(0.0101094 0 0)
(0.010363 0 0)
(0.010596 0 0)
(0.0108133 0 0)
(0.0110401 0 0)
(0.0112403 0 0)
(0.0114295 0 0)
(0.0116435 0 0)
(0.0118217 0 0)
(0.0120129 0 0)
(0.0121751 0 0)
(0.0123089 0 0)
(0.0124485 0 0)
(0.0126579 0 0)
(0.0128398 0 0)
(0.0130237 0 0)
(0.0132205 0 0)
(0.0134362 0 0)
(0.0137828 0 0)
(0.0143493 0 0)
(0.0126333 0 0)
(0.0119223 0 0)
(0.0116068 0 0)
(0.0114346 0 0)
(0.011317 0 0)
(0.0112242 0 0)
(0.011135 0 0)
(0.0110497 0 0)
(0.0109764 0 0)
(0.0109037 0 0)
(0.0108373 0 0)
(0.0107735 0 0)
(0.0107225 0 0)
(0.0106732 0 0)
(0.0106235 0 0)
(0.010556 0 0)
(0.010459 0 0)
(0.0103424 0 0)
(0.0101803 0 0)
(0.00996472 0 0)
(0.00969307 0 0)
(0.00935983 0 0)
(0.00895125 0 0)
(0.00845103 0 0)
(0.0078801 0 0)
(0.00726532 0 0)
(0.00664042 0 0)
(0.00606972 0 0)
(0.00559777 0 0)
(0.00523603 0 0)
(0.00497753 0 0)
(0.00480948 0 0)
(0.00471123 0 0)
(0.00464765 0 0)
(0.00460103 0 0)
(0.00457367 0 0)
(0.00455863 0 0)
(0.00454806 0 0)
(0.00454283 0 0)
(0.00454234 0 0)
(0.00454034 0 0)
(0.00454166 0 0)
(0.00454048 0 0)
(0.00453851 0 0)
(0.00454145 0 0)
(0.00454142 0 0)
(0.00453956 0 0)
(0.00453615 0 0)
(0.00453141 0 0)
(0.00453011 0 0)
(0.00452701 0 0)
(0.00452238 0 0)
(0.0045198 0 0)
(0.00452183 0 0)
(0.00452323 0 0)
(0.00452278 0 0)
(0.00452206 0 0)
(0.00452422 0 0)
(0.0045257 0 0)
(0.00452572 0 0)
(0.0045279 0 0)
(0.00453281 0 0)
(0.00454086 0 0)
(0.00454126 0 0)
(0.0045398 0 0)
(0.00454305 0 0)
(0.00454459 0 0)
(0.00454352 0 0)
(0.00454352 0 0)
(0.0045431 0 0)
(0.00454158 0 0)
(0.00454266 0 0)
(0.00454069 0 0)
)
;

boundaryField
{
    inlet
    {
        type            fixedValue;
        value           uniform (0.005 0 0);
    }
    outlet
    {
        type            zeroGradient;
    }
    yzfaces
    {
        type            empty;
    }
}


// ************************************************************************* //
