/*--------------------------------*- C++ -*----------------------------------*\
| =========                 |                                                 |
| \\      /  F ield         | foam-extend: Open Source CFD                    |
|  \\    /   O peration     | Version:     5.0                                |
|   \\  /    A nd           | Web:         http://www.foam-extend.org         |
|    \\/     M anipulation  |                                                 |
\*---------------------------------------------------------------------------*/
FoamFile
{
    version     2.0;
    format      ascii;
    class       volScalarField;
    location    "8";
    object      alpha.gas;
}
// * * * * * * * * * * * * * * * * * * * * * * * * * * * * * * * * * * * * * //

dimensions      [0 0 0 0 0 0 0];

internalField   nonuniform List<scalar> 
100
(
0.165373
0.154126
0.147101
0.140933
0.134191
0.128646
0.125302
0.122911
0.11971
0.116179
0.112486
0.109606
0.106756
0.104455
0.101987
0.0994474
0.0974821
0.0957395
0.0941917
0.0926816
0.0914365
0.0898167
0.0886238
0.0873695
0.0868535
0.0865653
0.0860068
0.085173
0.084276
0.0832842
0.0821905
0.0808655
0.0795591
0.0785957
0.0778394
0.0771163
0.0763498
0.0755015
0.0748315
0.0743286
0.0736025
0.0728111
0.0720873
0.0714736
0.070933
0.0703316
0.0698403
0.0693897
0.0688692
0.0682654
0.0676279
0.0670107
0.0664186
0.0659128
0.0654449
0.0649773
0.0645072
0.0639855
0.0634749
0.0629577
0.0624333
0.0620067
0.0615849
0.0610485
0.0606459
0.06013
0.05957
0.0590414
0.0586013
0.0582022
0.0578666
0.0575014
0.0570585
0.0566748
0.0562241
0.0558309
0.0554445
0.0551787
0.054862
0.0544874
0.0542059
0.0539137
0.0535598
0.0531959
0.0528707
0.0525637
0.0521906
0.0518391
0.0514646
0.0511594
0.0507966
0.0504194
0.050078
0.0496832
0.0493023
0.04894
0.0485196
0.0481119
0.0476502
0.0471469
)
;

boundaryField
{
    inlet
    {
        type            fixedValue;
        value           uniform 0.2;
    }
    outlet
    {
        type            zeroGradient;
    }
    yzfaces
    {
        type            empty;
    }
}


// ************************************************************************* //
