/*--------------------------------*- C++ -*----------------------------------*\
| =========                 |                                                 |
| \\      /  F ield         | foam-extend: Open Source CFD                    |
|  \\    /   O peration     | Version:     5.0                                |
|   \\  /    A nd           | Web:         http://www.foam-extend.org         |
|    \\/     M anipulation  |                                                 |
\*---------------------------------------------------------------------------*/
FoamFile
{
    version     2.0;
    format      ascii;
    class       volScalarField;
    location    "8";
    object      Cl.water;
}
// * * * * * * * * * * * * * * * * * * * * * * * * * * * * * * * * * * * * * //

dimensions      [0 0 0 0 0 0 0];

internalField   nonuniform List<scalar> 
100
(
0.00672179
0.00971613
0.0118255
0.0129852
0.0138829
0.0150823
0.0160083
0.0167022
0.017004
0.0174199
0.0177653
0.0183781
0.0187488
0.0191884
0.0195676
0.0200338
0.0205265
0.0209413
0.0213387
0.0216194
0.0220221
0.0223548
0.0226657
0.0228643
0.0231744
0.0234159
0.0234934
0.0235376
0.0235761
0.0237503
0.0239457
0.024143
0.0243805
0.0245649
0.0247141
0.0248801
0.0250484
0.0252827
0.0254851
0.0256597
0.0257965
0.0259162
0.0260159
0.026164
0.0262488
0.0263736
0.0265451
0.0266272
0.0267305
0.0268583
0.0269559
0.0270516
0.027168
0.0272732
0.0273795
0.0274944
0.0276487
0.0277958
0.0279327
0.0280305
0.0281344
0.0282244
0.0283066
0.0284165
0.0284833
0.0285346
0.0285988
0.0287361
0.0289164
0.0289607
0.0290733
0.029168
0.0292297
0.0293572
0.0294313
0.0295303
0.0296144
0.0296989
0.029783
0.029832
0.0298756
0.0299371
0.0299838
0.0300639
0.0301609
0.0302307
0.0302907
0.0303419
0.0303775
0.0304825
0.030546
0.0306005
0.0307
0.0307586
0.0308341
0.0309324
0.0309796
0.0310625
0.0311108
0.0311952
)
;

boundaryField
{
    inlet
    {
        type            fixedValue;
        value           uniform 0;
    }
    outlet
    {
        type            zeroGradient;
    }
    yzfaces
    {
        type            empty;
    }
}


// ************************************************************************* //
