/*--------------------------------*- C++ -*----------------------------------*\
| =========                 |                                                 |
| \\      /  F ield         | foam-extend: Open Source CFD                    |
|  \\    /   O peration     | Version:     5.0                                |
|   \\  /    A nd           | Web:         http://www.foam-extend.org         |
|    \\/     M anipulation  |                                                 |
\*---------------------------------------------------------------------------*/
FoamFile
{
    version     2.0;
    format      ascii;
    class       volScalarField;
    location    "8";
    object      CO2.gas;
}
// * * * * * * * * * * * * * * * * * * * * * * * * * * * * * * * * * * * * * //

dimensions      [0 0 0 0 0 0 0];

internalField   nonuniform List<scalar> 
100
(
0.165051
0.153826
0.146814
0.140658
0.13393
0.128395
0.125058
0.122672
0.119477
0.115953
0.112267
0.109392
0.106548
0.104251
0.101788
0.0992537
0.0972922
0.095553
0.0940083
0.0925011
0.0912585
0.0896418
0.0884512
0.0871993
0.0866844
0.0863967
0.0858393
0.0850071
0.0841119
0.083122
0.0820304
0.0807081
0.0794041
0.0784426
0.0776878
0.0769661
0.0762011
0.0753544
0.0746858
0.0741838
0.0734592
0.0726693
0.071947
0.0713344
0.0707948
0.0701946
0.0697043
0.0692545
0.0687351
0.0681325
0.0674962
0.0668802
0.0662893
0.0657844
0.0653175
0.0648507
0.0643815
0.0638609
0.0633513
0.0628351
0.0623117
0.0618859
0.061465
0.0609296
0.0605278
0.0600129
0.059454
0.0589265
0.0584872
0.0580889
0.0577539
0.0573894
0.0569474
0.0565645
0.0561146
0.0557222
0.0553365
0.0550712
0.0547552
0.0543813
0.0541004
0.0538087
0.0534555
0.0530923
0.0527678
0.0524613
0.052089
0.0517382
0.0513644
0.0510597
0.0506977
0.0503212
0.0499805
0.0495865
0.0492063
0.0488447
0.0484252
0.0480182
0.0475574
0.0470551
)
;

boundaryField
{
    inlet
    {
        type            fixedValue;
        value           uniform 0.2;
    }
    outlet
    {
        type            zeroGradient;
    }
    yzfaces
    {
        type            empty;
    }
}


// ************************************************************************* //
