/*--------------------------------*- C++ -*----------------------------------*\
| =========                 |                                                 |
| \\      /  F ield         | foam-extend: Open Source CFD                    |
|  \\    /   O peration     | Version:     5.0                                |
|   \\  /    A nd           | Web:         http://www.foam-extend.org         |
|    \\/     M anipulation  |                                                 |
\*---------------------------------------------------------------------------*/
FoamFile
{
    version     2.0;
    format      ascii;
    class       volScalarField;
    location    "8";
    object      CO2.water;
}
// * * * * * * * * * * * * * * * * * * * * * * * * * * * * * * * * * * * * * //

dimensions      [0 0 0 0 0 0 0];

internalField   nonuniform List<scalar> 
100
(
0.000909468
0.00120485
0.00138938
0.00155137
0.00172845
0.00187408
0.0019619
0.00202471
0.00210877
0.00220152
0.00229851
0.00237416
0.00244902
0.00250945
0.00257427
0.00264097
0.00269259
0.00273835
0.00277901
0.00281867
0.00285137
0.00289391
0.00292525
0.00295819
0.00297174
0.00297931
0.00299398
0.00301588
0.00303944
0.00306549
0.00309421
0.00312901
0.00316333
0.00318863
0.00320849
0.00322748
0.00324762
0.0032699
0.00328749
0.0033007
0.00331977
0.00334056
0.00335957
0.00337569
0.00338989
0.00340568
0.00341858
0.00343042
0.00344409
0.00345995
0.00347669
0.0034929
0.00350845
0.00352174
0.00353403
0.00354631
0.00355866
0.00357236
0.00358577
0.00359935
0.00361313
0.00362433
0.00363541
0.0036495
0.00366007
0.00367362
0.00368833
0.00370221
0.00371377
0.00372425
0.00373307
0.00374266
0.00375429
0.00376437
0.00377621
0.00378653
0.00379668
0.00380366
0.00381198
0.00382182
0.00382921
0.00383689
0.00384618
0.00385574
0.00386428
0.00387235
0.00388215
0.00389138
0.00390121
0.00390923
0.00391876
0.00392867
0.00393763
0.003948
0.00395801
0.00396752
0.00397856
0.00398927
0.0040014
0.00401462
)
;

boundaryField
{
    inlet
    {
        type            fixedValue;
        value           uniform 0;
    }
    outlet
    {
        type            zeroGradient;
    }
    yzfaces
    {
        type            empty;
    }
}


// ************************************************************************* //
