/*--------------------------------*- C++ -*----------------------------------*\
| =========                 |                                                 |
| \\      /  F ield         | foam-extend: Open Source CFD                    |
|  \\    /   O peration     | Version:     5.0                                |
|   \\  /    A nd           | Web:         http://www.foam-extend.org         |
|    \\/     M anipulation  |                                                 |
\*---------------------------------------------------------------------------*/
FoamFile
{
    version     2.0;
    format      ascii;
    class       volScalarField;
    location    "8";
    object      H2O.water;
}
// * * * * * * * * * * * * * * * * * * * * * * * * * * * * * * * * * * * * * //

dimensions      [0 0 0 0 0 0 0];

internalField   nonuniform List<scalar> 
100
(
0.0202762
0.0252427
0.0278614
0.0315451
0.036313
0.0393065
0.0407104
0.0416464
0.044165
0.0467672
0.0496644
0.0512433
0.0532867
0.0546446
0.0562903
0.057828
0.0587555
0.0596216
0.0603434
0.06126
0.0616746
0.0625884
0.0631203
0.0639436
0.0638319
0.0636286
0.0640221
0.06474
0.0655315
0.0661549
0.0668317
0.0677364
0.0685209
0.0690821
0.069516
0.0698801
0.070288
0.0706398
0.0708982
0.0710442
0.0714766
0.0720187
0.0725117
0.0727977
0.0731656
0.0735117
0.0736409
0.0739184
0.0742139
0.074534
0.0749595
0.0753611
0.0757077
0.0760045
0.0762484
0.0764776
0.0766206
0.0768548
0.0770695
0.0773659
0.0776678
0.0778954
0.0781395
0.0784472
0.0787222
0.0791276
0.0795376
0.079775
0.0798337
0.0801328
0.0802384
0.0804107
0.080737
0.0808537
0.0811501
0.0813504
0.0815624
0.0816418
0.0817919
0.0820614
0.082228
0.0824008
0.0826669
0.0828611
0.0829883
0.0831482
0.0833904
0.0836305
0.0839049
0.0840021
0.0842244
0.0844794
0.084628
0.084889
0.085109
0.0852556
0.0855702
0.085818
0.0861565
0.0864711
)
;

boundaryField
{
    inlet
    {
        type            fixedValue;
        value           uniform 0;
    }
    outlet
    {
        type            zeroGradient;
    }
    yzfaces
    {
        type            empty;
    }
}


// ************************************************************************* //
