/*--------------------------------*- C++ -*----------------------------------*\
| =========                 |                                                 |
| \\      /  F ield         | foam-extend: Open Source CFD                    |
|  \\    /   O peration     | Version:     5.0                                |
|   \\  /    A nd           | Web:         http://www.foam-extend.org         |
|    \\/     M anipulation  |                                                 |
\*---------------------------------------------------------------------------*/
FoamFile
{
    version     2.0;
    format      ascii;
    class       volScalarField;
    location    "8";
    object      H2O.gas;
}
// * * * * * * * * * * * * * * * * * * * * * * * * * * * * * * * * * * * * * //

dimensions      [0 0 0 0 0 0 0];

internalField   nonuniform List<scalar> 
100
(
0.000322059
0.000300157
0.000286474
0.000274463
0.000261333
0.000250534
0.000244023
0.000239366
0.000233132
0.000226255
0.000219064
0.000213454
0.000207904
0.000203423
0.000198617
0.000193671
0.000189844
0.00018645
0.000183436
0.000180495
0.00017807
0.000174915
0.000172592
0.000170149
0.000169145
0.000168583
0.000167496
0.000165872
0.000164125
0.000162194
0.000160064
0.000157483
0.000154939
0.000153063
0.00015159
0.000150182
0.000148689
0.000147037
0.000145732
0.000144753
0.000143339
0.000141797
0.000140388
0.000139193
0.00013814
0.000136969
0.000136012
0.000135134
0.000134121
0.000132945
0.000131703
0.000130501
0.000129348
0.000128363
0.000127452
0.000126541
0.000125626
0.00012461
0.000123616
0.000122608
0.000121587
0.000120756
0.000119935
0.00011889
0.000118106
0.000117101
0.000116011
0.000114981
0.000114124
0.000113347
0.000112693
0.000111982
0.00011112
0.000110373
0.000109495
0.000108729
0.000107977
0.000107459
0.000106842
0.000106113
0.000105565
0.000104995
0.000104306
0.000103597
0.000102964
0.000102366
0.00010164
0.000100955
0.000100226
9.96314e-05
9.8925e-05
9.81903e-05
9.75254e-05
9.67567e-05
9.60148e-05
9.53092e-05
9.44906e-05
9.36965e-05
9.27975e-05
9.18173e-05
)
;

boundaryField
{
    inlet
    {
        type            fixedValue;
        value           uniform 0;
    }
    outlet
    {
        type            zeroGradient;
    }
    yzfaces
    {
        type            empty;
    }
}


// ************************************************************************* //
