/*--------------------------------*- C++ -*----------------------------------*\
| =========                 |                                                 |
| \\      /  F ield         | foam-extend: Open Source CFD                    |
|  \\    /   O peration     | Version:     5.0                                |
|   \\  /    A nd           | Web:         http://www.foam-extend.org         |
|    \\/     M anipulation  |                                                 |
\*---------------------------------------------------------------------------*/
FoamFile
{
    version     2.0;
    format      ascii;
    class       volScalarField;
    location    "8";
    object      Na.water;
}
// * * * * * * * * * * * * * * * * * * * * * * * * * * * * * * * * * * * * * //

dimensions      [0 0 0 0 0 0 0];

internalField   nonuniform List<scalar> 
100
(
0.00671978
0.00971
0.0118231
0.0129855
0.0138848
0.0150912
0.0160171
0.0167157
0.0170119
0.0174325
0.0177856
0.0183985
0.0187598
0.0192029
0.0195809
0.0200499
0.0205433
0.0209592
0.0213472
0.0216204
0.0220154
0.0223462
0.022665
0.0228645
0.0231685
0.023411
0.0234838
0.0235335
0.0235769
0.0237451
0.0239378
0.0241261
0.0243762
0.0245687
0.024722
0.024896
0.0250662
0.0253062
0.0254978
0.0256668
0.0258045
0.0259135
0.0260255
0.026189
0.0262627
0.0263775
0.0265551
0.0266342
0.0267422
0.0268823
0.02698
0.0270837
0.0271972
0.0272878
0.0273932
0.0275044
0.0276649
0.0277915
0.0279371
0.0280466
0.0281515
0.0282492
0.0283336
0.0284384
0.0284885
0.0285341
0.0286053
0.0287452
0.0289348
0.02898
0.0290886
0.0291772
0.0292205
0.0293499
0.0294183
0.0295018
0.0295821
0.0296769
0.029751
0.0297974
0.0298613
0.0299116
0.0299432
0.0300234
0.0301157
0.0301851
0.0302461
0.0302971
0.0303517
0.0304469
0.0305142
0.0305721
0.0306564
0.0307212
0.0307965
0.0309044
0.0309519
0.0310185
0.031081
0.0311722
)
;

boundaryField
{
    inlet
    {
        type            fixedValue;
        value           uniform 0;
    }
    outlet
    {
        type            zeroGradient;
    }
    yzfaces
    {
        type            empty;
    }
}


// ************************************************************************* //
