/*--------------------------------*- C++ -*----------------------------------*\
| =========                 |                                                 |
| \\      /  F ield         | foam-extend: Open Source CFD                    |
|  \\    /   O peration     | Version:     5.0                                |
|   \\  /    A nd           | Web:         http://www.foam-extend.org         |
|    \\/     M anipulation  |                                                 |
\*---------------------------------------------------------------------------*/
FoamFile
{
    version     2.0;
    format      ascii;
    class       surfaceScalarField;
    location    "8";
    object      phi;
}
// * * * * * * * * * * * * * * * * * * * * * * * * * * * * * * * * * * * * * //

dimensions      [0 3 -1 0 0 0 0];

internalField   nonuniform List<scalar> 
99
(
1.22986e-06
1.2335e-06
1.23316e-06
1.23221e-06
1.22627e-06
1.23336e-06
1.23119e-06
1.24351e-06
1.2365e-06
1.2278e-06
1.22642e-06
1.22415e-06
1.2257e-06
1.22489e-06
1.22603e-06
1.22687e-06
1.2356e-06
1.23228e-06
1.23592e-06
1.23989e-06
1.23534e-06
1.23738e-06
1.23904e-06
1.24882e-06
1.24649e-06
1.24752e-06
1.24777e-06
1.25365e-06
1.25414e-06
1.2504e-06
1.24615e-06
1.24688e-06
1.24716e-06
1.25435e-06
1.25472e-06
1.25778e-06
1.25846e-06
1.26065e-06
1.25673e-06
1.25322e-06
1.24906e-06
1.25116e-06
1.25211e-06
1.25154e-06
1.24978e-06
1.25149e-06
1.25283e-06
1.25168e-06
1.24964e-06
1.24895e-06
1.24923e-06
1.2483e-06
1.24689e-06
1.24828e-06
1.24606e-06
1.24567e-06
1.24418e-06
1.24441e-06
1.24674e-06
1.24837e-06
1.25311e-06
1.25112e-06
1.24802e-06
1.24955e-06
1.24896e-06
1.25215e-06
1.254e-06
1.25627e-06
1.25578e-06
1.25329e-06
1.2501e-06
1.25023e-06
1.24915e-06
1.24659e-06
1.24848e-06
1.24663e-06
1.2485e-06
1.2455e-06
1.24416e-06
1.24787e-06
1.24879e-06
1.24643e-06
1.24548e-06
1.24416e-06
1.24344e-06
1.24035e-06
1.23883e-06
1.24015e-06
1.23834e-06
1.23753e-06
1.23611e-06
1.23693e-06
1.23562e-06
1.2345e-06
1.23356e-06
1.23156e-06
1.23087e-06
1.23021e-06
1.23279e-06
)
;

boundaryField
{
    inlet
    {
        type            calculated;
        value           uniform -1.225e-06;
    }
    outlet
    {
        type            calculated;
        value           uniform 1.23889e-06;
    }
    yzfaces
    {
        type            empty;
    }
}


// ************************************************************************* //
