/*--------------------------------*- C++ -*----------------------------------*\
| =========                 |                                                 |
| \\      /  F ield         | foam-extend: Open Source CFD                    |
|  \\    /   O peration     | Version:     5.0                                |
|   \\  /    A nd           | Web:         http://www.foam-extend.org         |
|    \\/     M anipulation  |                                                 |
\*---------------------------------------------------------------------------*/
FoamFile
{
    version     2.0;
    format      ascii;
    class       surfaceScalarField;
    location    "8";
    object      phi.water;
}
// * * * * * * * * * * * * * * * * * * * * * * * * * * * * * * * * * * * * * //

dimensions      [0 3 -1 0 0 0 0];

internalField   nonuniform List<scalar> 
99
(
7.61146e-08
1.25028e-07
1.60731e-07
1.95082e-07
2.41412e-07
2.90736e-07
3.21632e-07
3.4601e-07
3.74877e-07
4.10946e-07
4.58152e-07
4.95955e-07
5.39345e-07
5.74329e-07
6.16006e-07
6.63841e-07
7.05528e-07
7.41147e-07
7.76435e-07
8.13408e-07
8.37994e-07
8.80122e-07
9.1238e-07
9.54994e-07
9.66772e-07
9.76237e-07
9.90896e-07
1.0179e-06
1.04444e-06
1.06829e-06
1.0996e-06
1.1433e-06
1.18862e-06
1.23017e-06
1.25785e-06
1.28691e-06
1.31609e-06
1.35082e-06
1.37406e-06
1.38846e-06
1.41383e-06
1.44937e-06
1.48262e-06
1.5077e-06
1.52951e-06
1.55896e-06
1.58317e-06
1.60244e-06
1.6239e-06
1.65167e-06
1.68317e-06
1.71223e-06
1.74158e-06
1.76887e-06
1.79043e-06
1.81305e-06
1.83641e-06
1.86451e-06
1.89743e-06
1.92878e-06
1.96631e-06
1.98763e-06
2.00768e-06
2.04301e-06
2.06518e-06
2.10093e-06
2.13942e-06
2.17716e-06
2.20462e-06
2.22589e-06
2.24195e-06
2.26588e-06
2.29275e-06
2.31503e-06
2.3489e-06
2.3729e-06
2.40422e-06
2.41591e-06
2.43611e-06
2.47175e-06
2.49243e-06
2.50784e-06
2.53127e-06
2.55666e-06
2.57918e-06
2.59521e-06
2.62031e-06
2.64932e-06
2.67517e-06
2.6961e-06
2.72283e-06
2.75295e-06
2.77703e-06
2.80588e-06
2.83527e-06
2.85892e-06
2.89218e-06
2.9245e-06
2.97009e-06
)
;

boundaryField
{
    inlet
    {
        type            fixedValue;
        value           uniform 0;
    }
    outlet
    {
        type            calculated;
        value           uniform 3.02912e-06;
    }
    yzfaces
    {
        type            empty;
    }
}


// ************************************************************************* //
