/*--------------------------------*- C++ -*----------------------------------*\
| =========                 |                                                 |
| \\      /  F ield         | foam-extend: Open Source CFD                    |
|  \\    /   O peration     | Version:     5.0                                |
|   \\  /    A nd           | Web:         http://www.foam-extend.org         |
|    \\/     M anipulation  |                                                 |
\*---------------------------------------------------------------------------*/
FoamFile
{
    version     2.0;
    format      ascii;
    class       volVectorField;
    location    "8";
    object      U.gas;
}
// * * * * * * * * * * * * * * * * * * * * * * * * * * * * * * * * * * * * * //

dimensions      [0 1 -1 0 0 0 0];

internalField   nonuniform List<vector> 
100
(
(0.00605139 0 0)
(0.00649913 0 0)
(0.0068022 0 0)
(0.00707872 0 0)
(0.00739044 0 0)
(0.00768401 0 0)
(0.00787955 0 0)
(0.00804662 0 0)
(0.00825805 0 0)
(0.00842571 0 0)
(0.00862946 0 0)
(0.00880421 0 0)
(0.00899781 0 0)
(0.00915973 0 0)
(0.0093418 0 0)
(0.00954019 0 0)
(0.00972315 0 0)
(0.00987854 0 0)
(0.00999996 0 0)
(0.0101524 0 0)
(0.0102479 0 0)
(0.0103774 0 0)
(0.0104862 0 0)
(0.0106421 0 0)
(0.0107053 0 0)
(0.0107196 0 0)
(0.0107772 0 0)
(0.0108817 0 0)
(0.0109892 0 0)
(0.0110649 0 0)
(0.0111286 0 0)
(0.0112346 0 0)
(0.0113557 0 0)
(0.0114671 0 0)
(0.0115634 0 0)
(0.0116433 0 0)
(0.0117311 0 0)
(0.0118244 0 0)
(0.0118711 0 0)
(0.011875 0 0)
(0.0119112 0 0)
(0.0119744 0 0)
(0.0120507 0 0)
(0.0121028 0 0)
(0.0121369 0 0)
(0.0121926 0 0)
(0.0122462 0 0)
(0.0122837 0 0)
(0.0123157 0 0)
(0.0123588 0 0)
(0.0124134 0 0)
(0.0124619 0 0)
(0.0124987 0 0)
(0.0125365 0 0)
(0.0125694 0 0)
(0.0125957 0 0)
(0.0126251 0 0)
(0.0126637 0 0)
(0.0127166 0 0)
(0.0127775 0 0)
(0.0128525 0 0)
(0.0128927 0 0)
(0.0128965 0 0)
(0.0129361 0 0)
(0.012962 0 0)
(0.0130225 0 0)
(0.0130936 0 0)
(0.0131498 0 0)
(0.0131817 0 0)
(0.0131889 0 0)
(0.0131761 0 0)
(0.0131865 0 0)
(0.0132177 0 0)
(0.0132168 0 0)
(0.0132456 0 0)
(0.0132645 0 0)
(0.0132856 0 0)
(0.0132832 0 0)
(0.0132823 0 0)
(0.0133202 0 0)
(0.0133506 0 0)
(0.0133592 0 0)
(0.0133653 0 0)
(0.013371 0 0)
(0.0133697 0 0)
(0.0133603 0 0)
(0.0133586 0 0)
(0.0133706 0 0)
(0.0133843 0 0)
(0.0133729 0 0)
(0.0133791 0 0)
(0.01339 0 0)
(0.0133944 0 0)
(0.0133978 0 0)
(0.0133936 0 0)
(0.0133833 0 0)
(0.0133853 0 0)
(0.0133833 0 0)
(0.0134074 0 0)
(0.0134714 0 0)
)
;

boundaryField
{
    inlet
    {
        type            fixedValue;
        value           uniform (0.005 0 0);
    }
    outlet
    {
        type            zeroGradient;
    }
    yzfaces
    {
        type            empty;
    }
}


// ************************************************************************* //
