/*--------------------------------*- C++ -*----------------------------------*\
| =========                 |                                                 |
| \\      /  F ield         | foam-extend: Open Source CFD                    |
|  \\    /   O peration     | Version:     5.0                                |
|   \\  /    A nd           | Web:         http://www.foam-extend.org         |
|    \\/     M anipulation  |                                                 |
\*---------------------------------------------------------------------------*/
FoamFile
{
    version     2.0;
    format      ascii;
    class       volVectorField;
    location    "8";
    object      U.water;
}
// * * * * * * * * * * * * * * * * * * * * * * * * * * * * * * * * * * * * * //

dimensions      [0 1 -1 0 0 0 0];

internalField   nonuniform List<vector> 
100
(
(3.60694e-05 0 0)
(8.21386e-05 0 0)
(0.000117042 0 0)
(0.000146374 0 0)
(0.000178235 0 0)
(0.000216029 0 0)
(0.000249159 0 0)
(0.000273216 0 0)
(0.000294859 0 0)
(0.000321481 0 0)
(0.000354563 0 0)
(0.000389847 0 0)
(0.00042225 0 0)
(0.00045493 0 0)
(0.000485996 0 0)
(0.000521489 0 0)
(0.000558518 0 0)
(0.000590186 0 0)
(0.000619204 0 0)
(0.000648518 0 0)
(0.000674902 0 0)
(0.000700775 0 0)
(0.000731414 0 0)
(0.000760503 0 0)
(0.00078391 0 0)
(0.000793609 0 0)
(0.000803371 0 0)
(0.000820038 0 0)
(0.000842179 0 0)
(0.000863008 0 0)
(0.000885656 0 0)
(0.000915537 0 0)
(0.000950911 0 0)
(0.00098647 0 0)
(0.00101519 0 0)
(0.00103857 0 0)
(0.00106242 0 0)
(0.00108792 0 0)
(0.00111185 0 0)
(0.00112852 0 0)
(0.00114439 0 0)
(0.00116859 0 0)
(0.00119645 0 0)
(0.00122055 0 0)
(0.00123996 0 0)
(0.00126011 0 0)
(0.00128222 0 0)
(0.00130075 0 0)
(0.00131758 0 0)
(0.00133719 0 0)
(0.00136111 0 0)
(0.00138597 0 0)
(0.00140959 0 0)
(0.0014328 0 0)
(0.00145288 0 0)
(0.00147083 0 0)
(0.00148979 0 0)
(0.00151058 0 0)
(0.00153535 0 0)
(0.00156135 0 0)
(0.00158898 0 0)
(0.00161385 0 0)
(0.00163151 0 0)
(0.00165302 0 0)
(0.00167705 0 0)
(0.00170026 0 0)
(0.00172992 0 0)
(0.00176091 0 0)
(0.00178827 0 0)
(0.00180881 0 0)
(0.00182458 0 0)
(0.0018407 0 0)
(0.0018607 0 0)
(0.0018811 0 0)
(0.0019035 0 0)
(0.00192719 0 0)
(0.00194945 0 0)
(0.00196801 0 0)
(0.00198084 0 0)
(0.00200242 0 0)
(0.0020259 0 0)
(0.00204136 0 0)
(0.00205721 0 0)
(0.00207688 0 0)
(0.00209665 0 0)
(0.00211293 0 0)
(0.00212921 0 0)
(0.00215109 0 0)
(0.00217328 0 0)
(0.00219303 0 0)
(0.00221198 0 0)
(0.00223483 0 0)
(0.00225743 0 0)
(0.00227894 0 0)
(0.00230287 0 0)
(0.00232485 0 0)
(0.00234766 0 0)
(0.00237429 0 0)
(0.00240524 0 0)
(0.00244491 0 0)
)
;

boundaryField
{
    inlet
    {
        type            fixedValue;
        value           uniform (0 0 0);
    }
    outlet
    {
        type            zeroGradient;
    }
    yzfaces
    {
        type            empty;
    }
}


// ************************************************************************* //
