/*--------------------------------*- C++ -*----------------------------------*\
| =========                 |                                                 |
| \\      /  F ield         | foam-extend: Open Source CFD                    |
|  \\    /   O peration     | Version:     5.0                                |
|   \\  /    A nd           | Web:         http://www.foam-extend.org         |
|    \\/     M anipulation  |                                                 |
\*---------------------------------------------------------------------------*/
FoamFile
{
    version     2.0;
    format      ascii;
    class       volScalarField;
    location    "7";
    object      alpha.gas;
}
// * * * * * * * * * * * * * * * * * * * * * * * * * * * * * * * * * * * * * //

dimensions      [0 0 0 0 0 0 0];

internalField   nonuniform List<scalar> 
100
(
0.163196
0.15125
0.144033
0.136429
0.129464
0.125471
0.122125
0.118369
0.114028
0.110988
0.107519
0.104897
0.102022
0.0993453
0.0969266
0.094989
0.0932457
0.0916086
0.0901391
0.0888092
0.0878249
0.0870826
0.0861718
0.0853065
0.0842715
0.0833086
0.0820091
0.0806633
0.0795191
0.0783647
0.0775301
0.0766557
0.0758084
0.0750031
0.0742308
0.073341
0.0725969
0.0719228
0.0712751
0.0705726
0.0698968
0.069269
0.0687115
0.068092
0.0673524
0.0667591
0.0660974
0.0654327
0.0649067
0.0643482
0.0638758
0.0632751
0.0627112
0.0620964
0.0614441
0.0609245
0.0603958
0.0598834
0.0593835
0.0589116
0.0583756
0.0578555
0.0574353
0.0570004
0.0565949
0.0561254
0.0556227
0.0552518
0.0548313
0.0543919
0.0540412
0.0536452
0.0532856
0.0528592
0.0524893
0.0521123
0.0517488
0.0514013
0.0509511
0.0505487
0.0501202
0.0496822
0.0492341
0.0488199
0.0483657
0.047889
0.0473534
0.0468408
0.0463305
0.045842
0.0453396
0.0448461
0.0443463
0.0438411
0.0433646
0.042865
0.042365
0.041843
0.0413353
0.040805
)
;

boundaryField
{
    inlet
    {
        type            fixedValue;
        value           uniform 0.2;
    }
    outlet
    {
        type            zeroGradient;
    }
    yzfaces
    {
        type            empty;
    }
}


// ************************************************************************* //
