/*--------------------------------*- C++ -*----------------------------------*\
| =========                 |                                                 |
| \\      /  F ield         | foam-extend: Open Source CFD                    |
|  \\    /   O peration     | Version:     5.0                                |
|   \\  /    A nd           | Web:         http://www.foam-extend.org         |
|    \\/     M anipulation  |                                                 |
\*---------------------------------------------------------------------------*/
FoamFile
{
    version     2.0;
    format      ascii;
    class       volScalarField;
    location    "7";
    object      Cl.water;
}
// * * * * * * * * * * * * * * * * * * * * * * * * * * * * * * * * * * * * * //

dimensions      [0 0 0 0 0 0 0];

internalField   nonuniform List<scalar> 
100
(
0.00735368
0.0104204
0.0124723
0.013583
0.0146886
0.0159565
0.0166629
0.0172348
0.0176474
0.0182116
0.0185808
0.0192092
0.0196379
0.0201116
0.0205235
0.0211402
0.0214818
0.0217819
0.0221724
0.022547
0.0228926
0.0232112
0.023348
0.0235768
0.0236553
0.0238681
0.0240884
0.0242652
0.0244605
0.0246934
0.0249418
0.0250887
0.0252268
0.0253661
0.0255487
0.0256922
0.0259347
0.0261731
0.026326
0.0264459
0.0265627
0.0266728
0.026801
0.0269263
0.0269898
0.0271671
0.0272836
0.02743
0.0276168
0.027668
0.0278173
0.0278448
0.0280263
0.0280933
0.028232
0.028411
0.0285795
0.0287178
0.0288048
0.0289124
0.0290035
0.0290474
0.0291824
0.0292464
0.0293205
0.0294136
0.0295287
0.0297296
0.0297497
0.0298033
0.0299398
0.0299913
0.0300697
0.0301359
0.0302634
0.0303203
0.0303951
0.0304373
0.0304764
0.0305936
0.0306894
0.0307954
0.03085
0.0309379
0.0310229
0.0310508
0.0311491
0.0312582
0.0313946
0.0315176
0.0316006
0.0316904
0.0317986
0.0319253
0.0320359
0.0321065
0.0322108
0.0323258
0.0324179
0.0325182
)
;

boundaryField
{
    inlet
    {
        type            fixedValue;
        value           uniform 0;
    }
    outlet
    {
        type            zeroGradient;
    }
    yzfaces
    {
        type            empty;
    }
}


// ************************************************************************* //
