/*--------------------------------*- C++ -*----------------------------------*\
| =========                 |                                                 |
| \\      /  F ield         | foam-extend: Open Source CFD                    |
|  \\    /   O peration     | Version:     5.0                                |
|   \\  /    A nd           | Web:         http://www.foam-extend.org         |
|    \\/     M anipulation  |                                                 |
\*---------------------------------------------------------------------------*/
FoamFile
{
    version     2.0;
    format      ascii;
    class       volScalarField;
    location    "7";
    object      CO2.water;
}
// * * * * * * * * * * * * * * * * * * * * * * * * * * * * * * * * * * * * * //

dimensions      [0 0 0 0 0 0 0];

internalField   nonuniform List<scalar> 
100
(
0.000966648
0.0012804
0.00146995
0.00166967
0.00185259
0.00195746
0.00204535
0.002144
0.00225802
0.00233786
0.00242898
0.00249782
0.00257335
0.00264365
0.00270717
0.00275807
0.00280385
0.00284685
0.00288545
0.00292037
0.00294623
0.00296572
0.00298965
0.00301237
0.00303956
0.00306485
0.00309898
0.00313432
0.00316438
0.0031947
0.00321662
0.00323958
0.00326184
0.00328299
0.00330327
0.00332664
0.00334618
0.00336389
0.0033809
0.00339935
0.0034171
0.00343359
0.00344823
0.0034645
0.00348393
0.00349951
0.00351689
0.00353435
0.00354816
0.00356283
0.00357524
0.00359102
0.00360583
0.00362197
0.00363911
0.00365275
0.00366664
0.0036801
0.00369323
0.00370562
0.0037197
0.00373336
0.0037444
0.00375582
0.00376647
0.0037788
0.003792
0.00380174
0.00381279
0.00382433
0.00383354
0.00384394
0.00385339
0.00386459
0.0038743
0.0038842
0.00389375
0.00390288
0.0039147
0.00392527
0.00393652
0.00394803
0.0039598
0.00397068
0.00398261
0.00399512
0.00400919
0.00402266
0.00403606
0.00404889
0.00406209
0.00407505
0.00408817
0.00410144
0.00411396
0.00412708
0.00414021
0.00415392
0.00416725
0.00418118
)
;

boundaryField
{
    inlet
    {
        type            fixedValue;
        value           uniform 0;
    }
    outlet
    {
        type            zeroGradient;
    }
    yzfaces
    {
        type            empty;
    }
}


// ************************************************************************* //
