/*--------------------------------*- C++ -*----------------------------------*\
| =========                 |                                                 |
| \\      /  F ield         | foam-extend: Open Source CFD                    |
|  \\    /   O peration     | Version:     5.0                                |
|   \\  /    A nd           | Web:         http://www.foam-extend.org         |
|    \\/     M anipulation  |                                                 |
\*---------------------------------------------------------------------------*/
FoamFile
{
    version     2.0;
    format      ascii;
    class       volScalarField;
    location    "7";
    object      CO2.gas;
}
// * * * * * * * * * * * * * * * * * * * * * * * * * * * * * * * * * * * * * //

dimensions      [0 0 0 0 0 0 0];

internalField   nonuniform List<scalar> 
100
(
0.162878
0.150955
0.143752
0.136163
0.129212
0.125227
0.121887
0.118139
0.113806
0.110772
0.107309
0.104693
0.101823
0.0991518
0.0967379
0.094804
0.0930642
0.0914302
0.0899636
0.0886363
0.0876539
0.086913
0.086004
0.0851404
0.0841074
0.0831464
0.0818494
0.0805062
0.0793642
0.0782121
0.0773791
0.0765064
0.0756607
0.074857
0.0740862
0.0731981
0.0724555
0.0717827
0.0711363
0.0704351
0.0697607
0.0691341
0.0685776
0.0679594
0.0672212
0.0666291
0.0659686
0.0653053
0.0647803
0.0642228
0.0637514
0.0631518
0.062589
0.0619755
0.0613244
0.0608059
0.0602782
0.0597668
0.0592678
0.0587969
0.0582619
0.0577428
0.0573235
0.0568894
0.0564847
0.0560161
0.0555144
0.0551442
0.0547245
0.054286
0.053936
0.0535407
0.0531819
0.0527563
0.0523871
0.0520108
0.051648
0.0513012
0.0508519
0.0504503
0.0500226
0.0495854
0.0491382
0.0487249
0.0482715
0.0477958
0.0472612
0.0467496
0.0462402
0.0457527
0.0452513
0.0447587
0.04426
0.0437557
0.0432801
0.0427816
0.0422825
0.0417615
0.0412548
0.0407255
)
;

boundaryField
{
    inlet
    {
        type            fixedValue;
        value           uniform 0.2;
    }
    outlet
    {
        type            zeroGradient;
    }
    yzfaces
    {
        type            empty;
    }
}


// ************************************************************************* //
