/*--------------------------------*- C++ -*----------------------------------*\
| =========                 |                                                 |
| \\      /  F ield         | foam-extend: Open Source CFD                    |
|  \\    /   O peration     | Version:     5.0                                |
|   \\  /    A nd           | Web:         http://www.foam-extend.org         |
|    \\/     M anipulation  |                                                 |
\*---------------------------------------------------------------------------*/
FoamFile
{
    version     2.0;
    format      ascii;
    class       volScalarField;
    location    "7";
    object      H2O.gas;
}
// * * * * * * * * * * * * * * * * * * * * * * * * * * * * * * * * * * * * * //

dimensions      [0 0 0 0 0 0 0];

internalField   nonuniform List<scalar> 
100
(
0.000317819
0.000294555
0.0002805
0.000265691
0.000252127
0.000244352
0.000237835
0.00023052
0.000222066
0.000216146
0.000209389
0.000204285
0.000198684
0.000193472
0.000188762
0.000184988
0.000181593
0.000178405
0.000175543
0.000172953
0.000171036
0.000169591
0.000167817
0.000166132
0.000164116
0.000162241
0.00015971
0.000157089
0.000154861
0.000152613
0.000150988
0.000149285
0.000147635
0.000146066
0.000144562
0.000142829
0.00014138
0.000140067
0.000138806
0.000137438
0.000136122
0.000134899
0.000133814
0.000132607
0.000131167
0.000130011
0.000128723
0.000127428
0.000126404
0.000125316
0.000124396
0.000123226
0.000122128
0.000120931
0.000119661
0.000118649
0.000117619
0.000116621
0.000115648
0.000114729
0.000113685
0.000112672
0.000111854
0.000111007
0.000110217
0.000109303
0.000108324
0.000107601
0.000106782
0.000105927
0.000105244
0.000104472
0.000103772
0.000102942
0.000102221
0.000101487
0.000100779
0.000100103
9.92258e-05
9.84421e-05
9.76077e-05
9.67546e-05
9.58819e-05
9.50754e-05
9.41908e-05
9.32625e-05
9.22194e-05
9.12212e-05
9.02272e-05
8.9276e-05
8.82975e-05
8.73364e-05
8.63632e-05
8.53792e-05
8.44513e-05
8.34784e-05
8.25045e-05
8.1488e-05
8.04993e-05
7.94665e-05
)
;

boundaryField
{
    inlet
    {
        type            fixedValue;
        value           uniform 0;
    }
    outlet
    {
        type            zeroGradient;
    }
    yzfaces
    {
        type            empty;
    }
}


// ************************************************************************* //
