/*--------------------------------*- C++ -*----------------------------------*\
| =========                 |                                                 |
| \\      /  F ield         | foam-extend: Open Source CFD                    |
|  \\    /   O peration     | Version:     5.0                                |
|   \\  /    A nd           | Web:         http://www.foam-extend.org         |
|    \\/     M anipulation  |                                                 |
\*---------------------------------------------------------------------------*/
FoamFile
{
    version     2.0;
    format      ascii;
    class       volScalarField;
    location    "7";
    object      H2O.water;
}
// * * * * * * * * * * * * * * * * * * * * * * * * * * * * * * * * * * * * * //

dimensions      [0 0 0 0 0 0 0];

internalField   nonuniform List<scalar> 
100
(
0.0211326
0.0266337
0.0295567
0.034733
0.0393002
0.0406455
0.042493
0.0450092
0.0484043
0.050234
0.052867
0.0541659
0.0561153
0.0577687
0.0593002
0.0599624
0.0609691
0.0619645
0.0626265
0.0631689
0.0634548
0.0635433
0.0641366
0.0645216
0.0653878
0.0658866
0.0667158
0.0676677
0.0683965
0.0690637
0.069378
0.0699324
0.0704759
0.0709754
0.0713562
0.0719382
0.0721808
0.0723551
0.0726736
0.0731286
0.0735555
0.0739398
0.0742105
0.074569
0.0751714
0.0753997
0.0758138
0.0761675
0.076293
0.0767245
0.0768914
0.0774331
0.0776247
0.0780812
0.0784439
0.0785888
0.0787772
0.0790026
0.0792979
0.0795397
0.0798699
0.0802892
0.0804398
0.0807339
0.08098
0.0812582
0.0815266
0.0814777
0.0818445
0.0821765
0.0822484
0.0825295
0.0827287
0.0830245
0.0831317
0.0833833
0.0835985
0.0838599
0.0842045
0.0843781
0.0846168
0.0848365
0.0851609
0.085385
0.0856451
0.0860549
0.0863826
0.0866658
0.0868858
0.0871196
0.0874277
0.0877206
0.0879968
0.0882498
0.0884896
0.0888315
0.0891085
0.0893907
0.0896816
0.0899963
)
;

boundaryField
{
    inlet
    {
        type            fixedValue;
        value           uniform 0;
    }
    outlet
    {
        type            zeroGradient;
    }
    yzfaces
    {
        type            empty;
    }
}


// ************************************************************************* //
