/*--------------------------------*- C++ -*----------------------------------*\
| =========                 |                                                 |
| \\      /  F ield         | foam-extend: Open Source CFD                    |
|  \\    /   O peration     | Version:     5.0                                |
|   \\  /    A nd           | Web:         http://www.foam-extend.org         |
|    \\/     M anipulation  |                                                 |
\*---------------------------------------------------------------------------*/
FoamFile
{
    version     2.0;
    format      ascii;
    class       volScalarField;
    location    "7";
    object      Na.water;
}
// * * * * * * * * * * * * * * * * * * * * * * * * * * * * * * * * * * * * * //

dimensions      [0 0 0 0 0 0 0];

internalField   nonuniform List<scalar> 
100
(
0.00735137
0.0104155
0.0124683
0.0135855
0.0146945
0.0159691
0.0166737
0.017243
0.0176625
0.0182287
0.0186047
0.0192297
0.0196517
0.0201308
0.0205424
0.0211504
0.0214995
0.0217981
0.0221765
0.0225545
0.0228814
0.0231972
0.0233539
0.0235827
0.0236458
0.0238719
0.0240877
0.0242695
0.0244596
0.0246835
0.0249336
0.0250837
0.0252271
0.0253725
0.025561
0.0257019
0.0259414
0.0261851
0.0263444
0.0264535
0.0265678
0.0266848
0.0268288
0.0269482
0.0270025
0.0271747
0.0272883
0.0274355
0.0276353
0.0276965
0.0278403
0.0278561
0.028032
0.0281072
0.0282408
0.0284229
0.0285809
0.0287161
0.0288206
0.0289307
0.0290313
0.0290746
0.029198
0.0292635
0.0293381
0.029424
0.02953
0.0297392
0.0297617
0.0298039
0.0299371
0.0299901
0.0300627
0.0301159
0.0302413
0.0302999
0.0303637
0.0303986
0.0304533
0.0305543
0.0306371
0.0307379
0.0307953
0.0308866
0.0309837
0.0310102
0.0311057
0.0312126
0.0313531
0.0314719
0.03157
0.0316679
0.03177
0.0318825
0.031996
0.0320698
0.0321755
0.0322865
0.0323979
0.0324993
)
;

boundaryField
{
    inlet
    {
        type            fixedValue;
        value           uniform 0;
    }
    outlet
    {
        type            zeroGradient;
    }
    yzfaces
    {
        type            empty;
    }
}


// ************************************************************************* //
