/*--------------------------------*- C++ -*----------------------------------*\
| =========                 |                                                 |
| \\      /  F ield         | foam-extend: Open Source CFD                    |
|  \\    /   O peration     | Version:     5.0                                |
|   \\  /    A nd           | Web:         http://www.foam-extend.org         |
|    \\/     M anipulation  |                                                 |
\*---------------------------------------------------------------------------*/
FoamFile
{
    version     2.0;
    format      ascii;
    class       surfaceScalarField;
    location    "7";
    object      phi;
}
// * * * * * * * * * * * * * * * * * * * * * * * * * * * * * * * * * * * * * //

dimensions      [0 3 -1 0 0 0 0];

internalField   nonuniform List<scalar> 
99
(
1.22481e-06
1.2334e-06
1.22441e-06
1.22715e-06
1.23375e-06
1.23496e-06
1.22726e-06
1.21698e-06
1.22141e-06
1.22191e-06
1.21218e-06
1.20971e-06
1.20912e-06
1.21255e-06
1.20731e-06
1.21528e-06
1.21075e-06
1.2186e-06
1.21588e-06
1.2133e-06
1.2182e-06
1.2173e-06
1.21559e-06
1.21542e-06
1.21385e-06
1.21457e-06
1.21743e-06
1.22092e-06
1.21623e-06
1.21946e-06
1.21481e-06
1.21365e-06
1.21196e-06
1.21461e-06
1.21116e-06
1.21695e-06
1.21387e-06
1.21477e-06
1.21443e-06
1.21001e-06
1.20787e-06
1.20764e-06
1.20559e-06
1.1992e-06
1.20091e-06
1.19763e-06
1.19982e-06
1.20257e-06
1.20463e-06
1.20202e-06
1.1979e-06
1.19585e-06
1.19486e-06
1.1948e-06
1.19645e-06
1.1971e-06
1.19231e-06
1.19148e-06
1.19096e-06
1.19285e-06
1.19374e-06
1.19219e-06
1.18915e-06
1.18945e-06
1.18502e-06
1.18476e-06
1.18415e-06
1.18246e-06
1.18401e-06
1.18563e-06
1.18331e-06
1.18239e-06
1.1778e-06
1.17457e-06
1.17448e-06
1.17599e-06
1.17527e-06
1.17441e-06
1.17796e-06
1.17465e-06
1.17181e-06
1.17134e-06
1.17148e-06
1.16719e-06
1.16818e-06
1.16689e-06
1.16835e-06
1.16711e-06
1.1694e-06
1.17087e-06
1.17143e-06
1.17177e-06
1.17044e-06
1.16908e-06
1.16939e-06
1.16911e-06
1.16849e-06
1.16805e-06
1.16675e-06
)
;

boundaryField
{
    inlet
    {
        type            calculated;
        value           uniform -1.225e-06;
    }
    outlet
    {
        type            calculated;
        value           uniform 1.16566e-06;
    }
    yzfaces
    {
        type            empty;
    }
}


// ************************************************************************* //
