/*--------------------------------*- C++ -*----------------------------------*\
| =========                 |                                                 |
| \\      /  F ield         | foam-extend: Open Source CFD                    |
|  \\    /   O peration     | Version:     5.0                                |
|   \\  /    A nd           | Web:         http://www.foam-extend.org         |
|    \\/     M anipulation  |                                                 |
\*---------------------------------------------------------------------------*/
FoamFile
{
    version     2.0;
    format      ascii;
    class       surfaceScalarField;
    location    "7";
    object      phi.water;
}
// * * * * * * * * * * * * * * * * * * * * * * * * * * * * * * * * * * * * * //

dimensions      [0 3 -1 0 0 0 0];

internalField   nonuniform List<scalar> 
99
(
8.24683e-08
1.38409e-07
1.73995e-07
2.23412e-07
2.82504e-07
3.19056e-07
3.46402e-07
3.81694e-07
4.36337e-07
4.7469e-07
5.21368e-07
5.58949e-07
6.06367e-07
6.56296e-07
7.00437e-07
7.44394e-07
7.79653e-07
8.22604e-07
8.5644e-07
8.88853e-07
9.17694e-07
9.37074e-07
9.59894e-07
9.81724e-07
1.01181e-06
1.03825e-06
1.0796e-06
1.12664e-06
1.15961e-06
1.20268e-06
1.22639e-06
1.2574e-06
1.28651e-06
1.32071e-06
1.34507e-06
1.38794e-06
1.41561e-06
1.44582e-06
1.47108e-06
1.49659e-06
1.52327e-06
1.55094e-06
1.57471e-06
1.59387e-06
1.63083e-06
1.65513e-06
1.68973e-06
1.72864e-06
1.75709e-06
1.78482e-06
1.80124e-06
1.83043e-06
1.85717e-06
1.89252e-06
1.93097e-06
1.96282e-06
1.98559e-06
2.01493e-06
2.04426e-06
2.07594e-06
2.10876e-06
2.13759e-06
2.15928e-06
2.18787e-06
2.20397e-06
2.23515e-06
2.26745e-06
2.28874e-06
2.32014e-06
2.35274e-06
2.37248e-06
2.39732e-06
2.41264e-06
2.43663e-06
2.46233e-06
2.49378e-06
2.51884e-06
2.54089e-06
2.58167e-06
2.60487e-06
2.63056e-06
2.66222e-06
2.69638e-06
2.71846e-06
2.75659e-06
2.78983e-06
2.83679e-06
2.87556e-06
2.92355e-06
2.96644e-06
3.01002e-06
3.05215e-06
3.09093e-06
3.13139e-06
3.17297e-06
3.21578e-06
3.2581e-06
3.30413e-06
3.34515e-06
)
;

boundaryField
{
    inlet
    {
        type            fixedValue;
        value           uniform 0;
    }
    outlet
    {
        type            calculated;
        value           uniform 3.39583e-06;
    }
    yzfaces
    {
        type            empty;
    }
}


// ************************************************************************* //
