/*--------------------------------*- C++ -*----------------------------------*\
| =========                 |                                                 |
| \\      /  F ield         | foam-extend: Open Source CFD                    |
|  \\    /   O peration     | Version:     5.0                                |
|   \\  /    A nd           | Web:         http://www.foam-extend.org         |
|    \\/     M anipulation  |                                                 |
\*---------------------------------------------------------------------------*/
FoamFile
{
    version     2.0;
    format      ascii;
    class       volVectorField;
    location    "7";
    object      U.gas;
}
// * * * * * * * * * * * * * * * * * * * * * * * * * * * * * * * * * * * * * //

dimensions      [0 1 -1 0 0 0 0];

internalField   nonuniform List<vector> 
100
(
(0.00611832 0 0)
(0.00660466 0 0)
(0.00691499 0 0)
(0.00725855 0 0)
(0.00764669 0 0)
(0.00788503 0 0)
(0.00805543 0 0)
(0.00822258 0 0)
(0.00847703 0 0)
(0.00868651 0 0)
(0.00889099 0 0)
(0.00902337 0 0)
(0.00922029 0 0)
(0.00942742 0 0)
(0.00960177 0 0)
(0.00975803 0 0)
(0.00990743 0 0)
(0.0100504 0 0)
(0.0101884 0 0)
(0.0102729 0 0)
(0.0103589 0 0)
(0.0104334 0 0)
(0.010501 0 0)
(0.0105655 0 0)
(0.0106486 0 0)
(0.0107249 0 0)
(0.0108604 0 0)
(0.0110066 0 0)
(0.0110956 0 0)
(0.0111905 0 0)
(0.0112487 0 0)
(0.0112991 0 0)
(0.0113589 0 0)
(0.011432 0 0)
(0.0114944 0 0)
(0.0115874 0 0)
(0.0116591 0 0)
(0.0117029 0 0)
(0.0117605 0 0)
(0.0118004 0 0)
(0.0118248 0 0)
(0.0118651 0 0)
(0.0118967 0 0)
(0.0119082 0 0)
(0.0119527 0 0)
(0.0119871 0 0)
(0.012039 0 0)
(0.0121176 0 0)
(0.0121763 0 0)
(0.012218 0 0)
(0.0122146 0 0)
(0.0122374 0 0)
(0.0122644 0 0)
(0.0123082 0 0)
(0.0123664 0 0)
(0.0124072 0 0)
(0.0124222 0 0)
(0.0124271 0 0)
(0.0124525 0 0)
(0.0124881 0 0)
(0.0125432 0 0)
(0.0125743 0 0)
(0.0125688 0 0)
(0.0125805 0 0)
(0.0125809 0 0)
(0.0125882 0 0)
(0.0126136 0 0)
(0.0126102 0 0)
(0.0126354 0 0)
(0.0126773 0 0)
(0.0126825 0 0)
(0.0126877 0 0)
(0.0126714 0 0)
(0.0126541 0 0)
(0.0126467 0 0)
(0.0126695 0 0)
(0.0126844 0 0)
(0.0126869 0 0)
(0.0127287 0 0)
(0.0127363 0 0)
(0.012717 0 0)
(0.0127131 0 0)
(0.0127245 0 0)
(0.0127068 0 0)
(0.0127011 0 0)
(0.0127103 0 0)
(0.0127257 0 0)
(0.0127274 0 0)
(0.0127345 0 0)
(0.0127536 0 0)
(0.0127659 0 0)
(0.0127656 0 0)
(0.012756 0 0)
(0.0127346 0 0)
(0.0127152 0 0)
(0.0127077 0 0)
(0.0126887 0 0)
(0.0126676 0 0)
(0.0126358 0 0)
(0.0126041 0 0)
)
;

boundaryField
{
    inlet
    {
        type            fixedValue;
        value           uniform (0.005 0 0);
    }
    outlet
    {
        type            zeroGradient;
    }
    yzfaces
    {
        type            empty;
    }
}


// ************************************************************************* //
