/*--------------------------------*- C++ -*----------------------------------*\
| =========                 |                                                 |
| \\      /  F ield         | foam-extend: Open Source CFD                    |
|  \\    /   O peration     | Version:     5.0                                |
|   \\  /    A nd           | Web:         http://www.foam-extend.org         |
|    \\/     M anipulation  |                                                 |
\*---------------------------------------------------------------------------*/
FoamFile
{
    version     2.0;
    format      ascii;
    class       volVectorField;
    location    "7";
    object      U.water;
}
// * * * * * * * * * * * * * * * * * * * * * * * * * * * * * * * * * * * * * //

dimensions      [0 1 -1 0 0 0 0];

internalField   nonuniform List<vector> 
100
(
(3.91102e-05 0 0)
(9.02064e-05 0 0)
(0.00012871 0 0)
(0.000162966 0 0)
(0.000205235 0 0)
(0.000245428 0 0)
(0.000272489 0 0)
(0.000298289 0 0)
(0.000333153 0 0)
(0.000372684 0 0)
(0.000406131 0 0)
(0.00044162 0 0)
(0.000475686 0 0)
(0.000515277 0 0)
(0.000553295 0 0)
(0.000589515 0 0)
(0.000621886 0 0)
(0.000653774 0 0)
(0.000685303 0 0)
(0.000712063 0 0)
(0.000737071 0 0)
(0.000757317 0 0)
(0.000774237 0 0)
(0.000792899 0 0)
(0.000813649 0 0)
(0.000837409 0 0)
(0.000864483 0 0)
(0.000900124 0 0)
(0.000933281 0 0)
(0.000963697 0 0)
(0.000991764 0 0)
(0.00101397 0 0)
(0.00103824 0 0)
(0.00106402 0 0)
(0.00108825 0 0)
(0.0011151 0 0)
(0.00114409 0 0)
(0.0011679 0 0)
(0.00119073 0 0)
(0.00121135 0 0)
(0.00123266 0 0)
(0.00125477 0 0)
(0.00127622 0 0)
(0.00129403 0 0)
(0.0013162 0 0)
(0.00134153 0 0)
(0.00136522 0 0)
(0.00139473 0 0)
(0.00142277 0 0)
(0.00144562 0 0)
(0.00146441 0 0)
(0.00148265 0 0)
(0.00150549 0 0)
(0.00153061 0 0)
(0.0015602 0 0)
(0.00158948 0 0)
(0.00161185 0 0)
(0.00163291 0 0)
(0.00165664 0 0)
(0.00168185 0 0)
(0.00170804 0 0)
(0.00173313 0 0)
(0.00175415 0 0)
(0.00177456 0 0)
(0.00179319 0 0)
(0.00181226 0 0)
(0.00183753 0 0)
(0.00185997 0 0)
(0.00188117 0 0)
(0.00190689 0 0)
(0.00192886 0 0)
(0.00194702 0 0)
(0.00196395 0 0)
(0.0019795 0 0)
(0.00199971 0 0)
(0.00202273 0 0)
(0.00204582 0 0)
(0.00206551 0 0)
(0.00209065 0 0)
(0.00211736 0 0)
(0.00213744 0 0)
(0.0021606 0 0)
(0.00218734 0 0)
(0.0022107 0 0)
(0.00223507 0 0)
(0.00226416 0 0)
(0.0022965 0 0)
(0.00233148 0 0)
(0.00236664 0 0)
(0.00240378 0 0)
(0.00243915 0 0)
(0.00247446 0 0)
(0.00250762 0 0)
(0.00253976 0 0)
(0.00257341 0 0)
(0.00260777 0 0)
(0.00264263 0 0)
(0.00267861 0 0)
(0.00271438 0 0)
(0.00274941 0 0)
)
;

boundaryField
{
    inlet
    {
        type            fixedValue;
        value           uniform (0 0 0);
    }
    outlet
    {
        type            zeroGradient;
    }
    yzfaces
    {
        type            empty;
    }
}


// ************************************************************************* //
