/*--------------------------------*- C++ -*----------------------------------*\
| =========                 |                                                 |
| \\      /  F ield         | foam-extend: Open Source CFD                    |
|  \\    /   O peration     | Version:     5.0                                |
|   \\  /    A nd           | Web:         http://www.foam-extend.org         |
|    \\/     M anipulation  |                                                 |
\*---------------------------------------------------------------------------*/
FoamFile
{
    version     2.0;
    format      ascii;
    class       volScalarField;
    location    "0.505452";
    object      alpha.gas;
}
// * * * * * * * * * * * * * * * * * * * * * * * * * * * * * * * * * * * * * //

dimensions      [0 0 0 0 0 0 0];

internalField   nonuniform List<scalar> 
100
(
0.0905339
0.0726783
0.0620897
0.0449032
0.0403844
0.0379294
0.0355293
0.03273
0.0296262
0.0263223
0.0229654
0.019734
0.0168172
0.0144225
0.0126558
0.0114925
0.0108002
0.0104196
0.0102131
0.0101064
0.0100525
0.0100259
0.0100116
0.0100052
0.0100037
0.0100013
0.0100002
0.0100001
0.0100015
0.0100018
0.01
0.0100003
0.01
0.0100013
0.0100002
0.0100016
0.00999982
0.00999961
0.00999819
0.00999943
0.0099995
0.00999785
0.00999646
0.00999761
0.00999864
0.00999922
0.00999955
0.00999987
0.0100006
0.00999874
0.00999958
0.00999841
0.00999945
0.00999903
0.010002
0.0100004
0.0100006
0.0100017
0.0100005
0.00999862
0.0100003
0.01
0.00999958
0.0100017
0.0100013
0.0100003
0.0100009
0.00999985
0.0100005
0.00999954
0.00999997
0.00999866
0.0099996
0.0100006
0.0100032
0.0100009
0.0100016
0.0100012
0.0100006
0.0100008
0.010002
0.0100037
0.0100043
0.0100013
0.0100004
0.0100012
0.0100007
0.00999901
0.00999749
0.00999686
0.00999728
0.00999798
0.00999818
0.00999857
0.00999701
0.00999945
0.00999881
0.0100003
0.0100006
0.0100013
)
;

boundaryField
{
    inlet
    {
        type            fixedValue;
        value           uniform 0.2;
    }
    outlet
    {
        type            zeroGradient;
    }
    yzfaces
    {
        type            empty;
    }
}


// ************************************************************************* //
