/*--------------------------------*- C++ -*----------------------------------*\
| =========                 |                                                 |
| \\      /  F ield         | foam-extend: Open Source CFD                    |
|  \\    /   O peration     | Version:     5.0                                |
|   \\  /    A nd           | Web:         http://www.foam-extend.org         |
|    \\/     M anipulation  |                                                 |
\*---------------------------------------------------------------------------*/
FoamFile
{
    version     2.0;
    format      ascii;
    class       volScalarField;
    location    "0.505452";
    object      Cl.water;
}
// * * * * * * * * * * * * * * * * * * * * * * * * * * * * * * * * * * * * * //

dimensions      [0 0 0 0 0 0 0];

internalField   nonuniform List<scalar> 
100
(
0
0.00966421
0.0144374
0.00253981
0.0138211
0.0181365
0.0195273
0.0201562
0.0205998
0.021029
0.0214252
0.0218191
0.0221633
0.0224614
0.0226623
0.0228349
0.0229183
0.0229638
0.0229761
0.0229972
0.0229879
0.0229882
0.0229875
0.0229826
0.0229892
0.0229978
0.0229745
0.0229942
0.0229828
0.0230052
0.0229935
0.0230107
0.0229878
0.0230109
0.0230077
0.0230106
0.0229998
0.0230025
0.0230039
0.0229755
0.0230034
0.0230024
0.0230069
0.022989
0.0229907
0.0229894
0.0229761
0.0230058
0.0230009
0.0230014
0.0230008
0.023015
0.0230149
0.0230021
0.0230011
0.0230107
0.0230065
0.0229917
0.0230097
0.0229914
0.0229937
0.0229778
0.0230119
0.0229799
0.0229887
0.0229997
0.0230081
0.0230147
0.0230171
0.0230109
0.0230179
0.0230131
0.0229866
0.0229909
0.0229902
0.0230148
0.0230137
0.0229996
0.0230104
0.0229967
0.0229832
0.0229993
0.0229881
0.0229951
0.0229987
0.0230058
0.022998
0.022988
0.0229852
0.0230007
0.0229952
0.0229913
0.0229697
0.0230115
0.0229929
0.0230187
0.0230093
0.02303
0.0230008
0.0230058
)
;

boundaryField
{
    inlet
    {
        type            fixedValue;
        value           uniform 0;
    }
    outlet
    {
        type            zeroGradient;
    }
    yzfaces
    {
        type            empty;
    }
}


// ************************************************************************* //
