/*--------------------------------*- C++ -*----------------------------------*\
| =========                 |                                                 |
| \\      /  F ield         | foam-extend: Open Source CFD                    |
|  \\    /   O peration     | Version:     5.0                                |
|   \\  /    A nd           | Web:         http://www.foam-extend.org         |
|    \\/     M anipulation  |                                                 |
\*---------------------------------------------------------------------------*/
FoamFile
{
    version     2.0;
    format      ascii;
    class       volScalarField;
    location    "0.505452";
    object      CO2.water;
}
// * * * * * * * * * * * * * * * * * * * * * * * * * * * * * * * * * * * * * //

dimensions      [0 0 0 0 0 0 0];

internalField   nonuniform List<scalar> 
100
(
0.00287284
0.00123541
0.000477947
0.00350623
0.00118281
0.000318458
7.93628e-05
1.97495e-05
5.12186e-06
1.40237e-06
4.01178e-07
1.197e-07
3.60486e-08
1.1557e-08
4.40729e-09
2.05609e-09
1.09363e-09
6.06835e-10
3.35735e-10
1.81388e-10
9.43598e-11
4.74273e-11
2.31406e-11
1.09125e-11
4.98447e-12
2.19404e-12
9.28717e-13
3.70651e-13
1.41967e-13
5.43257e-14
2.08062e-14
7.95903e-15
3.04737e-15
1.16382e-15
4.44854e-16
1.69604e-16
6.49831e-17
2.48091e-17
9.47023e-18
3.61699e-18
1.38153e-18
5.26653e-19
2.01164e-19
7.68272e-20
2.93662e-20
1.12098e-20
4.27946e-21
1.63551e-21
6.24175e-22
2.38519e-22
9.12883e-23
3.48533e-23
1.33207e-23
5.09234e-24
1.94752e-24
7.4503e-25
2.84571e-25
1.08944e-25
4.16555e-26
1.59583e-26
6.09783e-27
2.33269e-27
8.93279e-28
3.42472e-28
1.30978e-28
5.0107e-29
1.92407e-29
7.35748e-30
2.81705e-30
1.0793e-30
4.14053e-31
1.58563e-31
6.0598e-32
2.31794e-32
8.87881e-33
3.39143e-33
1.29955e-33
4.97969e-34
1.90815e-34
7.31403e-35
2.80213e-35
1.07269e-35
4.10695e-36
1.57274e-36
6.01238e-37
2.29937e-37
8.78967e-38
3.36653e-38
1.28706e-38
4.92088e-39
1.87774e-39
7.17947e-40
2.74338e-40
1.04948e-40
4.02257e-41
1.53713e-41
5.89995e-42
2.25164e-42
8.62514e-43
4.08544e-43
)
;

boundaryField
{
    inlet
    {
        type            fixedValue;
        value           uniform 0;
    }
    outlet
    {
        type            zeroGradient;
    }
    yzfaces
    {
        type            empty;
    }
}


// ************************************************************************* //
