/*--------------------------------*- C++ -*----------------------------------*\
| =========                 |                                                 |
| \\      /  F ield         | foam-extend: Open Source CFD                    |
|  \\    /   O peration     | Version:     5.0                                |
|   \\  /    A nd           | Web:         http://www.foam-extend.org         |
|    \\/     M anipulation  |                                                 |
\*---------------------------------------------------------------------------*/
FoamFile
{
    version     2.0;
    format      ascii;
    class       volScalarField;
    location    "0.505452";
    object      H2O.gas;
}
// * * * * * * * * * * * * * * * * * * * * * * * * * * * * * * * * * * * * * //

dimensions      [0 0 0 0 0 0 0];

internalField   nonuniform List<scalar> 
100
(
7.18188e-07
0.000179325
0.000675618
0.000574649
0.00208494
0.00421064
0.00660464
0.00904587
0.0112976
0.0130991
0.0141971
0.0145
0.0140554
0.0131597
0.0121444
0.0113234
0.0107465
0.0104044
0.0102114
0.0101116
0.0100534
0.010027
0.0100099
0.0100006
0.00999987
0.0100011
0.00998948
0.00999851
0.00999373
0.0100034
0.00999754
0.0100068
0.00999698
0.0100077
0.0100043
0.0100042
0.0099988
0.0100006
0.00999961
0.00998765
0.00999691
0.00999652
0.00999667
0.00999198
0.00999496
0.0099932
0.00998722
0.0099982
0.00999722
0.00999553
0.00999716
0.0100033
0.0100042
0.00999961
0.0100007
0.0100046
0.0100016
0.00999832
0.0100063
0.00999912
0.00999884
0.00999378
0.0100065
0.00999232
0.0099969
0.00999898
0.0100036
0.0100058
0.0100068
0.0100034
0.0100066
0.010006
0.00999556
0.00999776
0.0100005
0.010009
0.0100074
0.0100026
0.010005
0.00999914
0.00999283
0.00999995
0.00999533
0.00999822
0.00999715
0.0100004
0.00999784
0.00999312
0.00999098
0.00999868
0.00999755
0.00999754
0.00998769
0.010005
0.00999594
0.0100073
0.0100001
0.0100084
0.0100008
0.0100031
)
;

boundaryField
{
    inlet
    {
        type            fixedValue;
        value           uniform 0;
    }
    outlet
    {
        type            zeroGradient;
    }
    yzfaces
    {
        type            empty;
    }
}


// ************************************************************************* //
