/*--------------------------------*- C++ -*----------------------------------*\
| =========                 |                                                 |
| \\      /  F ield         | foam-extend: Open Source CFD                    |
|  \\    /   O peration     | Version:     5.0                                |
|   \\  /    A nd           | Web:         http://www.foam-extend.org         |
|    \\/     M anipulation  |                                                 |
\*---------------------------------------------------------------------------*/
FoamFile
{
    version     2.0;
    format      ascii;
    class       volScalarField;
    location    "0.505452";
    object      Na.water;
}
// * * * * * * * * * * * * * * * * * * * * * * * * * * * * * * * * * * * * * //

dimensions      [0 0 0 0 0 0 0];

internalField   nonuniform List<scalar> 
100
(
0
0.00966574
0.0144377
0.00254137
0.0138261
0.0181416
0.0195294
0.0201567
0.0205949
0.0210267
0.0214197
0.0218087
0.0221601
0.0224642
0.0226611
0.0228325
0.0229026
0.0229452
0.0229763
0.0229993
0.022997
0.022998
0.0229909
0.0229837
0.0229941
0.0230073
0.0229826
0.0229976
0.0229817
0.0230053
0.0229959
0.0230184
0.0229905
0.0230104
0.0230027
0.0230039
0.0229935
0.0229907
0.0229896
0.0229607
0.0229848
0.0229892
0.0229908
0.02298
0.0229851
0.0229812
0.0229705
0.0230005
0.0230029
0.0229998
0.0229912
0.0230099
0.0230126
0.0230033
0.0229986
0.0230059
0.0230016
0.0229944
0.0230123
0.0229965
0.0229901
0.0229767
0.0230097
0.0229753
0.0229828
0.0229917
0.022999
0.0230051
0.0230126
0.0230074
0.0230164
0.0230178
0.0229836
0.0229928
0.0229959
0.0230212
0.0230224
0.0230146
0.0230201
0.023013
0.0229909
0.0230003
0.0229812
0.0229884
0.0229944
0.0230052
0.0229969
0.0229854
0.0229794
0.0229912
0.0229954
0.0229951
0.0229769
0.0230175
0.0229997
0.0230274
0.0230088
0.0230258
0.0230093
0.0230185
)
;

boundaryField
{
    inlet
    {
        type            fixedValue;
        value           uniform 0;
    }
    outlet
    {
        type            zeroGradient;
    }
    yzfaces
    {
        type            empty;
    }
}


// ************************************************************************* //
