/*--------------------------------*- C++ -*----------------------------------*\
| =========                 |                                                 |
| \\      /  F ield         | foam-extend: Open Source CFD                    |
|  \\    /   O peration     | Version:     5.0                                |
|   \\  /    A nd           | Web:         http://www.foam-extend.org         |
|    \\/     M anipulation  |                                                 |
\*---------------------------------------------------------------------------*/
FoamFile
{
    version     2.0;
    format      ascii;
    class       surfaceScalarField;
    location    "0.505452";
    object      phi;
}
// * * * * * * * * * * * * * * * * * * * * * * * * * * * * * * * * * * * * * //

dimensions      [0 3 -1 0 0 0 0];

internalField   nonuniform List<scalar> 
99
(
1.22226e-06
1.21266e-06
1.21607e-06
1.21699e-06
1.21707e-06
1.21855e-06
1.21769e-06
1.21873e-06
1.21994e-06
1.21873e-06
1.21989e-06
1.21889e-06
1.22083e-06
1.22064e-06
1.21956e-06
1.22069e-06
1.21958e-06
1.22025e-06
1.22041e-06
1.21887e-06
1.21822e-06
1.21784e-06
1.22008e-06
1.21946e-06
1.22052e-06
1.21962e-06
1.22087e-06
1.22056e-06
1.22357e-06
1.22375e-06
1.22446e-06
1.22483e-06
1.22297e-06
1.22285e-06
1.22298e-06
1.22135e-06
1.22561e-06
1.22536e-06
1.22489e-06
1.22454e-06
1.22566e-06
1.22555e-06
1.22569e-06
1.22677e-06
1.22675e-06
1.22587e-06
1.22666e-06
1.22634e-06
1.22531e-06
1.22622e-06
1.22736e-06
1.22883e-06
1.22759e-06
1.22944e-06
1.22899e-06
1.22882e-06
1.22844e-06
1.22964e-06
1.22943e-06
1.22886e-06
1.22918e-06
1.2289e-06
1.23019e-06
1.23137e-06
1.23173e-06
1.23218e-06
1.23296e-06
1.23088e-06
1.23041e-06
1.23043e-06
1.22962e-06
1.22982e-06
1.22964e-06
1.23074e-06
1.23257e-06
1.23187e-06
1.23211e-06
1.22909e-06
1.2289e-06
1.22664e-06
1.22872e-06
1.22983e-06
1.23085e-06
1.23091e-06
1.23124e-06
1.2321e-06
1.23355e-06
1.23449e-06
1.23385e-06
1.23574e-06
1.23517e-06
1.2339e-06
1.23392e-06
1.23446e-06
1.2354e-06
1.23591e-06
1.23729e-06
1.23493e-06
1.23533e-06
)
;

boundaryField
{
    inlet
    {
        type            calculated;
        value           uniform -1.225e-06;
    }
    outlet
    {
        type            calculated;
        value           uniform 1.2359e-06;
    }
    yzfaces
    {
        type            empty;
    }
}


// ************************************************************************* //
