/*--------------------------------*- C++ -*----------------------------------*\
| =========                 |                                                 |
| \\      /  F ield         | foam-extend: Open Source CFD                    |
|  \\    /   O peration     | Version:     5.0                                |
|   \\  /    A nd           | Web:         http://www.foam-extend.org         |
|    \\/     M anipulation  |                                                 |
\*---------------------------------------------------------------------------*/
FoamFile
{
    version     2.0;
    format      ascii;
    class       volScalarField;
    location    "0.505452";
    object      S.gas;
}
// * * * * * * * * * * * * * * * * * * * * * * * * * * * * * * * * * * * * * //

dimensions      [0 0 0 0 0 0 0];

internalField   nonuniform List<scalar> 
100
(
0.452669
0.363392
0.310449
0.224516
0.201922
0.189647
0.177647
0.16365
0.148131
0.131612
0.114827
0.09867
0.084086
0.0721126
0.0632791
0.0574625
0.0540011
0.0520982
0.0510654
0.0505321
0.0502623
0.0501294
0.0500578
0.0500258
0.0500187
0.0500064
0.0500012
0.0500006
0.0500073
0.050009
0.0500001
0.0500017
0.0500001
0.0500065
0.0500008
0.0500078
0.0499991
0.049998
0.0499909
0.0499971
0.0499975
0.0499893
0.0499823
0.0499881
0.0499932
0.0499961
0.0499978
0.0499994
0.0500028
0.0499937
0.0499979
0.0499921
0.0499973
0.0499952
0.0500099
0.050002
0.0500032
0.0500084
0.0500025
0.0499931
0.0500013
0.0500002
0.0499979
0.0500085
0.0500063
0.0500016
0.0500043
0.0499992
0.0500025
0.0499977
0.0499998
0.0499933
0.049998
0.0500029
0.0500159
0.0500046
0.0500082
0.0500062
0.0500029
0.0500042
0.0500099
0.0500187
0.0500214
0.0500066
0.0500018
0.0500062
0.0500035
0.0499951
0.0499875
0.0499843
0.0499864
0.0499899
0.0499909
0.0499929
0.0499851
0.0499972
0.049994
0.0500016
0.0500028
0.0500066
)
;

boundaryField
{
    inlet
    {
        type            calculated;
        value           uniform 1;
    }
    outlet
    {
        type            calculated;
        value           uniform 0.0500066;
    }
    yzfaces
    {
        type            empty;
    }
}


// ************************************************************************* //
