/*--------------------------------*- C++ -*----------------------------------*\
| =========                 |                                                 |
| \\      /  F ield         | foam-extend: Open Source CFD                    |
|  \\    /   O peration     | Version:     5.0                                |
|   \\  /    A nd           | Web:         http://www.foam-extend.org         |
|    \\/     M anipulation  |                                                 |
\*---------------------------------------------------------------------------*/
FoamFile
{
    version     2.0;
    format      ascii;
    class       volVectorField;
    location    "0.505452";
    object      U.gas;
}
// * * * * * * * * * * * * * * * * * * * * * * * * * * * * * * * * * * * * * //

dimensions      [0 1 -1 0 0 0 0];

internalField   nonuniform List<vector> 
100
(
(0.0106107 0 0)
(0.0121365 0 0)
(0.0130308 0 0)
(0.0152257 0 0)
(0.0138473 0 0)
(0.0133752 0 0)
(0.0131788 0 0)
(0.0129658 0 0)
(0.0125979 0 0)
(0.0120108 0 0)
(0.011189 0 0)
(0.0101565 0 0)
(0.00898145 0 0)
(0.00778228 0 0)
(0.00670632 0 0)
(0.00588254 0 0)
(0.00533265 0 0)
(0.0050036 0 0)
(0.0048264 0 0)
(0.00472696 0 0)
(0.00467351 0 0)
(0.00464725 0 0)
(0.00463803 0 0)
(0.00463383 0 0)
(0.00463146 0 0)
(0.00463135 0 0)
(0.00463119 0 0)
(0.00463251 0 0)
(0.00463769 0 0)
(0.00464441 0 0)
(0.00464668 0 0)
(0.00464755 0 0)
(0.00464436 0 0)
(0.00464086 0 0)
(0.00464121 0 0)
(0.00463823 0 0)
(0.00464382 0 0)
(0.00464998 0 0)
(0.00464882 0 0)
(0.00464735 0 0)
(0.00464927 0 0)
(0.00465077 0 0)
(0.00465047 0 0)
(0.00465171 0 0)
(0.00465394 0 0)
(0.00465347 0 0)
(0.00465342 0 0)
(0.00465392 0 0)
(0.00465147 0 0)
(0.0046515 0 0)
(0.00465531 0 0)
(0.00466061 0 0)
(0.0046597 0 0)
(0.00466112 0 0)
(0.00466344 0 0)
(0.00466411 0 0)
(0.00466297 0 0)
(0.00466413 0 0)
(0.00466618 0 0)
(0.00466435 0 0)
(0.00466258 0 0)
(0.00466341 0 0)
(0.00466623 0 0)
(0.00467074 0 0)
(0.00467438 0 0)
(0.00467617 0 0)
(0.00467784 0 0)
(0.00467492 0 0)
(0.00466951 0 0)
(0.00466954 0 0)
(0.00466773 0 0)
(0.00466678 0 0)
(0.00466639 0 0)
(0.00466834 0 0)
(0.00467399 0 0)
(0.00467742 0 0)
(0.00467554 0 0)
(0.00467052 0 0)
(0.00466437 0 0)
(0.00465938 0 0)
(0.00465919 0 0)
(0.00466594 0 0)
(0.00467074 0 0)
(0.00467307 0 0)
(0.00467249 0 0)
(0.00467406 0 0)
(0.00467919 0 0)
(0.0046834 0 0)
(0.00468283 0 0)
(0.0046852 0 0)
(0.0046879 0 0)
(0.0046845 0 0)
(0.00468188 0 0)
(0.00468353 0 0)
(0.00468687 0 0)
(0.00468824 0 0)
(0.00469277 0 0)
(0.00468997 0 0)
(0.00468709 0 0)
(0.00469023 0 0)
)
;

boundaryField
{
    inlet
    {
        type            fixedValue;
        value           uniform (0.005 0 0);
    }
    outlet
    {
        type            zeroGradient;
    }
    yzfaces
    {
        type            empty;
    }
}


// ************************************************************************* //
