/*--------------------------------*- C++ -*----------------------------------*\
| =========                 |                                                 |
| \\      /  F ield         | foam-extend: Open Source CFD                    |
|  \\    /   O peration     | Version:     5.0                                |
|   \\  /    A nd           | Web:         http://www.foam-extend.org         |
|    \\/     M anipulation  |                                                 |
\*---------------------------------------------------------------------------*/
FoamFile
{
    version     2.0;
    format      ascii;
    class       volVectorField;
    location    "0.505452";
    object      U.water;
}
// * * * * * * * * * * * * * * * * * * * * * * * * * * * * * * * * * * * * * //

dimensions      [0 1 -1 0 0 0 0];

internalField   nonuniform List<vector> 
100
(
(0.000349482 0 0)
(0.000877948 0 0)
(0.00132146 0 0)
(0.00199491 0 0)
(0.00272077 0 0)
(0.00300375 0 0)
(0.00319905 0 0)
(0.00340818 0 0)
(0.00365165 0 0)
(0.00391083 0 0)
(0.00417092 0 0)
(0.0044101 0 0)
(0.00461158 0 0)
(0.00476501 0 0)
(0.00486338 0 0)
(0.00492508 0 0)
(0.00496002 0 0)
(0.00497791 0 0)
(0.00498926 0 0)
(0.0049915 0 0)
(0.00498955 0 0)
(0.00498867 0 0)
(0.00499313 0 0)
(0.00499682 0 0)
(0.00499789 0 0)
(0.00499824 0 0)
(0.00499898 0 0)
(0.00500093 0 0)
(0.00500648 0 0)
(0.00501298 0 0)
(0.00501476 0 0)
(0.00501703 0 0)
(0.005014 0 0)
(0.00500993 0 0)
(0.00500993 0 0)
(0.00500686 0 0)
(0.00501222 0 0)
(0.00502052 0 0)
(0.00501903 0 0)
(0.00501733 0 0)
(0.00501887 0 0)
(0.00502096 0 0)
(0.00502104 0 0)
(0.00502361 0 0)
(0.00502578 0 0)
(0.00502385 0 0)
(0.00502367 0 0)
(0.00502466 0 0)
(0.00502189 0 0)
(0.00502163 0 0)
(0.00502585 0 0)
(0.00503117 0 0)
(0.00503171 0 0)
(0.00503292 0 0)
(0.00503581 0 0)
(0.00503446 0 0)
(0.00503336 0 0)
(0.00503504 0 0)
(0.00503704 0 0)
(0.00503547 0 0)
(0.00503505 0 0)
(0.00503508 0 0)
(0.0050371 0 0)
(0.00504216 0 0)
(0.00504528 0 0)
(0.00504694 0 0)
(0.00504948 0 0)
(0.00504683 0 0)
(0.00504164 0 0)
(0.00504068 0 0)
(0.00503909 0 0)
(0.00503782 0 0)
(0.00503789 0 0)
(0.00503976 0 0)
(0.00504574 0 0)
(0.005048 0 0)
(0.00504711 0 0)
(0.00504141 0 0)
(0.00503485 0 0)
(0.00502984 0 0)
(0.00502947 0 0)
(0.00503596 0 0)
(0.00504029 0 0)
(0.00504249 0 0)
(0.00504335 0 0)
(0.00504582 0 0)
(0.0050505 0 0)
(0.00505542 0 0)
(0.00505609 0 0)
(0.00505865 0 0)
(0.00506134 0 0)
(0.00505756 0 0)
(0.00505503 0 0)
(0.00505614 0 0)
(0.00505914 0 0)
(0.0050622 0 0)
(0.00506603 0 0)
(0.00506407 0 0)
(0.00506 0 0)
(0.00506192 0 0)
)
;

boundaryField
{
    inlet
    {
        type            fixedValue;
        value           uniform (0 0 0);
    }
    outlet
    {
        type            zeroGradient;
    }
    yzfaces
    {
        type            empty;
    }
}


// ************************************************************************* //
