/*--------------------------------*- C++ -*----------------------------------*\
| =========                 |                                                 |
| \\      /  F ield         | foam-extend: Open Source CFD                    |
|  \\    /   O peration     | Version:     5.0                                |
|   \\  /    A nd           | Web:         http://www.foam-extend.org         |
|    \\/     M anipulation  |                                                 |
\*---------------------------------------------------------------------------*/
FoamFile
{
    version     2.0;
    format      ascii;
    class       volScalarField;
    location    "4";
    object      Na.water;
}
// * * * * * * * * * * * * * * * * * * * * * * * * * * * * * * * * * * * * * //

dimensions      [0 0 0 0 0 0 0];

internalField   nonuniform List<scalar> 
100
(
0.00554545
0.00731666
0.00835617
0.00925946
0.00998844
0.0105901
0.0111096
0.0115547
0.0119944
0.0123019
0.012613
0.0128859
0.0131117
0.0133319
0.0135408
0.0137563
0.013926
0.0141219
0.0143286
0.0144562
0.0146388
0.0147858
0.0149349
0.015068
0.015213
0.0153337
0.0154558
0.0155747
0.0156821
0.0157831
0.0159004
0.0160108
0.0161013
0.0162017
0.0162929
0.016387
0.0164786
0.0165683
0.0166559
0.0167411
0.0168297
0.016915
0.0170022
0.0170904
0.0171856
0.0172645
0.0173483
0.0174368
0.0175301
0.0176192
0.0177271
0.0178225
0.0179179
0.0180182
0.0181148
0.0181776
0.0182767
0.018391
0.0184858
0.0185948
0.0187035
0.0188337
0.0189568
0.0190805
0.01923
0.0193592
0.0195241
0.0197093
0.0198874
0.0200873
0.0203133
0.0205354
0.0207622
0.0209824
0.0212012
0.0213811
0.0215201
0.0216211
0.0216964
0.0217496
0.0217659
0.021786
0.0217997
0.0218074
0.0218261
0.0218096
0.0218026
0.0218096
0.0218141
0.021834
0.0218454
0.0218389
0.0218268
0.0218161
0.0218146
0.0218097
0.0218105
0.0218066
0.0217925
0.0218048
)
;

boundaryField
{
    inlet
    {
        type            fixedValue;
        value           uniform 0;
    }
    outlet
    {
        type            zeroGradient;
    }
    yzfaces
    {
        type            empty;
    }
}


// ************************************************************************* //
