/*--------------------------------*- C++ -*----------------------------------*\
| =========                 |                                                 |
| \\      /  F ield         | foam-extend: Open Source CFD                    |
|  \\    /   O peration     | Version:     5.0                                |
|   \\  /    A nd           | Web:         http://www.foam-extend.org         |
|    \\/     M anipulation  |                                                 |
\*---------------------------------------------------------------------------*/
FoamFile
{
    version     2.0;
    format      ascii;
    class       surfaceScalarField;
    location    "4";
    object      phi;
}
// * * * * * * * * * * * * * * * * * * * * * * * * * * * * * * * * * * * * * //

dimensions      [0 3 -1 0 0 0 0];

internalField   nonuniform List<scalar> 
99
(
1.22227e-06
1.23105e-06
1.22145e-06
1.21469e-06
1.20672e-06
1.20343e-06
1.1962e-06
1.19779e-06
1.19699e-06
1.19279e-06
1.18477e-06
1.20077e-06
1.19434e-06
1.19639e-06
1.19929e-06
1.20349e-06
1.19926e-06
1.19609e-06
1.20295e-06
1.19786e-06
1.20087e-06
1.20296e-06
1.20452e-06
1.2038e-06
1.20264e-06
1.20173e-06
1.2023e-06
1.20307e-06
1.20268e-06
1.20054e-06
1.2006e-06
1.20007e-06
1.19948e-06
1.2e-06
1.19815e-06
1.19861e-06
1.1961e-06
1.19635e-06
1.19491e-06
1.19177e-06
1.19513e-06
1.1966e-06
1.19724e-06
1.19891e-06
1.20238e-06
1.19925e-06
1.19641e-06
1.19083e-06
1.19077e-06
1.18645e-06
1.18802e-06
1.18782e-06
1.1884e-06
1.18977e-06
1.1914e-06
1.18842e-06
1.18712e-06
1.18788e-06
1.18809e-06
1.18752e-06
1.18788e-06
1.18836e-06
1.18962e-06
1.19019e-06
1.19249e-06
1.1913e-06
1.19064e-06
1.19276e-06
1.19348e-06
1.19275e-06
1.19316e-06
1.19316e-06
1.19296e-06
1.19301e-06
1.1934e-06
1.19577e-06
1.19475e-06
1.19434e-06
1.19391e-06
1.19493e-06
1.19489e-06
1.1953e-06
1.19596e-06
1.19527e-06
1.19706e-06
1.19657e-06
1.19736e-06
1.19858e-06
1.19798e-06
1.19591e-06
1.19704e-06
1.19477e-06
1.19478e-06
1.19524e-06
1.19547e-06
1.19561e-06
1.19546e-06
1.19604e-06
1.19461e-06
)
;

boundaryField
{
    inlet
    {
        type            calculated;
        value           uniform -1.225e-06;
    }
    outlet
    {
        type            calculated;
        value           uniform 1.19445e-06;
    }
    yzfaces
    {
        type            empty;
    }
}


// ************************************************************************* //
