/*--------------------------------*- C++ -*----------------------------------*\
| =========                 |                                                 |
| \\      /  F ield         | foam-extend: Open Source CFD                    |
|  \\    /   O peration     | Version:     5.0                                |
|   \\  /    A nd           | Web:         http://www.foam-extend.org         |
|    \\/     M anipulation  |                                                 |
\*---------------------------------------------------------------------------*/
FoamFile
{
    version     2.0;
    format      ascii;
    class       volScalarField;
    location    "2";
    object      alpha.gas;
}
// * * * * * * * * * * * * * * * * * * * * * * * * * * * * * * * * * * * * * //

dimensions      [0 0 0 0 0 0 0];

internalField   nonuniform List<scalar> 
100
(
0.134227
0.117498
0.106402
0.0984093
0.0921758
0.0875094
0.0831136
0.0794978
0.0763378
0.0732458
0.0706124
0.0681192
0.0659377
0.063906
0.0619024
0.0601227
0.0583887
0.0566244
0.0550437
0.0532884
0.0517397
0.0501371
0.0487646
0.0472772
0.0458382
0.0443281
0.0428406
0.0413142
0.0397506
0.0381539
0.0365061
0.0347834
0.0329935
0.0310979
0.0291057
0.0269891
0.0247702
0.0224587
0.0201299
0.0178526
0.0157744
0.0139998
0.0126175
0.0116239
0.0109716
0.0105645
0.010322
0.0101817
0.0101029
0.0100585
0.0100314
0.0100189
0.010012
0.0100078
0.010005
0.0100036
0.0100008
0.00999861
0.00999744
0.00999887
0.00999682
0.00999722
0.00999894
0.00999603
0.00999798
0.00999982
0.00999967
0.0100009
0.0100019
0.0100026
0.0100012
0.0100024
0.0100011
0.0100013
0.0100019
0.0100022
0.00999996
0.0100002
0.00999933
0.0100009
0.0100002
0.0100006
0.0100012
0.00999815
0.00999646
0.00999662
0.00999884
0.00999871
0.00999872
0.0100006
0.00999833
0.00999864
0.00999765
0.0099961
0.00999677
0.00999467
0.00999383
0.0099939
0.00999406
0.0099941
)
;

boundaryField
{
    inlet
    {
        type            fixedValue;
        value           uniform 0.2;
    }
    outlet
    {
        type            zeroGradient;
    }
    yzfaces
    {
        type            empty;
    }
}


// ************************************************************************* //
