/*--------------------------------*- C++ -*----------------------------------*\
| =========                 |                                                 |
| \\      /  F ield         | foam-extend: Open Source CFD                    |
|  \\    /   O peration     | Version:     5.0                                |
|   \\  /    A nd           | Web:         http://www.foam-extend.org         |
|    \\/     M anipulation  |                                                 |
\*---------------------------------------------------------------------------*/
FoamFile
{
    version     2.0;
    format      ascii;
    class       volScalarField;
    location    "2";
    object      alpha.gas;
}
// * * * * * * * * * * * * * * * * * * * * * * * * * * * * * * * * * * * * * //

dimensions      [0 0 0 0 0 0 0];

internalField   nonuniform List<scalar> 
100
(
0.134327
0.116997
0.106444
0.0981027
0.0923634
0.0873723
0.083394
0.0794101
0.0761012
0.0732501
0.0708079
0.0684904
0.0661342
0.0640711
0.0620002
0.060198
0.0583373
0.0566563
0.0550148
0.0534321
0.0517918
0.050296
0.0487872
0.0473191
0.045808
0.0443154
0.0428109
0.0412971
0.0397342
0.0381305
0.0364348
0.0346992
0.0329003
0.031017
0.0290004
0.0268747
0.024648
0.0223368
0.0199954
0.017725
0.0156565
0.0139111
0.0125514
0.0115839
0.010948
0.0105523
0.0103173
0.0101778
0.0100998
0.0100561
0.0100337
0.0100184
0.0100112
0.0100064
0.0100033
0.0100001
0.00999867
0.00999677
0.00999457
0.00999388
0.00999383
0.00999438
0.00999579
0.00999842
0.0100004
0.00999898
0.00999658
0.0099971
0.00999648
0.00999678
0.0099967
0.00999609
0.00999511
0.00999399
0.00999398
0.00999505
0.00999511
0.00999654
0.0099962
0.00999633
0.00999877
0.0100021
0.01
0.00999814
0.00999872
0.00999834
0.00999941
0.00999982
0.0099987
0.0100012
0.0100011
0.00999984
0.00999978
0.00999831
0.00999822
0.00999743
0.00999697
0.00999521
0.0099983
0.00999937
)
;

boundaryField
{
    inlet
    {
        type            fixedValue;
        value           uniform 0.2;
    }
    outlet
    {
        type            zeroGradient;
    }
    yzfaces
    {
        type            empty;
    }
}


// ************************************************************************* //
