/*--------------------------------*- C++ -*----------------------------------*\
| =========                 |                                                 |
| \\      /  F ield         | foam-extend: Open Source CFD                    |
|  \\    /   O peration     | Version:     5.0                                |
|   \\  /    A nd           | Web:         http://www.foam-extend.org         |
|    \\/     M anipulation  |                                                 |
\*---------------------------------------------------------------------------*/
FoamFile
{
    version     2.0;
    format      ascii;
    class       volScalarField;
    location    "2";
    object      alpha.gas;
}
// * * * * * * * * * * * * * * * * * * * * * * * * * * * * * * * * * * * * * //

dimensions      [0 0 0 0 0 0 0];

internalField   nonuniform List<scalar> 
100
(
0.134404
0.117562
0.106224
0.0987501
0.0921731
0.0873385
0.0831826
0.0795706
0.0761344
0.0732667
0.0707599
0.0682328
0.06594
0.0637657
0.0619137
0.0599161
0.0582177
0.0566154
0.0549298
0.0533949
0.0518709
0.0504031
0.0489657
0.0474246
0.0459445
0.0444477
0.0429306
0.0414123
0.0398335
0.038214
0.0365091
0.0347855
0.0329735
0.0310709
0.0290509
0.0269359
0.0246947
0.022377
0.0200276
0.0177522
0.0156726
0.0139176
0.0125528
0.0115851
0.0109463
0.0105477
0.0103092
0.0101733
0.0100974
0.0100526
0.010028
0.0100146
0.0100092
0.0100039
0.0100017
0.0100019
0.00999978
0.00999977
0.00999997
0.00999627
0.00999704
0.00999747
0.00999724
0.009996
0.00999604
0.00999725
0.00999726
0.00999706
0.00999648
0.00999729
0.00999883
0.00999997
0.00999823
0.00999801
0.00999838
0.0100005
0.00999921
0.0100015
0.0100028
0.0100022
0.0100027
0.0100042
0.0100032
0.0100017
0.0100015
0.0100013
0.0100003
0.0100016
0.0100008
0.0100004
0.0100022
0.0100026
0.0100011
0.00999841
0.0100021
0.00999955
0.00999915
0.00999894
0.00999861
0.0099953
)
;

boundaryField
{
    inlet
    {
        type            fixedValue;
        value           uniform 0.2;
    }
    outlet
    {
        type            zeroGradient;
    }
    yzfaces
    {
        type            empty;
    }
}


// ************************************************************************* //
