/*--------------------------------*- C++ -*----------------------------------*\
| =========                 |                                                 |
| \\      /  F ield         | foam-extend: Open Source CFD                    |
|  \\    /   O peration     | Version:     5.0                                |
|   \\  /    A nd           | Web:         http://www.foam-extend.org         |
|    \\/     M anipulation  |                                                 |
\*---------------------------------------------------------------------------*/
FoamFile
{
    version     2.0;
    format      ascii;
    class       volScalarField;
    location    "2";
    object      Cl.water;
}
// * * * * * * * * * * * * * * * * * * * * * * * * * * * * * * * * * * * * * //

dimensions      [0 0 0 0 0 0 0];

internalField   nonuniform List<scalar> 
100
(
0.00754463
0.00952733
0.0107514
0.0116877
0.0123599
0.0129326
0.0134001
0.0138416
0.0142268
0.0145493
0.0148422
0.0151084
0.0153686
0.0156125
0.0158448
0.016059
0.0162667
0.0164671
0.016654
0.0168377
0.0170211
0.0171972
0.0173651
0.0175367
0.0177047
0.0178736
0.0180372
0.018171
0.0181374
0.0195226
0.0197552
0.0199981
0.0202167
0.0204457
0.0206948
0.020974
0.0212399
0.0215159
0.021768
0.0220517
0.0222888
0.0224881
0.022664
0.0227954
0.0228831
0.0229494
0.0229855
0.0230105
0.0230034
0.0230036
0.0229981
0.0229929
0.0230143
0.0229965
0.0230114
0.0229851
0.022991
0.022981
0.0229925
0.0230227
0.0230002
0.0230128
0.0230114
0.0230089
0.0230119
0.0230185
0.0230275
0.0230055
0.0230007
0.0230045
0.0230029
0.0229946
0.0229951
0.023003
0.0229966
0.022994
0.0230039
0.0230133
0.023012
0.0230039
0.0229785
0.0229918
0.0229996
0.0230257
0.0230158
0.0230143
0.0230111
0.0229899
0.022998
0.0229941
0.022994
0.0230023
0.0229965
0.0229817
0.0229989
0.0229869
0.022993
0.0229882
0.0230018
0.0229766
)
;

boundaryField
{
    inlet
    {
        type            fixedValue;
        value           uniform 0;
    }
    outlet
    {
        type            zeroGradient;
    }
    yzfaces
    {
        type            empty;
    }
}


// ************************************************************************* //
