/*--------------------------------*- C++ -*----------------------------------*\
| =========                 |                                                 |
| \\      /  F ield         | foam-extend: Open Source CFD                    |
|  \\    /   O peration     | Version:     5.0                                |
|   \\  /    A nd           | Web:         http://www.foam-extend.org         |
|    \\/     M anipulation  |                                                 |
\*---------------------------------------------------------------------------*/
FoamFile
{
    version     2.0;
    format      ascii;
    class       volScalarField;
    location    "2";
    object      Cl.water;
}
// * * * * * * * * * * * * * * * * * * * * * * * * * * * * * * * * * * * * * //

dimensions      [0 0 0 0 0 0 0];

internalField   nonuniform List<scalar> 
100
(
0.00753211
0.00948485
0.0107639
0.0116282
0.0123774
0.0129457
0.0134144
0.0138313
0.0142098
0.0145512
0.0148442
0.0151338
0.0153922
0.0156407
0.0158663
0.0160802
0.0162814
0.0164703
0.0166507
0.0168314
0.0170086
0.0171821
0.0173468
0.0175136
0.0176904
0.017861
0.0180295
0.018159
0.018124
0.0195373
0.0197805
0.0199829
0.0202083
0.0204435
0.0206939
0.0209502
0.0212108
0.0215116
0.0217776
0.0220769
0.022319
0.0225273
0.0226954
0.0228285
0.0228995
0.0229405
0.0229503
0.0229656
0.0229977
0.0229884
0.0229962
0.0230179
0.0230315
0.0230232
0.0230188
0.0230237
0.0230299
0.0230115
0.0230215
0.0230334
0.023024
0.0230339
0.0230158
0.0230221
0.0230178
0.023013
0.023027
0.0230171
0.023013
0.0230267
0.0230268
0.0230123
0.0230034
0.0229811
0.0229632
0.0229736
0.0229809
0.0229927
0.0229927
0.0230009
0.023013
0.0230024
0.0230175
0.0230335
0.023014
0.0230088
0.0230312
0.0230239
0.0230131
0.0230029
0.0230195
0.0230119
0.0229896
0.0230029
0.0229809
0.0229883
0.0229951
0.0230018
0.0229819
0.0230163
)
;

boundaryField
{
    inlet
    {
        type            fixedValue;
        value           uniform 0;
    }
    outlet
    {
        type            zeroGradient;
    }
    yzfaces
    {
        type            empty;
    }
}


// ************************************************************************* //
