/*--------------------------------*- C++ -*----------------------------------*\
| =========                 |                                                 |
| \\      /  F ield         | foam-extend: Open Source CFD                    |
|  \\    /   O peration     | Version:     5.0                                |
|   \\  /    A nd           | Web:         http://www.foam-extend.org         |
|    \\/     M anipulation  |                                                 |
\*---------------------------------------------------------------------------*/
FoamFile
{
    version     2.0;
    format      ascii;
    class       volScalarField;
    location    "2";
    object      Cl.water;
}
// * * * * * * * * * * * * * * * * * * * * * * * * * * * * * * * * * * * * * //

dimensions      [0 0 0 0 0 0 0];

internalField   nonuniform List<scalar> 
100
(
0.00754878
0.00948215
0.0107416
0.011658
0.0123584
0.0129186
0.013417
0.0138395
0.0142091
0.0145595
0.0148587
0.0151391
0.0153914
0.0156296
0.015859
0.0160708
0.0162706
0.0164708
0.0166593
0.0168453
0.0170281
0.0172065
0.0173826
0.0175411
0.0177122
0.0178797
0.0180489
0.0182185
0.0183953
0.0185798
0.018758
0.0189519
0.0191156
0.0190978
0.0206317
0.0209449
0.0212254
0.0215045
0.0217978
0.0220493
0.0223047
0.0225222
0.0226823
0.0227782
0.0228424
0.0228894
0.0229356
0.0229755
0.0229762
0.0229755
0.0229778
0.0229729
0.0229887
0.0229986
0.0229942
0.0229984
0.0230047
0.0230092
0.0230076
0.0230166
0.0230224
0.0230092
0.0229918
0.0230122
0.0229825
0.022991
0.0229998
0.0230035
0.0229956
0.0229966
0.0230046
0.0230076
0.0230164
0.0230135
0.0230058
0.0229938
0.0229895
0.022985
0.0229968
0.0229811
0.0229951
0.022993
0.0230081
0.0230294
0.0230432
0.0230283
0.0229984
0.0230315
0.0230195
0.0229999
0.0230136
0.0230045
0.0230145
0.0229741
0.0229799
0.0229862
0.0229804
0.0229872
0.0230043
0.0230036
)
;

boundaryField
{
    inlet
    {
        type            fixedValue;
        value           uniform 0;
    }
    outlet
    {
        type            zeroGradient;
    }
    yzfaces
    {
        type            empty;
    }
}


// ************************************************************************* //
