/*--------------------------------*- C++ -*----------------------------------*\
| =========                 |                                                 |
| \\      /  F ield         | foam-extend: Open Source CFD                    |
|  \\    /   O peration     | Version:     5.0                                |
|   \\  /    A nd           | Web:         http://www.foam-extend.org         |
|    \\/     M anipulation  |                                                 |
\*---------------------------------------------------------------------------*/
FoamFile
{
    version     2.0;
    format      ascii;
    class       volScalarField;
    location    "2";
    object      CO2.water;
}
// * * * * * * * * * * * * * * * * * * * * * * * * * * * * * * * * * * * * * //

dimensions      [0 0 0 0 0 0 0];

internalField   nonuniform List<scalar> 
100
(
0.0017275
0.00216687
0.00245831
0.00266823
0.00283195
0.00295451
0.00306997
0.00316494
0.00324793
0.00332914
0.00339831
0.00346379
0.00352109
0.00357445
0.00362707
0.00367381
0.00371936
0.00376569
0.00380721
0.00385331
0.00389399
0.00393608
0.00397213
0.0040112
0.00404899
0.00408865
0.00412772
0.00416781
0.00420888
0.00425081
0.00429409
0.00433934
0.00438635
0.00443614
0.000254699
6.43434e-05
1.68747e-05
4.60097e-06
1.30256e-06
3.78615e-07
1.1165e-07
3.25641e-08
9.09909e-09
2.1557e-09
3.32302e-10
0
0
0
0
0
0
0
0
0
0
0
2.72378e-15
2.30173e-15
1.44334e-15
8.02083e-16
4.17104e-16
2.08341e-16
1.01339e-16
4.80217e-17
2.25095e-17
1.03999e-17
4.76324e-18
2.15685e-18
9.73698e-19
4.78458e-19
2.96079e-19
2.06673e-19
1.43196e-19
9.45986e-20
5.85821e-20
3.39371e-20
1.86893e-20
9.86154e-21
5.00326e-21
2.45243e-21
1.16065e-21
5.29019e-22
2.29771e-22
9.52163e-23
3.94255e-23
1.63192e-23
6.76491e-24
2.79694e-24
1.1594e-24
4.80651e-25
1.98884e-25
8.24427e-26
3.41492e-26
1.41685e-26
5.86762e-27
2.4261e-27
1.00634e-27
4.1701e-28
1.72758e-28
9.04437e-29
)
;

boundaryField
{
    inlet
    {
        type            fixedValue;
        value           uniform 0;
    }
    outlet
    {
        type            zeroGradient;
    }
    yzfaces
    {
        type            empty;
    }
}


// ************************************************************************* //
