/*--------------------------------*- C++ -*----------------------------------*\
| =========                 |                                                 |
| \\      /  F ield         | foam-extend: Open Source CFD                    |
|  \\    /   O peration     | Version:     5.0                                |
|   \\  /    A nd           | Web:         http://www.foam-extend.org         |
|    \\/     M anipulation  |                                                 |
\*---------------------------------------------------------------------------*/
FoamFile
{
    version     2.0;
    format      ascii;
    class       volScalarField;
    location    "2";
    object      CO2.water;
}
// * * * * * * * * * * * * * * * * * * * * * * * * * * * * * * * * * * * * * //

dimensions      [0 0 0 0 0 0 0];

internalField   nonuniform List<scalar> 
100
(
0.00172285
0.00216521
0.00246298
0.00265928
0.00283202
0.002959
0.00306816
0.00316302
0.00325327
0.00332859
0.00339443
0.00346081
0.00352102
0.00357813
0.00362677
0.00367924
0.00372385
0.00376593
0.0038102
0.00385052
0.00389054
0.00392909
0.00396685
0.00400732
0.0040462
0.00408551
0.00412536
0.00416523
0.0042067
0.00018328
4.09816e-05
9.54067e-06
2.29517e-06
5.64854e-07
1.40376e-07
3.43689e-08
7.70653e-09
1.3596e-09
0
0
0
0
0
0
0
0
0
0
0
0
0
0
0
0
0
0
0
0
0
1.14827e-17
2.79529e-17
2.56149e-17
1.80354e-17
1.18774e-17
7.32671e-18
4.37751e-18
2.55407e-18
1.46331e-18
8.27576e-19
4.65613e-19
2.58132e-19
1.42376e-19
7.81342e-20
4.2613e-20
2.31662e-20
1.25934e-20
6.82965e-21
3.70066e-21
2.0008e-21
1.08334e-21
5.84557e-22
3.16275e-22
1.70779e-22
9.19395e-23
4.96127e-23
2.66523e-23
1.42869e-23
7.63817e-24
4.07886e-24
2.17007e-24
1.15147e-24
6.08598e-25
3.21891e-25
1.69346e-25
8.91534e-26
4.6562e-26
2.4278e-26
1.26002e-26
6.52436e-27
4.13465e-27
)
;

boundaryField
{
    inlet
    {
        type            fixedValue;
        value           uniform 0;
    }
    outlet
    {
        type            zeroGradient;
    }
    yzfaces
    {
        type            empty;
    }
}


// ************************************************************************* //
