/*--------------------------------*- C++ -*----------------------------------*\
| =========                 |                                                 |
| \\      /  F ield         | foam-extend: Open Source CFD                    |
|  \\    /   O peration     | Version:     5.0                                |
|   \\  /    A nd           | Web:         http://www.foam-extend.org         |
|    \\/     M anipulation  |                                                 |
\*---------------------------------------------------------------------------*/
FoamFile
{
    version     2.0;
    format      ascii;
    class       volScalarField;
    location    "2";
    object      H2O.gas;
}
// * * * * * * * * * * * * * * * * * * * * * * * * * * * * * * * * * * * * * //

dimensions      [0 0 0 0 0 0 0];

internalField   nonuniform List<scalar> 
100
(
0.000261748
0.000228948
0.000206868
0.000192313
0.000179505
0.000170089
0.000161996
0.000154961
0.000148269
0.000142685
0.000137803
0.000132881
0.000128416
0.000124182
0.000120575
0.000116685
0.000113377
0.000110257
0.000106974
0.000103985
0.000101017
9.81585e-05
9.53592e-05
9.23581e-05
8.94756e-05
8.65605e-05
8.36061e-05
8.06492e-05
7.75746e-05
0.00735292
0.0105055
0.0132522
0.0155628
0.0173635
0.0186046
0.0192712
0.0193314
0.0188594
0.0178627
0.0165496
0.0150599
0.0136384
0.0124402
0.0115492
0.0109345
0.0105439
0.010303
0.0101696
0.0101038
0.0100548
0.0100288
0.0100235
0.010025
0.0100161
0.0100106
0.0100135
0.0100141
0.0100054
0.010007
0.0100123
0.0100065
0.0100095
0.0100004
0.0100028
0.0100037
0.0100032
0.0100072
0.0100036
0.0100027
0.0100069
0.0100083
0.0100048
0.00999979
0.00998853
0.00998254
0.00998628
0.0099916
0.00999665
0.0099959
0.00999875
0.0100065
0.0100057
0.0100113
0.0100176
0.0100076
0.0100048
0.0100122
0.0100084
0.0100054
0.010001
0.0100075
0.0100021
0.0099935
0.00999686
0.00999081
0.00999106
0.00999328
0.00999804
0.00999047
0.00999706
)
;

boundaryField
{
    inlet
    {
        type            fixedValue;
        value           uniform 0;
    }
    outlet
    {
        type            zeroGradient;
    }
    yzfaces
    {
        type            empty;
    }
}


// ************************************************************************* //
