/*--------------------------------*- C++ -*----------------------------------*\
| =========                 |                                                 |
| \\      /  F ield         | foam-extend: Open Source CFD                    |
|  \\    /   O peration     | Version:     5.0                                |
|   \\  /    A nd           | Web:         http://www.foam-extend.org         |
|    \\/     M anipulation  |                                                 |
\*---------------------------------------------------------------------------*/
FoamFile
{
    version     2.0;
    format      ascii;
    class       volScalarField;
    location    "2";
    object      H2O.gas;
}
// * * * * * * * * * * * * * * * * * * * * * * * * * * * * * * * * * * * * * //

dimensions      [0 0 0 0 0 0 0];

internalField   nonuniform List<scalar> 
100
(
0.000261403
0.000228824
0.000207215
0.000191649
0.00017951
0.000170422
0.000161861
0.00015482
0.000148666
0.000142644
0.000137516
0.00013266
0.000128412
0.000124455
0.000120553
0.000117087
0.00011371
0.000110274
0.000107196
0.000103778
0.000100762
9.76405e-05
9.49677e-05
9.20709e-05
8.92686e-05
8.63278e-05
8.34309e-05
8.04582e-05
7.74131e-05
7.43037e-05
7.10945e-05
6.77397e-05
6.4254e-05
6.05622e-05
0.0108083
0.0139742
0.0158854
0.0167023
0.0166549
0.0159025
0.0147836
0.0135484
0.0124332
0.0115454
0.0109316
0.0105386
0.0103059
0.0101751
0.0100935
0.0100471
0.0100238
0.0100107
0.0100114
0.0100114
0.0100086
0.010007
0.0100078
0.0100057
0.0100031
0.0100084
0.0100077
0.0100015
0.00999381
0.00999833
0.00998531
0.00999082
0.00999485
0.00999761
0.00999828
0.00999985
0.0100002
0.010004
0.0100094
0.0100079
0.0100053
0.0100004
0.00999758
0.00999612
0.00999757
0.00999116
0.0099964
0.00999569
0.0100027
0.010011
0.0100151
0.0100093
0.00999947
0.0100123
0.0100066
0.0100015
0.0100068
0.0100045
0.0100046
0.00999035
0.0099936
0.0099957
0.00999297
0.0099945
0.0100008
0.00999585
)
;

boundaryField
{
    inlet
    {
        type            fixedValue;
        value           uniform 0;
    }
    outlet
    {
        type            zeroGradient;
    }
    yzfaces
    {
        type            empty;
    }
}


// ************************************************************************* //
