/*--------------------------------*- C++ -*----------------------------------*\
| =========                 |                                                 |
| \\      /  F ield         | foam-extend: Open Source CFD                    |
|  \\    /   O peration     | Version:     5.0                                |
|   \\  /    A nd           | Web:         http://www.foam-extend.org         |
|    \\/     M anipulation  |                                                 |
\*---------------------------------------------------------------------------*/
FoamFile
{
    version     2.0;
    format      ascii;
    class       volScalarField;
    location    "2";
    object      H2O.gas;
}
// * * * * * * * * * * * * * * * * * * * * * * * * * * * * * * * * * * * * * //

dimensions      [0 0 0 0 0 0 0];

internalField   nonuniform List<scalar> 
100
(
0.000261597
0.000227849
0.000207297
0.000191052
0.000179875
0.000170155
0.000162407
0.000154649
0.000148205
0.000142652
0.000137896
0.000133383
0.000128794
0.000124777
0.000120744
0.000117234
0.00011361
0.000110336
0.00010714
0.000104057
0.000100863
9.795e-05
9.50116e-05
9.21526e-05
8.92098e-05
8.63029e-05
8.33729e-05
8.04249e-05
7.73812e-05
0.0073705
0.0105014
0.013247
0.015539
0.01733
0.0185767
0.0192596
0.0193319
0.0188326
0.0178264
0.0165119
0.0150248
0.0136098
0.0124206
0.0115317
0.0109308
0.0105509
0.0103189
0.0101849
0.0101005
0.0100568
0.0100322
0.0100142
0.0100173
0.0100039
0.010009
0.00999443
0.00999489
0.00998894
0.00999234
0.0100019
0.00999483
0.0100024
0.0100043
0.0100035
0.0100069
0.0100072
0.0100122
0.0100037
0.0100006
0.0100007
0.009999
0.00999524
0.00999698
0.00999708
0.00999262
0.0099938
0.00999662
0.0100017
0.0100019
0.00999925
0.00998893
0.00999642
0.00999551
0.0100023
0.0100007
0.0099998
0.0100011
0.00999252
0.00999638
0.00999872
0.00999806
0.00999988
0.0100007
0.00999314
0.00999949
0.00999156
0.00999448
0.00999012
0.00999691
0.00998698
)
;

boundaryField
{
    inlet
    {
        type            fixedValue;
        value           uniform 0;
    }
    outlet
    {
        type            zeroGradient;
    }
    yzfaces
    {
        type            empty;
    }
}


// ************************************************************************* //
