/*--------------------------------*- C++ -*----------------------------------*\
| =========                 |                                                 |
| \\      /  F ield         | foam-extend: Open Source CFD                    |
|  \\    /   O peration     | Version:     5.0                                |
|   \\  /    A nd           | Web:         http://www.foam-extend.org         |
|    \\/     M anipulation  |                                                 |
\*---------------------------------------------------------------------------*/
FoamFile
{
    version     2.0;
    format      ascii;
    class       volScalarField;
    location    "2";
    object      Na.water;
}
// * * * * * * * * * * * * * * * * * * * * * * * * * * * * * * * * * * * * * //

dimensions      [0 0 0 0 0 0 0];

internalField   nonuniform List<scalar> 
100
(
0.00754785
0.00947846
0.0107455
0.0116612
0.012365
0.0129262
0.0134207
0.0138361
0.0142017
0.0145492
0.0148551
0.0151404
0.0153946
0.0156276
0.0158521
0.016063
0.0162622
0.0164551
0.0166482
0.0168352
0.0170184
0.0171927
0.0173615
0.0175292
0.0177027
0.0178687
0.0180477
0.0182242
0.0184059
0.0185874
0.018765
0.0189537
0.0191146
0.0190889
0.0206181
0.0209299
0.0212146
0.0214889
0.0217858
0.0220394
0.0222836
0.0224987
0.022671
0.0227662
0.0228382
0.0228779
0.0229189
0.0229555
0.022959
0.0229641
0.0229778
0.0229797
0.0229992
0.0230079
0.023004
0.0230032
0.0230081
0.0230066
0.0230056
0.0230147
0.0230174
0.0230127
0.0229933
0.023018
0.022988
0.0230041
0.0230122
0.0230084
0.0230025
0.0229986
0.022997
0.0230034
0.0230134
0.0230041
0.0229997
0.0229881
0.0229921
0.0229888
0.0229926
0.0229771
0.02299
0.0229874
0.0229983
0.0230277
0.0230437
0.0230315
0.0230119
0.0230386
0.0230205
0.0230037
0.0230241
0.0230181
0.0230214
0.0229859
0.0229843
0.0229832
0.022978
0.0229878
0.0230052
0.023001
)
;

boundaryField
{
    inlet
    {
        type            fixedValue;
        value           uniform 0;
    }
    outlet
    {
        type            zeroGradient;
    }
    yzfaces
    {
        type            empty;
    }
}


// ************************************************************************* //
