/*--------------------------------*- C++ -*----------------------------------*\
| =========                 |                                                 |
| \\      /  F ield         | foam-extend: Open Source CFD                    |
|  \\    /   O peration     | Version:     5.0                                |
|   \\  /    A nd           | Web:         http://www.foam-extend.org         |
|    \\/     M anipulation  |                                                 |
\*---------------------------------------------------------------------------*/
FoamFile
{
    version     2.0;
    format      ascii;
    class       volScalarField;
    location    "2";
    object      Na.water;
}
// * * * * * * * * * * * * * * * * * * * * * * * * * * * * * * * * * * * * * //

dimensions      [0 0 0 0 0 0 0];

internalField   nonuniform List<scalar> 
100
(
0.00754242
0.00952663
0.0107533
0.011691
0.0123599
0.012924
0.0134012
0.01384
0.014227
0.0145491
0.0148354
0.0151016
0.0153665
0.0156127
0.0158421
0.0160561
0.0162658
0.0164608
0.0166501
0.016835
0.0170155
0.0171881
0.0173621
0.0175364
0.0177062
0.0178741
0.0180438
0.0181692
0.0181264
0.0195195
0.0197554
0.0199951
0.0202109
0.0204379
0.0206846
0.020963
0.0212303
0.0215006
0.0217554
0.0220379
0.0222753
0.0224881
0.022657
0.0227879
0.0228765
0.022938
0.0229647
0.0229899
0.0229822
0.0229857
0.0229943
0.0229875
0.0230139
0.022992
0.0230094
0.0229842
0.0229785
0.0229678
0.0229813
0.0230133
0.0229981
0.0230208
0.0230319
0.0230309
0.0230314
0.0230309
0.0230412
0.0230109
0.0229981
0.0230057
0.0230071
0.0229946
0.0229998
0.0230061
0.0230045
0.0230084
0.0230167
0.0230256
0.0230134
0.0230065
0.0229724
0.0229876
0.0229862
0.0230043
0.0230004
0.0230011
0.0230014
0.0229852
0.022996
0.0229885
0.022987
0.0229951
0.0229951
0.0229739
0.0229891
0.022975
0.0229838
0.0229836
0.022992
0.0229689
)
;

boundaryField
{
    inlet
    {
        type            fixedValue;
        value           uniform 0;
    }
    outlet
    {
        type            zeroGradient;
    }
    yzfaces
    {
        type            empty;
    }
}


// ************************************************************************* //
