/*--------------------------------*- C++ -*----------------------------------*\
| =========                 |                                                 |
| \\      /  F ield         | foam-extend: Open Source CFD                    |
|  \\    /   O peration     | Version:     5.0                                |
|   \\  /    A nd           | Web:         http://www.foam-extend.org         |
|    \\/     M anipulation  |                                                 |
\*---------------------------------------------------------------------------*/
FoamFile
{
    version     2.0;
    format      ascii;
    class       volScalarField;
    location    "2";
    object      Na.water;
}
// * * * * * * * * * * * * * * * * * * * * * * * * * * * * * * * * * * * * * //

dimensions      [0 0 0 0 0 0 0];

internalField   nonuniform List<scalar> 
100
(
0.00753141
0.00947913
0.0107618
0.0116343
0.0123735
0.0129453
0.013413
0.0138394
0.0142182
0.0145466
0.0148405
0.015131
0.015399
0.0156375
0.0158539
0.0160741
0.0162797
0.0164667
0.0166568
0.0168388
0.0170085
0.0171751
0.0173464
0.0175174
0.0176906
0.017862
0.0180222
0.0181581
0.0181293
0.0195435
0.0197918
0.0199936
0.0202235
0.0204471
0.0206905
0.0209462
0.0212056
0.0215138
0.021786
0.0220809
0.0223177
0.0225206
0.0226877
0.022815
0.0228904
0.0229307
0.0229466
0.0229756
0.0230072
0.0230028
0.0230003
0.023014
0.0230335
0.0230211
0.0230116
0.0230183
0.0230284
0.0230148
0.0230196
0.0230383
0.0230296
0.0230406
0.0230232
0.02303
0.023021
0.0230209
0.0230305
0.023023
0.0230139
0.0230258
0.0230196
0.0230087
0.0230044
0.0229901
0.022973
0.0229771
0.0229909
0.0229962
0.022995
0.0229973
0.0230176
0.0230053
0.0230173
0.0230333
0.0230099
0.0230026
0.0230241
0.0230147
0.0230128
0.0230067
0.0230163
0.023001
0.0229806
0.0229871
0.0229691
0.0229698
0.0229843
0.0229983
0.0229871
0.0229988
)
;

boundaryField
{
    inlet
    {
        type            fixedValue;
        value           uniform 0;
    }
    outlet
    {
        type            zeroGradient;
    }
    yzfaces
    {
        type            empty;
    }
}


// ************************************************************************* //
