/*--------------------------------*- C++ -*----------------------------------*\
| =========                 |                                                 |
| \\      /  F ield         | foam-extend: Open Source CFD                    |
|  \\    /   O peration     | Version:     5.0                                |
|   \\  /    A nd           | Web:         http://www.foam-extend.org         |
|    \\/     M anipulation  |                                                 |
\*---------------------------------------------------------------------------*/
FoamFile
{
    version     2.0;
    format      ascii;
    class       surfaceScalarField;
    location    "2";
    object      phi;
}
// * * * * * * * * * * * * * * * * * * * * * * * * * * * * * * * * * * * * * //

dimensions      [0 3 -1 0 0 0 0];

internalField   nonuniform List<scalar> 
99
(
1.22532e-06
1.21701e-06
1.21563e-06
1.21719e-06
1.23091e-06
1.22391e-06
1.22485e-06
1.2234e-06
1.22166e-06
1.21693e-06
1.21886e-06
1.22312e-06
1.22156e-06
1.21946e-06
1.22093e-06
1.21936e-06
1.21599e-06
1.21529e-06
1.21243e-06
1.21474e-06
1.21609e-06
1.22045e-06
1.2181e-06
1.21913e-06
1.21685e-06
1.21818e-06
1.2176e-06
1.21818e-06
1.21843e-06
1.21775e-06
1.21911e-06
1.2195e-06
1.21975e-06
1.21995e-06
1.2196e-06
1.21957e-06
1.21878e-06
1.22021e-06
1.21846e-06
1.21955e-06
1.21903e-06
1.21959e-06
1.21837e-06
1.21627e-06
1.21578e-06
1.2167e-06
1.21809e-06
1.21679e-06
1.21834e-06
1.21708e-06
1.21855e-06
1.21933e-06
1.21898e-06
1.22093e-06
1.22044e-06
1.22096e-06
1.21808e-06
1.21786e-06
1.21861e-06
1.21771e-06
1.21693e-06
1.21712e-06
1.21699e-06
1.21469e-06
1.21463e-06
1.21454e-06
1.21369e-06
1.21178e-06
1.21172e-06
1.21108e-06
1.21068e-06
1.21201e-06
1.21144e-06
1.2119e-06
1.2131e-06
1.21173e-06
1.21185e-06
1.21077e-06
1.20952e-06
1.20841e-06
1.20716e-06
1.20667e-06
1.20813e-06
1.20625e-06
1.20483e-06
1.20233e-06
1.20261e-06
1.20206e-06
1.20141e-06
1.20224e-06
1.19936e-06
1.1989e-06
1.19825e-06
1.19976e-06
1.20068e-06
1.19877e-06
1.19832e-06
1.19624e-06
1.19953e-06
)
;

boundaryField
{
    inlet
    {
        type            calculated;
        value           uniform -1.225e-06;
    }
    outlet
    {
        type            calculated;
        value           uniform 1.19715e-06;
    }
    yzfaces
    {
        type            empty;
    }
}


// ************************************************************************* //
