/*--------------------------------*- C++ -*----------------------------------*\
| =========                 |                                                 |
| \\      /  F ield         | foam-extend: Open Source CFD                    |
|  \\    /   O peration     | Version:     5.0                                |
|   \\  /    A nd           | Web:         http://www.foam-extend.org         |
|    \\/     M anipulation  |                                                 |
\*---------------------------------------------------------------------------*/
FoamFile
{
    version     2.0;
    format      ascii;
    class       surfaceScalarField;
    location    "2";
    object      phi;
}
// * * * * * * * * * * * * * * * * * * * * * * * * * * * * * * * * * * * * * //

dimensions      [0 3 -1 0 0 0 0];

internalField   nonuniform List<scalar> 
99
(
1.22475e-06
1.22623e-06
1.22226e-06
1.22673e-06
1.22455e-06
1.22984e-06
1.22281e-06
1.22461e-06
1.2214e-06
1.22517e-06
1.22217e-06
1.21948e-06
1.22278e-06
1.21782e-06
1.22097e-06
1.21821e-06
1.21937e-06
1.2169e-06
1.21477e-06
1.21032e-06
1.21078e-06
1.21198e-06
1.21153e-06
1.21027e-06
1.20944e-06
1.21177e-06
1.21102e-06
1.21152e-06
1.21185e-06
1.2113e-06
1.21331e-06
1.21436e-06
1.21402e-06
1.21322e-06
1.21318e-06
1.21236e-06
1.21248e-06
1.21028e-06
1.2107e-06
1.21113e-06
1.2116e-06
1.21025e-06
1.21e-06
1.21102e-06
1.21156e-06
1.21127e-06
1.21176e-06
1.21177e-06
1.21163e-06
1.21256e-06
1.21136e-06
1.21291e-06
1.21223e-06
1.21368e-06
1.21338e-06
1.21451e-06
1.21282e-06
1.21534e-06
1.21565e-06
1.21383e-06
1.21625e-06
1.21519e-06
1.21391e-06
1.21422e-06
1.21628e-06
1.21571e-06
1.21639e-06
1.2173e-06
1.21753e-06
1.21896e-06
1.21823e-06
1.21713e-06
1.2178e-06
1.21646e-06
1.21728e-06
1.21803e-06
1.21773e-06
1.21545e-06
1.21502e-06
1.2144e-06
1.21597e-06
1.21595e-06
1.21783e-06
1.21676e-06
1.21739e-06
1.21801e-06
1.21909e-06
1.21946e-06
1.22054e-06
1.21873e-06
1.21877e-06
1.2175e-06
1.21605e-06
1.21729e-06
1.2162e-06
1.21568e-06
1.21599e-06
1.21716e-06
1.21654e-06
)
;

boundaryField
{
    inlet
    {
        type            calculated;
        value           uniform -1.225e-06;
    }
    outlet
    {
        type            calculated;
        value           uniform 1.21511e-06;
    }
    yzfaces
    {
        type            empty;
    }
}


// ************************************************************************* //
