/*--------------------------------*- C++ -*----------------------------------*\
| =========                 |                                                 |
| \\      /  F ield         | foam-extend: Open Source CFD                    |
|  \\    /   O peration     | Version:     5.0                                |
|   \\  /    A nd           | Web:         http://www.foam-extend.org         |
|    \\/     M anipulation  |                                                 |
\*---------------------------------------------------------------------------*/
FoamFile
{
    version     2.0;
    format      ascii;
    class       surfaceScalarField;
    location    "2";
    object      phi;
}
// * * * * * * * * * * * * * * * * * * * * * * * * * * * * * * * * * * * * * //

dimensions      [0 3 -1 0 0 0 0];

internalField   nonuniform List<scalar> 
99
(
1.22792e-06
1.21974e-06
1.21804e-06
1.21764e-06
1.22044e-06
1.21594e-06
1.21823e-06
1.21163e-06
1.21988e-06
1.22264e-06
1.22259e-06
1.22173e-06
1.21908e-06
1.22089e-06
1.21747e-06
1.22014e-06
1.22043e-06
1.21878e-06
1.2215e-06
1.22028e-06
1.22084e-06
1.22188e-06
1.21972e-06
1.22325e-06
1.22265e-06
1.22253e-06
1.22296e-06
1.22111e-06
1.2196e-06
1.21799e-06
1.22003e-06
1.21968e-06
1.2199e-06
1.22118e-06
1.22316e-06
1.22186e-06
1.22375e-06
1.22214e-06
1.22179e-06
1.22039e-06
1.22085e-06
1.21957e-06
1.21871e-06
1.22046e-06
1.21832e-06
1.21965e-06
1.21882e-06
1.22083e-06
1.21858e-06
1.22165e-06
1.22241e-06
1.22288e-06
1.22138e-06
1.22391e-06
1.22395e-06
1.22354e-06
1.22321e-06
1.22274e-06
1.22308e-06
1.22427e-06
1.22288e-06
1.22246e-06
1.2225e-06
1.22316e-06
1.22363e-06
1.22252e-06
1.22188e-06
1.2213e-06
1.22237e-06
1.22086e-06
1.22176e-06
1.22081e-06
1.22033e-06
1.2194e-06
1.21943e-06
1.22041e-06
1.22071e-06
1.2208e-06
1.2203e-06
1.2205e-06
1.22005e-06
1.22102e-06
1.22321e-06
1.22225e-06
1.22266e-06
1.22045e-06
1.22008e-06
1.22017e-06
1.21979e-06
1.21954e-06
1.21862e-06
1.21761e-06
1.21605e-06
1.21638e-06
1.21845e-06
1.21813e-06
1.21956e-06
1.2187e-06
1.2197e-06
)
;

boundaryField
{
    inlet
    {
        type            calculated;
        value           uniform -1.225e-06;
    }
    outlet
    {
        type            calculated;
        value           uniform 1.22091e-06;
    }
    yzfaces
    {
        type            empty;
    }
}


// ************************************************************************* //
