/*--------------------------------*- C++ -*----------------------------------*\
| =========                 |                                                 |
| \\      /  F ield         | foam-extend: Open Source CFD                    |
|  \\    /   O peration     | Version:     5.0                                |
|   \\  /    A nd           | Web:         http://www.foam-extend.org         |
|    \\/     M anipulation  |                                                 |
\*---------------------------------------------------------------------------*/
FoamFile
{
    version     2.0;
    format      ascii;
    class       volScalarField;
    location    "2";
    object      S.gas;
}
// * * * * * * * * * * * * * * * * * * * * * * * * * * * * * * * * * * * * * //

dimensions      [0 0 0 0 0 0 0];

internalField   nonuniform List<scalar> 
100
(
0.671135
0.587491
0.53201
0.492047
0.460879
0.437547
0.415568
0.397489
0.381689
0.366229
0.353062
0.340596
0.329688
0.31953
0.309512
0.300614
0.291943
0.283122
0.275218
0.266442
0.258698
0.250685
0.243823
0.236386
0.229191
0.221641
0.214203
0.206571
0.198753
0.19077
0.18253
0.173917
0.164968
0.155489
0.145529
0.134945
0.123851
0.112294
0.10065
0.0892629
0.078872
0.0699992
0.0630877
0.0581197
0.0548579
0.0528225
0.0516098
0.0509087
0.0505145
0.0502925
0.0501569
0.0500946
0.0500599
0.0500392
0.0500251
0.0500178
0.050004
0.0499931
0.0499872
0.0499944
0.0499841
0.0499861
0.0499947
0.0499801
0.0499899
0.0499991
0.0499984
0.0500045
0.0500094
0.050013
0.0500058
0.0500121
0.0500054
0.0500065
0.0500095
0.0500111
0.0499998
0.0500008
0.0499966
0.0500044
0.0500009
0.050003
0.0500058
0.0499907
0.0499823
0.0499831
0.0499942
0.0499935
0.0499936
0.0500031
0.0499916
0.0499932
0.0499883
0.0499805
0.0499839
0.0499733
0.0499692
0.0499695
0.0499703
0.0499705
)
;

boundaryField
{
    inlet
    {
        type            calculated;
        value           uniform 1;
    }
    outlet
    {
        type            calculated;
        value           uniform 0.0499705;
    }
    yzfaces
    {
        type            empty;
    }
}


// ************************************************************************* //
