/*--------------------------------*- C++ -*----------------------------------*\
| =========                 |                                                 |
| \\      /  F ield         | foam-extend: Open Source CFD                    |
|  \\    /   O peration     | Version:     5.0                                |
|   \\  /    A nd           | Web:         http://www.foam-extend.org         |
|    \\/     M anipulation  |                                                 |
\*---------------------------------------------------------------------------*/
FoamFile
{
    version     2.0;
    format      ascii;
    class       volVectorField;
    location    "2";
    object      U.gas;
}
// * * * * * * * * * * * * * * * * * * * * * * * * * * * * * * * * * * * * * //

dimensions      [0 1 -1 0 0 0 0];

internalField   nonuniform List<vector> 
100
(
(0.00740095 0 0)
(0.00831184 0 0)
(0.00900825 0 0)
(0.00958992 0 0)
(0.0101399 0 0)
(0.010546 0 0)
(0.0109022 0 0)
(0.0112094 0 0)
(0.0114709 0 0)
(0.0117198 0 0)
(0.0119282 0 0)
(0.0121764 0 0)
(0.0123662 0 0)
(0.0125105 0 0)
(0.0126686 0 0)
(0.0127924 0 0)
(0.0128902 0 0)
(0.012991 0 0)
(0.0130546 0 0)
(0.0131643 0 0)
(0.0132399 0 0)
(0.0133429 0 0)
(0.0133702 0 0)
(0.0134102 0 0)
(0.0134142 0 0)
(0.0134176 0 0)
(0.0133995 0 0)
(0.0133647 0 0)
(0.0133076 0 0)
(0.0132179 0 0)
(0.0131034 0 0)
(0.0129555 0 0)
(0.0127538 0 0)
(0.0125029 0 0)
(0.0121747 0 0)
(0.0117646 0 0)
(0.0112521 0 0)
(0.0106365 0 0)
(0.00989906 0 0)
(0.00906443 0 0)
(0.00816901 0 0)
(0.0072854 0 0)
(0.00648893 0 0)
(0.00584384 0 0)
(0.00537422 0 0)
(0.00506916 0 0)
(0.00488276 0 0)
(0.0047693 0 0)
(0.00470464 0 0)
(0.00466916 0 0)
(0.00464953 0 0)
(0.00464097 0 0)
(0.00463562 0 0)
(0.00463537 0 0)
(0.00463557 0 0)
(0.00463439 0 0)
(0.00463022 0 0)
(0.00462334 0 0)
(0.00462252 0 0)
(0.00462123 0 0)
(0.00461872 0 0)
(0.00461591 0 0)
(0.00461645 0 0)
(0.0046134 0 0)
(0.00460783 0 0)
(0.00460864 0 0)
(0.00460703 0 0)
(0.0046018 0 0)
(0.00459876 0 0)
(0.00459719 0 0)
(0.00459615 0 0)
(0.00459783 0 0)
(0.00459902 0 0)
(0.0045981 0 0)
(0.00460212 0 0)
(0.00460191 0 0)
(0.0045991 0 0)
(0.00459618 0 0)
(0.00459251 0 0)
(0.00458776 0 0)
(0.00458342 0 0)
(0.0045795 0 0)
(0.00458175 0 0)
(0.00458169 0 0)
(0.00457378 0 0)
(0.00456591 0 0)
(0.00456158 0 0)
(0.00456114 0 0)
(0.00455925 0 0)
(0.00456005 0 0)
(0.00455664 0 0)
(0.00454938 0 0)
(0.00454783 0 0)
(0.00454838 0 0)
(0.00455214 0 0)
(0.00455071 0 0)
(0.00454564 0 0)
(0.00454065 0 0)
(0.00454232 0 0)
(0.00454389 0 0)
)
;

boundaryField
{
    inlet
    {
        type            fixedValue;
        value           uniform (0.005 0 0);
    }
    outlet
    {
        type            zeroGradient;
    }
    yzfaces
    {
        type            empty;
    }
}


// ************************************************************************* //
