/*--------------------------------*- C++ -*----------------------------------*\
| =========                 |                                                 |
| \\      /  F ield         | foam-extend: Open Source CFD                    |
|  \\    /   O peration     | Version:     5.0                                |
|   \\  /    A nd           | Web:         http://www.foam-extend.org         |
|    \\/     M anipulation  |                                                 |
\*---------------------------------------------------------------------------*/
FoamFile
{
    version     2.0;
    format      ascii;
    class       volVectorField;
    location    "2";
    object      U.gas;
}
// * * * * * * * * * * * * * * * * * * * * * * * * * * * * * * * * * * * * * //

dimensions      [0 1 -1 0 0 0 0];

internalField   nonuniform List<vector> 
100
(
(0.00739386 0 0)
(0.00837443 0 0)
(0.00906105 0 0)
(0.00968097 0 0)
(0.0101317 0 0)
(0.0105599 0 0)
(0.0108866 0 0)
(0.0112221 0 0)
(0.0115007 0 0)
(0.0117498 0 0)
(0.0119605 0 0)
(0.0121339 0 0)
(0.0123458 0 0)
(0.0124983 0 0)
(0.0126569 0 0)
(0.0127813 0 0)
(0.0129141 0 0)
(0.0130099 0 0)
(0.0130828 0 0)
(0.0131297 0 0)
(0.0131924 0 0)
(0.0132476 0 0)
(0.013303 0 0)
(0.0133207 0 0)
(0.0133318 0 0)
(0.0133375 0 0)
(0.0133296 0 0)
(0.0132876 0 0)
(0.0132363 0 0)
(0.0131491 0 0)
(0.013042 0 0)
(0.0128931 0 0)
(0.0126893 0 0)
(0.0124217 0 0)
(0.012093 0 0)
(0.0116761 0 0)
(0.0111595 0 0)
(0.0105287 0 0)
(0.00978603 0 0)
(0.00895306 0 0)
(0.00806313 0 0)
(0.00718491 0 0)
(0.0064022 0 0)
(0.0057802 0 0)
(0.0053342 0 0)
(0.00503857 0 0)
(0.00485413 0 0)
(0.00474579 0 0)
(0.00468073 0 0)
(0.00464613 0 0)
(0.00462598 0 0)
(0.00461552 0 0)
(0.00460959 0 0)
(0.00460776 0 0)
(0.00460732 0 0)
(0.00460786 0 0)
(0.00460587 0 0)
(0.00460656 0 0)
(0.00461109 0 0)
(0.00460729 0 0)
(0.00460767 0 0)
(0.00460974 0 0)
(0.00460608 0 0)
(0.00460538 0 0)
(0.00461046 0 0)
(0.0046142 0 0)
(0.00461444 0 0)
(0.00461634 0 0)
(0.00461818 0 0)
(0.00462179 0 0)
(0.00462365 0 0)
(0.00461978 0 0)
(0.00461848 0 0)
(0.00461618 0 0)
(0.0046148 0 0)
(0.00461821 0 0)
(0.00461991 0 0)
(0.00461509 0 0)
(0.00461038 0 0)
(0.00460809 0 0)
(0.00460983 0 0)
(0.00461384 0 0)
(0.00461876 0 0)
(0.00461939 0 0)
(0.00461794 0 0)
(0.00462047 0 0)
(0.00462362 0 0)
(0.00462688 0 0)
(0.00462965 0 0)
(0.00462766 0 0)
(0.00462548 0 0)
(0.00462294 0 0)
(0.00461675 0 0)
(0.00461682 0 0)
(0.00461688 0 0)
(0.00461295 0 0)
(0.00461226 0 0)
(0.00461556 0 0)
(0.004616 0 0)
(0.00461229 0 0)
)
;

boundaryField
{
    inlet
    {
        type            fixedValue;
        value           uniform (0.005 0 0);
    }
    outlet
    {
        type            zeroGradient;
    }
    yzfaces
    {
        type            empty;
    }
}


// ************************************************************************* //
