/*--------------------------------*- C++ -*----------------------------------*\
| =========                 |                                                 |
| \\      /  F ield         | foam-extend: Open Source CFD                    |
|  \\    /   O peration     | Version:     5.0                                |
|   \\  /    A nd           | Web:         http://www.foam-extend.org         |
|    \\/     M anipulation  |                                                 |
\*---------------------------------------------------------------------------*/
FoamFile
{
    version     2.0;
    format      ascii;
    class       volVectorField;
    location    "2";
    object      U.gas;
}
// * * * * * * * * * * * * * * * * * * * * * * * * * * * * * * * * * * * * * //

dimensions      [0 1 -1 0 0 0 0];

internalField   nonuniform List<vector> 
100
(
(0.00739943 0 0)
(0.0083262 0 0)
(0.00904123 0 0)
(0.00956974 0 0)
(0.0101022 0 0)
(0.0104846 0 0)
(0.0108279 0 0)
(0.0111193 0 0)
(0.0114324 0 0)
(0.0117293 0 0)
(0.0119573 0 0)
(0.0121799 0 0)
(0.0123521 0 0)
(0.0125245 0 0)
(0.0126481 0 0)
(0.0128089 0 0)
(0.012928 0 0)
(0.0130205 0 0)
(0.0131378 0 0)
(0.0132192 0 0)
(0.0132873 0 0)
(0.0133488 0 0)
(0.0133865 0 0)
(0.0134441 0 0)
(0.0134704 0 0)
(0.0134691 0 0)
(0.0134582 0 0)
(0.0134122 0 0)
(0.0133393 0 0)
(0.0132371 0 0)
(0.0131229 0 0)
(0.0129632 0 0)
(0.0127611 0 0)
(0.012507 0 0)
(0.0121941 0 0)
(0.011779 0 0)
(0.0112711 0 0)
(0.0106457 0 0)
(0.00989464 0 0)
(0.00904249 0 0)
(0.00813672 0 0)
(0.00724647 0 0)
(0.0064523 0 0)
(0.00582398 0 0)
(0.00537126 0 0)
(0.0050685 0 0)
(0.00488279 0 0)
(0.00477328 0 0)
(0.0047094 0 0)
(0.00467504 0 0)
(0.00466062 0 0)
(0.00465209 0 0)
(0.00464448 0 0)
(0.00464375 0 0)
(0.00464576 0 0)
(0.00464463 0 0)
(0.00464395 0 0)
(0.00464126 0 0)
(0.00464014 0 0)
(0.00464265 0 0)
(0.00464138 0 0)
(0.00463839 0 0)
(0.00463796 0 0)
(0.00463935 0 0)
(0.00464061 0 0)
(0.00463981 0 0)
(0.00463777 0 0)
(0.0046351 0 0)
(0.00463554 0 0)
(0.00463421 0 0)
(0.00463273 0 0)
(0.00463327 0 0)
(0.00463156 0 0)
(0.00462822 0 0)
(0.00462631 0 0)
(0.00462842 0 0)
(0.00463155 0 0)
(0.00463181 0 0)
(0.00463255 0 0)
(0.00463268 0 0)
(0.00463191 0 0)
(0.00463368 0 0)
(0.00463987 0 0)
(0.00464128 0 0)
(0.00463972 0 0)
(0.00463611 0 0)
(0.00463144 0 0)
(0.00463049 0 0)
(0.00463064 0 0)
(0.00462931 0 0)
(0.00462671 0 0)
(0.00462372 0 0)
(0.00461895 0 0)
(0.00461582 0 0)
(0.00461958 0 0)
(0.00462449 0 0)
(0.00462523 0 0)
(0.00462604 0 0)
(0.00462648 0 0)
(0.0046305 0 0)
)
;

boundaryField
{
    inlet
    {
        type            fixedValue;
        value           uniform (0.005 0 0);
    }
    outlet
    {
        type            zeroGradient;
    }
    yzfaces
    {
        type            empty;
    }
}


// ************************************************************************* //
