/*--------------------------------*- C++ -*----------------------------------*\
| =========                 |                                                 |
| \\      /  F ield         | foam-extend: Open Source CFD                    |
|  \\    /   O peration     | Version:     5.0                                |
|   \\  /    A nd           | Web:         http://www.foam-extend.org         |
|    \\/     M anipulation  |                                                 |
\*---------------------------------------------------------------------------*/
FoamFile
{
    version     2.0;
    format      ascii;
    class       volVectorField;
    location    "2";
    object      U.water;
}
// * * * * * * * * * * * * * * * * * * * * * * * * * * * * * * * * * * * * * //

dimensions      [0 1 -1 0 0 0 0];

internalField   nonuniform List<vector> 
100
(
(0.000102113 0 0)
(0.000248342 0 0)
(0.000372923 0 0)
(0.000489299 0 0)
(0.000601272 0 0)
(0.000702715 0 0)
(0.000799323 0 0)
(0.000893932 0 0)
(0.000993971 0 0)
(0.00108819 0 0)
(0.00117667 0 0)
(0.00125876 0 0)
(0.00134732 0 0)
(0.0014374 0 0)
(0.00152676 0 0)
(0.00161779 0 0)
(0.00170514 0 0)
(0.00179502 0 0)
(0.00188138 0 0)
(0.00196689 0 0)
(0.00205756 0 0)
(0.00215481 0 0)
(0.00224965 0 0)
(0.00234586 0 0)
(0.00244458 0 0)
(0.00255126 0 0)
(0.00266078 0 0)
(0.00277281 0 0)
(0.00289016 0 0)
(0.00301266 0 0)
(0.00314527 0 0)
(0.00328798 0 0)
(0.00343323 0 0)
(0.00358274 0 0)
(0.00374073 0 0)
(0.00390597 0 0)
(0.00407564 0 0)
(0.00424231 0 0)
(0.00440254 0 0)
(0.00455251 0 0)
(0.00467947 0 0)
(0.00477493 0 0)
(0.00484134 0 0)
(0.00488926 0 0)
(0.00492145 0 0)
(0.00493932 0 0)
(0.0049499 0 0)
(0.00495671 0 0)
(0.00495982 0 0)
(0.00496328 0 0)
(0.00496373 0 0)
(0.00496501 0 0)
(0.00496717 0 0)
(0.0049689 0 0)
(0.00497139 0 0)
(0.00497315 0 0)
(0.00497204 0 0)
(0.00497378 0 0)
(0.00497962 0 0)
(0.00497658 0 0)
(0.00497784 0 0)
(0.00498064 0 0)
(0.00497581 0 0)
(0.00497378 0 0)
(0.0049786 0 0)
(0.00498161 0 0)
(0.00498184 0 0)
(0.00498515 0 0)
(0.0049875 0 0)
(0.00499088 0 0)
(0.00499228 0 0)
(0.00498854 0 0)
(0.00498769 0 0)
(0.00498639 0 0)
(0.00498534 0 0)
(0.00498853 0 0)
(0.00498941 0 0)
(0.00498412 0 0)
(0.00497854 0 0)
(0.0049764 0 0)
(0.00497836 0 0)
(0.0049815 0 0)
(0.00498523 0 0)
(0.00498694 0 0)
(0.00498606 0 0)
(0.0049886 0 0)
(0.00499209 0 0)
(0.00499505 0 0)
(0.00499801 0 0)
(0.00499655 0 0)
(0.00499286 0 0)
(0.00499034 0 0)
(0.00498483 0 0)
(0.00498437 0 0)
(0.0049847 0 0)
(0.00498144 0 0)
(0.00498101 0 0)
(0.00498403 0 0)
(0.0049852 0 0)
(0.00498099 0 0)
)
;

boundaryField
{
    inlet
    {
        type            fixedValue;
        value           uniform (0 0 0);
    }
    outlet
    {
        type            zeroGradient;
    }
    yzfaces
    {
        type            empty;
    }
}


// ************************************************************************* //
