/*--------------------------------*- C++ -*----------------------------------*\
| =========                 |                                                 |
| \\      /  F ield         | foam-extend: Open Source CFD                    |
|  \\    /   O peration     | Version:     5.0                                |
|   \\  /    A nd           | Web:         http://www.foam-extend.org         |
|    \\/     M anipulation  |                                                 |
\*---------------------------------------------------------------------------*/
FoamFile
{
    version     2.0;
    format      ascii;
    class       volVectorField;
    location    "2";
    object      U.water;
}
// * * * * * * * * * * * * * * * * * * * * * * * * * * * * * * * * * * * * * //

dimensions      [0 1 -1 0 0 0 0];

internalField   nonuniform List<vector> 
100
(
(0.000101799 0 0)
(0.00024506 0 0)
(0.000369179 0 0)
(0.00048535 0 0)
(0.000593424 0 0)
(0.000698855 0 0)
(0.000794788 0 0)
(0.000888617 0 0)
(0.000985414 0 0)
(0.00108557 0 0)
(0.00117574 0 0)
(0.00126443 0 0)
(0.00135577 0 0)
(0.00144806 0 0)
(0.00153642 0 0)
(0.0016239 0 0)
(0.00171753 0 0)
(0.00180238 0 0)
(0.00189135 0 0)
(0.00198362 0 0)
(0.00207353 0 0)
(0.00216719 0 0)
(0.00225837 0 0)
(0.00235654 0 0)
(0.00246299 0 0)
(0.00256739 0 0)
(0.00267645 0 0)
(0.00278804 0 0)
(0.00290234 0 0)
(0.00302311 0 0)
(0.00315618 0 0)
(0.00329796 0 0)
(0.00344238 0 0)
(0.00359771 0 0)
(0.00376394 0 0)
(0.00393318 0 0)
(0.00410638 0 0)
(0.0042793 0 0)
(0.00444155 0 0)
(0.00458872 0 0)
(0.0047139 0 0)
(0.00481098 0 0)
(0.00487722 0 0)
(0.00492586 0 0)
(0.00495427 0 0)
(0.00497027 0 0)
(0.00498157 0 0)
(0.00498989 0 0)
(0.00499269 0 0)
(0.00499621 0 0)
(0.00500515 0 0)
(0.00500823 0 0)
(0.0050064 0 0)
(0.00500864 0 0)
(0.00501405 0 0)
(0.00501331 0 0)
(0.00501175 0 0)
(0.00501019 0 0)
(0.00500997 0 0)
(0.00501311 0 0)
(0.00501274 0 0)
(0.00500901 0 0)
(0.00500823 0 0)
(0.00500964 0 0)
(0.005012 0 0)
(0.00501067 0 0)
(0.00500703 0 0)
(0.00500455 0 0)
(0.00500557 0 0)
(0.0050047 0 0)
(0.00500346 0 0)
(0.00500332 0 0)
(0.00500035 0 0)
(0.0049975 0 0)
(0.00499566 0 0)
(0.00499773 0 0)
(0.00500032 0 0)
(0.00500113 0 0)
(0.00500021 0 0)
(0.00499956 0 0)
(0.00499907 0 0)
(0.0050001 0 0)
(0.00500656 0 0)
(0.00500914 0 0)
(0.00500804 0 0)
(0.00500437 0 0)
(0.00499907 0 0)
(0.00499851 0 0)
(0.00499786 0 0)
(0.00499657 0 0)
(0.0049942 0 0)
(0.00499023 0 0)
(0.00498497 0 0)
(0.00498248 0 0)
(0.00498745 0 0)
(0.00499094 0 0)
(0.00499329 0 0)
(0.00499447 0 0)
(0.00499473 0 0)
(0.00499926 0 0)
)
;

boundaryField
{
    inlet
    {
        type            fixedValue;
        value           uniform (0 0 0);
    }
    outlet
    {
        type            zeroGradient;
    }
    yzfaces
    {
        type            empty;
    }
}


// ************************************************************************* //
