/*--------------------------------*- C++ -*----------------------------------*\
| =========                 |                                                 |
| \\      /  F ield         | foam-extend: Open Source CFD                    |
|  \\    /   O peration     | Version:     5.0                                |
|   \\  /    A nd           | Web:         http://www.foam-extend.org         |
|    \\/     M anipulation  |                                                 |
\*---------------------------------------------------------------------------*/
FoamFile
{
    version     2.0;
    format      ascii;
    class       volVectorField;
    location    "2";
    object      U.water;
}
// * * * * * * * * * * * * * * * * * * * * * * * * * * * * * * * * * * * * * //

dimensions      [0 1 -1 0 0 0 0];

internalField   nonuniform List<vector> 
100
(
(0.00010222 0 0)
(0.000245358 0 0)
(0.000367706 0 0)
(0.000484818 0 0)
(0.000598888 0 0)
(0.000703109 0 0)
(0.000798849 0 0)
(0.000897582 0 0)
(0.000989192 0 0)
(0.00108015 0 0)
(0.00117415 0 0)
(0.00126841 0 0)
(0.0013608 0 0)
(0.00144636 0 0)
(0.00153416 0 0)
(0.00162227 0 0)
(0.00170448 0 0)
(0.00179077 0 0)
(0.00187874 0 0)
(0.00197105 0 0)
(0.00207166 0 0)
(0.00217219 0 0)
(0.00227021 0 0)
(0.00236241 0 0)
(0.00246104 0 0)
(0.0025638 0 0)
(0.00267341 0 0)
(0.00278565 0 0)
(0.00290517 0 0)
(0.00302783 0 0)
(0.00315781 0 0)
(0.00329697 0 0)
(0.0034419 0 0)
(0.0035937 0 0)
(0.00375308 0 0)
(0.00391919 0 0)
(0.00408907 0 0)
(0.00426169 0 0)
(0.00442603 0 0)
(0.00457478 0 0)
(0.00470335 0 0)
(0.004803 0 0)
(0.0048735 0 0)
(0.00491464 0 0)
(0.00493951 0 0)
(0.00495839 0 0)
(0.00497365 0 0)
(0.00497985 0 0)
(0.00498376 0 0)
(0.00498619 0 0)
(0.00498763 0 0)
(0.0049929 0 0)
(0.00499409 0 0)
(0.00499752 0 0)
(0.00500064 0 0)
(0.00500076 0 0)
(0.00499591 0 0)
(0.00498962 0 0)
(0.00499081 0 0)
(0.00499055 0 0)
(0.00498706 0 0)
(0.00498594 0 0)
(0.00498604 0 0)
(0.00498099 0 0)
(0.00497621 0 0)
(0.00497584 0 0)
(0.00497391 0 0)
(0.00496826 0 0)
(0.00496421 0 0)
(0.00496278 0 0)
(0.00496059 0 0)
(0.00496251 0 0)
(0.00496408 0 0)
(0.00496388 0 0)
(0.00496723 0 0)
(0.00496689 0 0)
(0.00496435 0 0)
(0.00496245 0 0)
(0.00495764 0 0)
(0.00495281 0 0)
(0.00494795 0 0)
(0.00494441 0 0)
(0.00494639 0 0)
(0.00494548 0 0)
(0.0049388 0 0)
(0.00493081 0 0)
(0.00492628 0 0)
(0.00492572 0 0)
(0.00492324 0 0)
(0.00492357 0 0)
(0.00491936 0 0)
(0.00491257 0 0)
(0.00491026 0 0)
(0.00491208 0 0)
(0.0049171 0 0)
(0.00491504 0 0)
(0.00491024 0 0)
(0.00490508 0 0)
(0.00490758 0 0)
(0.00490944 0 0)
)
;

boundaryField
{
    inlet
    {
        type            fixedValue;
        value           uniform (0 0 0);
    }
    outlet
    {
        type            zeroGradient;
    }
    yzfaces
    {
        type            empty;
    }
}


// ************************************************************************* //
