/*--------------------------------*- C++ -*----------------------------------*\
| =========                 |                                                 |
| \\      /  F ield         | foam-extend: Open Source CFD                    |
|  \\    /   O peration     | Version:     5.0                                |
|   \\  /    A nd           | Web:         http://www.foam-extend.org         |
|    \\/     M anipulation  |                                                 |
\*---------------------------------------------------------------------------*/
FoamFile
{
    version     2.0;
    format      ascii;
    class       volScalarField;
    location    "8";
    object      alpha.gas;
}
// * * * * * * * * * * * * * * * * * * * * * * * * * * * * * * * * * * * * * //

dimensions      [0 0 0 0 0 0 0];

internalField   nonuniform List<scalar> 
100
(
0.157951
0.147642
0.145067
0.137458
0.126999
0.124223
0.124351
0.123947
0.119805
0.111604
0.10679
0.102828
0.0986044
0.0951514
0.0931975
0.0904426
0.0878485
0.0869375
0.0859691
0.0855893
0.0844489
0.0837149
0.0826975
0.0813858
0.0798403
0.0788776
0.0776634
0.0766302
0.0756923
0.0751604
0.074189
0.0733768
0.0724883
0.0714928
0.0709338
0.0699631
0.0693324
0.0689974
0.0683317
0.0674183
0.0665523
0.065904
0.0653347
0.0648073
0.0641511
0.0634267
0.0628461
0.0623113
0.0616771
0.0610132
0.060332
0.0594957
0.0590652
0.0584044
0.057923
0.0573179
0.056878
0.056332
0.0556504
0.0551735
0.0547509
0.0540958
0.0534299
0.052807
0.0521195
0.0512845
0.0504654
0.0494122
0.047671
0.045151
0.0408792
0.0322423
0.0110986
0.0251533
0.0242481
0.0239549
0.0239066
0.0239531
0.0240408
0.0241492
0.0242924
0.0244578
0.0246335
0.0248144
0.0250001
0.0251834
0.0253569
0.0255012
0.025629
0.0257329
0.0258109
0.0258636
0.0258956
0.0259078
0.0259007
0.0258836
0.0258607
0.0258256
0.0257801
0.0257311
)
;

boundaryField
{
    inlet
    {
        type            fixedValue;
        value           uniform 0.2;
    }
    outlet
    {
        type            zeroGradient;
    }
    yzfaces
    {
        type            empty;
    }
}


// ************************************************************************* //
