/*--------------------------------*- C++ -*----------------------------------*\
| =========                 |                                                 |
| \\      /  F ield         | foam-extend: Open Source CFD                    |
|  \\    /   O peration     | Version:     5.0                                |
|   \\  /    A nd           | Web:         http://www.foam-extend.org         |
|    \\/     M anipulation  |                                                 |
\*---------------------------------------------------------------------------*/
FoamFile
{
    version     2.0;
    format      ascii;
    class       volScalarField;
    location    "8";
    object      Cl.water;
}
// * * * * * * * * * * * * * * * * * * * * * * * * * * * * * * * * * * * * * //

dimensions      [0 0 0 0 0 0 0];

internalField   nonuniform List<scalar> 
100
(
0.00814811
0.0108053
0.01214
0.0134446
0.0153314
0.016209
0.0165552
0.0165879
0.016989
0.01804
0.0188399
0.0195441
0.0204731
0.0212714
0.021648
0.0220996
0.022645
0.0231241
0.0234137
0.023609
0.0236007
0.0238688
0.023947
0.0241298
0.0244008
0.0246269
0.0249229
0.025146
0.025401
0.0255994
0.0257901
0.0259913
0.0261771
0.0263409
0.0264282
0.0265086
0.0266506
0.0267665
0.0268764
0.0270569
0.0272809
0.0274014
0.0275252
0.0276469
0.0277846
0.0279192
0.0280974
0.0282564
0.0283134
0.0284219
0.0285181
0.0286684
0.0288364
0.0290231
0.0291457
0.0292453
0.0293516
0.029452
0.0295511
0.0296957
0.0298589
0.0299631
0.0301084
0.0302335
0.0303376
0.0304737
0.0307304
0.0309148
0.0312392
0.0317542
0.0326244
0.0343736
0.0387196
0.0366077
0.0369145
0.0370405
0.0370714
0.037072
0.0370529
0.0370164
0.036995
0.0369492
0.0368827
0.0368598
0.0368315
0.036792
0.036747
0.0367119
0.0367143
0.0366772
0.0366865
0.0366974
0.0366782
0.0366719
0.0366591
0.0366686
0.0367062
0.0367029
0.0367095
0.0367328
)
;

boundaryField
{
    inlet
    {
        type            fixedValue;
        value           uniform 0;
    }
    outlet
    {
        type            zeroGradient;
    }
    yzfaces
    {
        type            empty;
    }
}


// ************************************************************************* //
