/*--------------------------------*- C++ -*----------------------------------*\
| =========                 |                                                 |
| \\      /  F ield         | foam-extend: Open Source CFD                    |
|  \\    /   O peration     | Version:     5.0                                |
|   \\  /    A nd           | Web:         http://www.foam-extend.org         |
|    \\/     M anipulation  |                                                 |
\*---------------------------------------------------------------------------*/
FoamFile
{
    version     2.0;
    format      ascii;
    class       volScalarField;
    location    "8";
    object      CO2.gas;
}
// * * * * * * * * * * * * * * * * * * * * * * * * * * * * * * * * * * * * * //

dimensions      [0 0 0 0 0 0 0];

internalField   nonuniform List<scalar> 
100
(
0.157643
0.147355
0.144785
0.137191
0.126752
0.123981
0.124109
0.123705
0.119572
0.111386
0.106582
0.102628
0.0984124
0.0949661
0.093016
0.0902665
0.0876775
0.0867682
0.0858017
0.0854226
0.0842845
0.0835519
0.0825365
0.0812273
0.0796848
0.078724
0.0775121
0.0764809
0.0755448
0.075014
0.0740446
0.0732339
0.0723471
0.0713535
0.0707956
0.0698268
0.0691974
0.068863
0.0681986
0.067287
0.0664227
0.0657757
0.0652075
0.0646811
0.0640262
0.0633032
0.0627237
0.06219
0.061557
0.0608943
0.0602145
0.0593798
0.0589502
0.0582907
0.0578102
0.0572063
0.0567672
0.0562223
0.055542
0.0550661
0.0546442
0.0539904
0.0533259
0.0527041
0.052018
0.0511846
0.0503671
0.0493159
0.0475782
0.0450631
0.0407996
0.0321795
0.011077
0.0246178
0.0233432
0.0226428
0.0221297
0.021656
0.0211733
0.0206491
0.0201189
0.0195421
0.0189165
0.0182701
0.0175797
0.0168408
0.0160458
0.0152048
0.0143445
0.0134372
0.0125246
0.0115993
0.0106717
0.00975572
0.00886188
0.00800501
0.00719351
0.00641408
0.00568718
0.00501457
)
;

boundaryField
{
    inlet
    {
        type            fixedValue;
        value           uniform 0.2;
    }
    outlet
    {
        type            zeroGradient;
    }
    yzfaces
    {
        type            empty;
    }
}


// ************************************************************************* //
