/*--------------------------------*- C++ -*----------------------------------*\
| =========                 |                                                 |
| \\      /  F ield         | foam-extend: Open Source CFD                    |
|  \\    /   O peration     | Version:     5.0                                |
|   \\  /    A nd           | Web:         http://www.foam-extend.org         |
|    \\/     M anipulation  |                                                 |
\*---------------------------------------------------------------------------*/
FoamFile
{
    version     2.0;
    format      ascii;
    class       volScalarField;
    location    "8";
    object      CO2.water;
}
// * * * * * * * * * * * * * * * * * * * * * * * * * * * * * * * * * * * * * //

dimensions      [0 0 0 0 0 0 0];

internalField   nonuniform List<scalar> 
100
(
0.0011044
0.00137515
0.00144278
0.00164263
0.00191734
0.00199024
0.00198688
0.0019975
0.00210629
0.00232169
0.00244812
0.00255217
0.00266311
0.0027538
0.00280512
0.00287747
0.00294561
0.00296954
0.00299497
0.00300495
0.0030349
0.00305417
0.0030809
0.00311535
0.00315594
0.00318122
0.00321312
0.00324025
0.00326489
0.00327886
0.00330437
0.0033257
0.00334904
0.00337518
0.00338987
0.00341536
0.00343193
0.00344072
0.00345821
0.0034822
0.00350494
0.00352197
0.00353692
0.00355077
0.00356801
0.00358703
0.00360229
0.00361633
0.00363299
0.00365043
0.00366832
0.00369028
0.00370159
0.00371894
0.00373159
0.00374748
0.00375903
0.00377337
0.00379128
0.0038038
0.0038149
0.00383211
0.0038496
0.00386596
0.00388401
0.00390595
0.00392746
0.00395512
0.00400085
0.00406704
0.00417923
0.00440608
0.00496141
0.00093766
0.000358199
0.000130899
4.68054e-05
1.65399e-05
5.80281e-06
2.02066e-06
6.99312e-07
2.40356e-07
8.21024e-08
2.79512e-08
9.50001e-09
3.22997e-09
1.10214e-09
3.7894e-10
1.31802e-10
4.64015e-11
1.66022e-11
6.03203e-12
2.22705e-12
8.3517e-13
3.17931e-13
1.22725e-13
4.79962e-14
1.89484e-14
7.55486e-15
3.00098e-15
)
;

boundaryField
{
    inlet
    {
        type            fixedValue;
        value           uniform 0;
    }
    outlet
    {
        type            zeroGradient;
    }
    yzfaces
    {
        type            empty;
    }
}


// ************************************************************************* //
