/*--------------------------------*- C++ -*----------------------------------*\
| =========                 |                                                 |
| \\      /  F ield         | foam-extend: Open Source CFD                    |
|  \\    /   O peration     | Version:     5.0                                |
|   \\  /    A nd           | Web:         http://www.foam-extend.org         |
|    \\/     M anipulation  |                                                 |
\*---------------------------------------------------------------------------*/
FoamFile
{
    version     2.0;
    format      ascii;
    class       volScalarField;
    location    "8";
    object      H2O.gas;
}
// * * * * * * * * * * * * * * * * * * * * * * * * * * * * * * * * * * * * * //

dimensions      [0 0 0 0 0 0 0];

internalField   nonuniform List<scalar> 
100
(
0.000307605
0.000287529
0.000282514
0.000267696
0.000247327
0.000241921
0.00024217
0.000241383
0.000233316
0.000217345
0.00020797
0.000200255
0.000192029
0.000185305
0.000181499
0.000176134
0.000171082
0.000169308
0.000167422
0.000166683
0.000164462
0.000163032
0.000161051
0.000158496
0.000155487
0.000153612
0.000151247
0.000149235
0.000147408
0.000146373
0.000144481
0.000142899
0.000141169
0.00013923
0.000138141
0.000136251
0.000135023
0.00013437
0.000133074
0.000131295
0.000129609
0.000128346
0.000127237
0.00012621
0.000124932
0.000123522
0.000122391
0.00012135
0.000120114
0.000118821
0.000117495
0.000115866
0.000115028
0.000113741
0.000112803
0.000111625
0.000110768
0.000109705
0.000108377
0.000107449
0.000106626
0.00010535
0.000104053
0.00010284
0.000101501
9.9875e-05
9.82798e-05
9.62288e-05
9.28379e-05
8.79303e-05
7.9611e-05
6.27909e-05
2.16142e-05
0.000540958
0.000910706
0.00133197
0.00180238
0.00232166
0.00289207
0.00351272
0.00418934
0.00491933
0.0056968
0.00653161
0.00741486
0.00833965
0.00929513
0.010273
0.0112765
0.0122775
0.0132849
0.0142793
0.0152358
0.0161627
0.0170425
0.0178816
0.0186932
0.0194243
0.0201016
0.0207358
)
;

boundaryField
{
    inlet
    {
        type            fixedValue;
        value           uniform 0;
    }
    outlet
    {
        type            zeroGradient;
    }
    yzfaces
    {
        type            empty;
    }
}


// ************************************************************************* //
