/*--------------------------------*- C++ -*----------------------------------*\
| =========                 |                                                 |
| \\      /  F ield         | foam-extend: Open Source CFD                    |
|  \\    /   O peration     | Version:     5.0                                |
|   \\  /    A nd           | Web:         http://www.foam-extend.org         |
|    \\/     M anipulation  |                                                 |
\*---------------------------------------------------------------------------*/
FoamFile
{
    version     2.0;
    format      ascii;
    class       volScalarField;
    location    "8";
    object      H2O.water;
}
// * * * * * * * * * * * * * * * * * * * * * * * * * * * * * * * * * * * * * //

dimensions      [0 0 0 0 0 0 0];

internalField   nonuniform List<scalar> 
100
(
0.0246484
0.0293706
0.0292006
0.0340021
0.0404041
0.0413604
0.0405507
0.0408704
0.0440975
0.0499674
0.0530488
0.0554913
0.0577481
0.0595199
0.0606897
0.0624681
0.06391
0.0638418
0.0642019
0.0641693
0.0652982
0.0654808
0.0663243
0.0672217
0.0681916
0.0686696
0.0692619
0.0698187
0.0702261
0.0703544
0.070926
0.0713221
0.0718084
0.0724526
0.0728251
0.0735897
0.0739274
0.074022
0.0744475
0.074964
0.0753698
0.07576
0.0760688
0.0763393
0.0766962
0.0771299
0.0773392
0.077547
0.0780408
0.0784713
0.0789439
0.0794644
0.0795549
0.0798241
0.080047
0.080436
0.0806565
0.0810002
0.0814721
0.0816568
0.081741
0.0821724
0.0825192
0.0828693
0.083321
0.0838605
0.0841581
0.0848207
0.08587
0.0872943
0.0897091
0.0946137
0.106502
0.100743
0.101603
0.101968
0.102071
0.10204
0.101998
0.10188
0.101804
0.101653
0.101448
0.101379
0.1013
0.101209
0.101043
0.100932
0.100906
0.100806
0.100824
0.100854
0.100829
0.100821
0.100803
0.100815
0.100927
0.100889
0.100902
0.100961
)
;

boundaryField
{
    inlet
    {
        type            fixedValue;
        value           uniform 0;
    }
    outlet
    {
        type            zeroGradient;
    }
    yzfaces
    {
        type            empty;
    }
}


// ************************************************************************* //
