/*--------------------------------*- C++ -*----------------------------------*\
| =========                 |                                                 |
| \\      /  F ield         | foam-extend: Open Source CFD                    |
|  \\    /   O peration     | Version:     5.0                                |
|   \\  /    A nd           | Web:         http://www.foam-extend.org         |
|    \\/     M anipulation  |                                                 |
\*---------------------------------------------------------------------------*/
FoamFile
{
    version     2.0;
    format      ascii;
    class       volScalarField;
    location    "8";
    object      Na.water;
}
// * * * * * * * * * * * * * * * * * * * * * * * * * * * * * * * * * * * * * //

dimensions      [0 0 0 0 0 0 0];

internalField   nonuniform List<scalar> 
100
(
0.0081482
0.0108065
0.0121494
0.0134525
0.0153482
0.016217
0.016556
0.0165974
0.0170023
0.0180673
0.0188733
0.0195842
0.0205113
0.0213035
0.0216598
0.0221122
0.0226509
0.0231271
0.0234203
0.0236275
0.0236172
0.0238813
0.0239503
0.0241474
0.0244114
0.0246447
0.0249387
0.0251649
0.0254157
0.025607
0.0257905
0.0259842
0.0261772
0.0263386
0.0264231
0.0265232
0.0266577
0.0267734
0.0268861
0.0270786
0.0272921
0.0274126
0.0275344
0.0276557
0.0278001
0.0279372
0.0281151
0.0282689
0.0283357
0.0284432
0.0285377
0.0286812
0.0288418
0.0290294
0.0291527
0.0292533
0.0293549
0.0294424
0.0295351
0.0296702
0.0298343
0.0299366
0.0300929
0.0302243
0.0303379
0.0304754
0.0307186
0.0308972
0.031219
0.0317334
0.0326081
0.0343643
0.0387184
0.0365962
0.036918
0.0370514
0.037092
0.0370991
0.0370817
0.0370444
0.0370226
0.0369661
0.0368915
0.0368582
0.0368297
0.0367947
0.0367432
0.0366954
0.0366969
0.0366615
0.0366693
0.0366856
0.0366767
0.0366711
0.0366623
0.0366529
0.0366807
0.036669
0.0366677
0.0367053
)
;

boundaryField
{
    inlet
    {
        type            fixedValue;
        value           uniform 0;
    }
    outlet
    {
        type            zeroGradient;
    }
    yzfaces
    {
        type            empty;
    }
}


// ************************************************************************* //
