/*--------------------------------*- C++ -*----------------------------------*\
| =========                 |                                                 |
| \\      /  F ield         | foam-extend: Open Source CFD                    |
|  \\    /   O peration     | Version:     5.0                                |
|   \\  /    A nd           | Web:         http://www.foam-extend.org         |
|    \\/     M anipulation  |                                                 |
\*---------------------------------------------------------------------------*/
FoamFile
{
    version     2.0;
    format      ascii;
    class       surfaceScalarField;
    location    "8";
    object      phi;
}
// * * * * * * * * * * * * * * * * * * * * * * * * * * * * * * * * * * * * * //

dimensions      [0 3 -1 0 0 0 0];

internalField   nonuniform List<scalar> 
99
(
1.23141e-06
1.22734e-06
1.22982e-06
1.22192e-06
1.22372e-06
1.22829e-06
1.23645e-06
1.24933e-06
1.23571e-06
1.23752e-06
1.2473e-06
1.24571e-06
1.25159e-06
1.25502e-06
1.25056e-06
1.25289e-06
1.25927e-06
1.26107e-06
1.2523e-06
1.25022e-06
1.2468e-06
1.24723e-06
1.24776e-06
1.24982e-06
1.25325e-06
1.25075e-06
1.25097e-06
1.24879e-06
1.25256e-06
1.25312e-06
1.25327e-06
1.25051e-06
1.25146e-06
1.25183e-06
1.25289e-06
1.25411e-06
1.25436e-06
1.25398e-06
1.25458e-06
1.25359e-06
1.25564e-06
1.25326e-06
1.25677e-06
1.25384e-06
1.25328e-06
1.2536e-06
1.24927e-06
1.24779e-06
1.25036e-06
1.25112e-06
1.24888e-06
1.25269e-06
1.24985e-06
1.25164e-06
1.25196e-06
1.25613e-06
1.25179e-06
1.25066e-06
1.25227e-06
1.253e-06
1.24836e-06
1.24786e-06
1.24992e-06
1.25029e-06
1.25051e-06
1.25193e-06
1.25366e-06
1.2534e-06
1.253e-06
1.25239e-06
1.25069e-06
1.25102e-06
1.25003e-06
1.24996e-06
1.25098e-06
1.25285e-06
1.25296e-06
1.25214e-06
1.25121e-06
1.2526e-06
1.25215e-06
1.25051e-06
1.25085e-06
1.24972e-06
1.24839e-06
1.24792e-06
1.24715e-06
1.2488e-06
1.24922e-06
1.25038e-06
1.24898e-06
1.25037e-06
1.24874e-06
1.24947e-06
1.24842e-06
1.24906e-06
1.24917e-06
1.24773e-06
1.24762e-06
)
;

boundaryField
{
    inlet
    {
        type            calculated;
        value           uniform -1.225e-06;
    }
    outlet
    {
        type            calculated;
        value           uniform 1.2493e-06;
    }
    yzfaces
    {
        type            empty;
    }
}


// ************************************************************************* //
