/*--------------------------------*- C++ -*----------------------------------*\
| =========                 |                                                 |
| \\      /  F ield         | foam-extend: Open Source CFD                    |
|  \\    /   O peration     | Version:     5.0                                |
|   \\  /    A nd           | Web:         http://www.foam-extend.org         |
|    \\/     M anipulation  |                                                 |
\*---------------------------------------------------------------------------*/
FoamFile
{
    version     2.0;
    format      ascii;
    class       volVectorField;
    location    "8";
    object      U.gas;
}
// * * * * * * * * * * * * * * * * * * * * * * * * * * * * * * * * * * * * * //

dimensions      [0 1 -1 0 0 0 0];

internalField   nonuniform List<vector> 
100
(
(0.00632474 0 0)
(0.00676622 0 0)
(0.00684634 0 0)
(0.00721952 0 0)
(0.00771197 0 0)
(0.00789999 0 0)
(0.00789682 0 0)
(0.0080024 0 0)
(0.00830185 0 0)
(0.00875579 0 0)
(0.00912287 0 0)
(0.0094419 0 0)
(0.00976879 0 0)
(0.0100949 0 0)
(0.0102381 0 0)
(0.0104559 0 0)
(0.0107082 0 0)
(0.01081 0 0)
(0.0108647 0 0)
(0.0108408 0 0)
(0.0109276 0 0)
(0.010964 0 0)
(0.0110595 0 0)
(0.0111965 0 0)
(0.0113684 0 0)
(0.0114471 0 0)
(0.0115551 0 0)
(0.0116316 0 0)
(0.0117118 0 0)
(0.0117727 0 0)
(0.0118737 0 0)
(0.0119414 0 0)
(0.0120101 0 0)
(0.0120947 0 0)
(0.0121535 0 0)
(0.0122561 0 0)
(0.0123066 0 0)
(0.0123239 0 0)
(0.0123977 0 0)
(0.0124887 0 0)
(0.0125573 0 0)
(0.0126091 0 0)
(0.012654 0 0)
(0.0127087 0 0)
(0.0127353 0 0)
(0.0128043 0 0)
(0.0128358 0 0)
(0.0128325 0 0)
(0.0128837 0 0)
(0.012961 0 0)
(0.0130116 0 0)
(0.0130766 0 0)
(0.0130997 0 0)
(0.0131452 0 0)
(0.0131783 0 0)
(0.0132488 0 0)
(0.0132778 0 0)
(0.0132804 0 0)
(0.0133299 0 0)
(0.0133619 0 0)
(0.0133667 0 0)
(0.0133818 0 0)
(0.0134197 0 0)
(0.0134698 0 0)
(0.0135131 0 0)
(0.0135609 0 0)
(0.0136119 0 0)
(0.0136925 0 0)
(0.0138099 0 0)
(0.013955 0 0)
(0.0142109 0 0)
(0.0147428 0 0)
(0.0130855 0 0)
(0.0116694 0 0)
(0.0109012 0 0)
(0.0105951 0 0)
(0.010497 0 0)
(0.0104721 0 0)
(0.010477 0 0)
(0.0105049 0 0)
(0.0105394 0 0)
(0.0105724 0 0)
(0.0106179 0 0)
(0.0106683 0 0)
(0.0107109 0 0)
(0.0107587 0 0)
(0.0108071 0 0)
(0.0108611 0 0)
(0.0109122 0 0)
(0.010958 0 0)
(0.0109894 0 0)
(0.0110134 0 0)
(0.0110277 0 0)
(0.0110325 0 0)
(0.0110355 0 0)
(0.0110351 0 0)
(0.011035 0 0)
(0.0110233 0 0)
(0.0110075 0 0)
(0.0109997 0 0)
)
;

boundaryField
{
    inlet
    {
        type            fixedValue;
        value           uniform (0.005 0 0);
    }
    outlet
    {
        type            zeroGradient;
    }
    yzfaces
    {
        type            empty;
    }
}


// ************************************************************************* //
