/*--------------------------------*- C++ -*----------------------------------*\
| =========                 |                                                 |
| \\      /  F ield         | foam-extend: Open Source CFD                    |
|  \\    /   O peration     | Version:     5.0                                |
|   \\  /    A nd           | Web:         http://www.foam-extend.org         |
|    \\/     M anipulation  |                                                 |
\*---------------------------------------------------------------------------*/
FoamFile
{
    version     2.0;
    format      ascii;
    class       volVectorField;
    location    "8";
    object      U.water;
}
// * * * * * * * * * * * * * * * * * * * * * * * * * * * * * * * * * * * * * //

dimensions      [0 1 -1 0 0 0 0];

internalField   nonuniform List<vector> 
100
(
(4.7396e-05 0 0)
(0.000106 0 0)
(0.000138554 0 0)
(0.000156667 0 0)
(0.000205089 0 0)
(0.00025627 0 0)
(0.000273928 0 0)
(0.00027397 0 0)
(0.000288967 0 0)
(0.000339737 0 0)
(0.000410371 0 0)
(0.000467668 0 0)
(0.000524452 0 0)
(0.000587083 0 0)
(0.000639828 0 0)
(0.000681289 0 0)
(0.000735977 0 0)
(0.000781448 0 0)
(0.000802376 0 0)
(0.000816813 0 0)
(0.000829508 0 0)
(0.000851295 0 0)
(0.000870933 0 0)
(0.000899602 0 0)
(0.000938513 0 0)
(0.000976395 0 0)
(0.00100697 0 0)
(0.00104019 0 0)
(0.00107033 0 0)
(0.00109553 0 0)
(0.00111806 0 0)
(0.00114789 0 0)
(0.0011773 0 0)
(0.00120807 0 0)
(0.00123711 0 0)
(0.00126524 0 0)
(0.00129643 0 0)
(0.00131719 0 0)
(0.00133545 0 0)
(0.00136549 0 0)
(0.00140194 0 0)
(0.00143307 0 0)
(0.00146044 0 0)
(0.00148531 0 0)
(0.00150877 0 0)
(0.00153651 0 0)
(0.00156708 0 0)
(0.0015917 0 0)
(0.00161642 0 0)
(0.00164665 0 0)
(0.00167875 0 0)
(0.00171657 0 0)
(0.00175154 0 0)
(0.00178019 0 0)
(0.00181087 0 0)
(0.00184145 0 0)
(0.00187196 0 0)
(0.00189707 0 0)
(0.00192906 0 0)
(0.00196361 0 0)
(0.00198887 0 0)
(0.00201567 0 0)
(0.00205275 0 0)
(0.00209173 0 0)
(0.00213371 0 0)
(0.00218216 0 0)
(0.00223538 0 0)
(0.00229743 0 0)
(0.00238833 0 0)
(0.00253013 0 0)
(0.00276674 0 0)
(0.00324691 0 0)
(0.00383395 0 0)
(0.00415726 0 0)
(0.00430413 0 0)
(0.00436346 0 0)
(0.00438308 0 0)
(0.0043832 0 0)
(0.00437543 0 0)
(0.00436892 0 0)
(0.00436133 0 0)
(0.00434606 0 0)
(0.00433041 0 0)
(0.00431493 0 0)
(0.00429636 0 0)
(0.00427855 0 0)
(0.00426219 0 0)
(0.00425096 0 0)
(0.00424344 0 0)
(0.00423637 0 0)
(0.00422815 0 0)
(0.00422253 0 0)
(0.0042186 0 0)
(0.00421528 0 0)
(0.00421436 0 0)
(0.00421413 0 0)
(0.00421681 0 0)
(0.00421681 0 0)
(0.00421728 0 0)
(0.00422403 0 0)
)
;

boundaryField
{
    inlet
    {
        type            fixedValue;
        value           uniform (0 0 0);
    }
    outlet
    {
        type            zeroGradient;
    }
    yzfaces
    {
        type            empty;
    }
}


// ************************************************************************* //
