/*--------------------------------*- C++ -*----------------------------------*\
| =========                 |                                                 |
| \\      /  F ield         | foam-extend: Open Source CFD                    |
|  \\    /   O peration     | Version:     5.0                                |
|   \\  /    A nd           | Web:         http://www.foam-extend.org         |
|    \\/     M anipulation  |                                                 |
\*---------------------------------------------------------------------------*/
FoamFile
{
    version     2.0;
    format      ascii;
    class       volScalarField;
    location    "7";
    object      alpha.gas;
}
// * * * * * * * * * * * * * * * * * * * * * * * * * * * * * * * * * * * * * //

dimensions      [0 0 0 0 0 0 0];

internalField   nonuniform List<scalar> 
100
(
0.162815
0.150404
0.140795
0.135121
0.132701
0.128268
0.12338
0.118206
0.114126
0.110961
0.107731
0.104497
0.101999
0.0994121
0.097517
0.0956402
0.0934997
0.0918463
0.0901873
0.0887664
0.0874786
0.0869908
0.086466
0.0854909
0.0843433
0.0832078
0.0819626
0.080606
0.0794333
0.0782878
0.0771871
0.0763274
0.075589
0.0748808
0.0740956
0.0734718
0.072547
0.071789
0.0710541
0.0704016
0.0698217
0.0692559
0.0685519
0.0678775
0.0672187
0.0665898
0.0660601
0.0653921
0.0648449
0.0643121
0.0637025
0.0630752
0.0625292
0.0620005
0.061462
0.0609774
0.060458
0.05999
0.0594693
0.0590151
0.0584943
0.058054
0.0576028
0.0570667
0.0566237
0.0561312
0.0556992
0.0553295
0.0549053
0.0545357
0.0541038
0.053722
0.0533617
0.0529796
0.0525644
0.0521362
0.0517476
0.0513509
0.0508987
0.0504293
0.0499914
0.0495696
0.0491001
0.0486182
0.0481322
0.0475809
0.0470853
0.0465873
0.0460646
0.0455821
0.0451153
0.0446107
0.0441045
0.0436226
0.0431071
0.0426288
0.0421242
0.0416117
0.0411254
0.0405958
)
;

boundaryField
{
    inlet
    {
        type            fixedValue;
        value           uniform 0.2;
    }
    outlet
    {
        type            zeroGradient;
    }
    yzfaces
    {
        type            empty;
    }
}


// ************************************************************************* //
