/*--------------------------------*- C++ -*----------------------------------*\
| =========                 |                                                 |
| \\      /  F ield         | foam-extend: Open Source CFD                    |
|  \\    /   O peration     | Version:     5.0                                |
|   \\  /    A nd           | Web:         http://www.foam-extend.org         |
|    \\/     M anipulation  |                                                 |
\*---------------------------------------------------------------------------*/
FoamFile
{
    version     2.0;
    format      ascii;
    class       volScalarField;
    location    "7";
    object      alpha.gas;
}
// * * * * * * * * * * * * * * * * * * * * * * * * * * * * * * * * * * * * * //

dimensions      [0 0 0 0 0 0 0];

internalField   nonuniform List<scalar> 
100
(
0.162787
0.150426
0.140329
0.134893
0.132461
0.127665
0.122795
0.118202
0.114122
0.110939
0.107863
0.104994
0.102373
0.0998916
0.0974757
0.0957324
0.0938458
0.0920893
0.0906166
0.0888844
0.0875335
0.0869815
0.0863603
0.0853482
0.0842459
0.0833025
0.0820652
0.0806006
0.0796935
0.0786378
0.077514
0.076538
0.0758437
0.0750206
0.0744044
0.0735308
0.0728204
0.0720362
0.071254
0.0706604
0.0699388
0.0693903
0.0688433
0.0681199
0.067526
0.066808
0.0660746
0.0655889
0.0649161
0.0642453
0.063669
0.0631033
0.0625653
0.0621042
0.0615882
0.0610632
0.0606034
0.0600568
0.0595036
0.0590016
0.058536
0.058105
0.0576336
0.0570997
0.0566545
0.0561827
0.0557169
0.0553499
0.0550235
0.0546857
0.0542541
0.0537791
0.0533875
0.0529607
0.0525662
0.05215
0.051771
0.051355
0.0509196
0.0504949
0.0499884
0.0495858
0.0490999
0.0486242
0.0481488
0.0477121
0.047182
0.0466505
0.0461455
0.0456629
0.0451955
0.0447161
0.0442563
0.043785
0.0433006
0.0428235
0.0423207
0.0418354
0.0413244
0.0408557
)
;

boundaryField
{
    inlet
    {
        type            fixedValue;
        value           uniform 0.2;
    }
    outlet
    {
        type            zeroGradient;
    }
    yzfaces
    {
        type            empty;
    }
}


// ************************************************************************* //
