/*--------------------------------*- C++ -*----------------------------------*\
| =========                 |                                                 |
| \\      /  F ield         | foam-extend: Open Source CFD                    |
|  \\    /   O peration     | Version:     5.0                                |
|   \\  /    A nd           | Web:         http://www.foam-extend.org         |
|    \\/     M anipulation  |                                                 |
\*---------------------------------------------------------------------------*/
FoamFile
{
    version     2.0;
    format      ascii;
    class       volScalarField;
    location    "7";
    object      CO2.water;
}
// * * * * * * * * * * * * * * * * * * * * * * * * * * * * * * * * * * * * * //

dimensions      [0 0 0 0 0 0 0];

internalField   nonuniform List<scalar> 
100
(
0.000977373
0.00130203
0.00156723
0.00171001
0.00177388
0.00189986
0.00202776
0.00214839
0.00225554
0.00233916
0.00241994
0.0024953
0.00256412
0.0026293
0.00269275
0.00273854
0.00278809
0.00283422
0.00287291
0.0029184
0.00295388
0.00296838
0.00298469
0.00301128
0.00304023
0.00306501
0.0030975
0.00313597
0.00315979
0.00318752
0.00321704
0.00324267
0.00326091
0.00328253
0.00329871
0.00332165
0.00334031
0.00336091
0.00338145
0.00339705
0.003416
0.0034304
0.00344477
0.00346377
0.00347937
0.00349823
0.00351749
0.00353025
0.00354792
0.00356554
0.00358067
0.00359553
0.00360966
0.00362177
0.00363532
0.00364911
0.00366119
0.00367554
0.00369007
0.00370326
0.00371549
0.00372681
0.00373919
0.00375321
0.0037649
0.00377729
0.00378953
0.00379917
0.00380774
0.00381661
0.00382795
0.00384042
0.00385071
0.00386192
0.00387228
0.00388321
0.00389317
0.00390409
0.00391553
0.00392668
0.00393999
0.00395056
0.00396332
0.00397582
0.0039883
0.00399977
0.0040137
0.00402765
0.00404092
0.00405359
0.00406587
0.00407846
0.00409054
0.00410292
0.00411564
0.00412817
0.00414137
0.00415412
0.00416754
0.00417985
)
;

boundaryField
{
    inlet
    {
        type            fixedValue;
        value           uniform 0;
    }
    outlet
    {
        type            zeroGradient;
    }
    yzfaces
    {
        type            empty;
    }
}


// ************************************************************************* //
