/*--------------------------------*- C++ -*----------------------------------*\
| =========                 |                                                 |
| \\      /  F ield         | foam-extend: Open Source CFD                    |
|  \\    /   O peration     | Version:     5.0                                |
|   \\  /    A nd           | Web:         http://www.foam-extend.org         |
|    \\/     M anipulation  |                                                 |
\*---------------------------------------------------------------------------*/
FoamFile
{
    version     2.0;
    format      ascii;
    class       volScalarField;
    location    "7";
    object      CO2.gas;
}
// * * * * * * * * * * * * * * * * * * * * * * * * * * * * * * * * * * * * * //

dimensions      [0 0 0 0 0 0 0];

internalField   nonuniform List<scalar> 
100
(
0.162497
0.150111
0.14052
0.134858
0.132443
0.128019
0.123139
0.117976
0.113903
0.110745
0.107521
0.104293
0.101801
0.0992185
0.0973271
0.095454
0.0933177
0.0916674
0.0900117
0.0885935
0.0873082
0.0868214
0.0862976
0.0853244
0.084179
0.0830458
0.081803
0.080449
0.0792786
0.0781354
0.0770368
0.0761787
0.0754418
0.0747349
0.0739513
0.0733287
0.0724057
0.0716492
0.0709157
0.0702645
0.0696858
0.069121
0.0684184
0.0677453
0.0670878
0.0664601
0.0659314
0.0652648
0.0647186
0.0641869
0.0635784
0.0629523
0.0624074
0.0618798
0.0613424
0.0608587
0.0603403
0.0598732
0.0593535
0.0589002
0.0583803
0.057941
0.0574906
0.0569556
0.0565134
0.0560219
0.0555908
0.0552218
0.0547984
0.0544295
0.0539984
0.0536174
0.0532578
0.0528764
0.052462
0.0520346
0.0516468
0.0512509
0.0507996
0.0503311
0.049894
0.0494731
0.0490045
0.0485235
0.0480384
0.0474883
0.0469936
0.0464966
0.0459749
0.0454933
0.0450275
0.0414315
0.0384402
0.035706
0.0330483
0.0304936
0.0279985
0.0255716
0.0232564
0.020997
)
;

boundaryField
{
    inlet
    {
        type            fixedValue;
        value           uniform 0.2;
    }
    outlet
    {
        type            zeroGradient;
    }
    yzfaces
    {
        type            empty;
    }
}


// ************************************************************************* //
