/*--------------------------------*- C++ -*----------------------------------*\
| =========                 |                                                 |
| \\      /  F ield         | foam-extend: Open Source CFD                    |
|  \\    /   O peration     | Version:     5.0                                |
|   \\  /    A nd           | Web:         http://www.foam-extend.org         |
|    \\/     M anipulation  |                                                 |
\*---------------------------------------------------------------------------*/
FoamFile
{
    version     2.0;
    format      ascii;
    class       volScalarField;
    location    "7";
    object      H2O.gas;
}
// * * * * * * * * * * * * * * * * * * * * * * * * * * * * * * * * * * * * * //

dimensions      [0 0 0 0 0 0 0];

internalField   nonuniform List<scalar> 
100
(
0.000317024
0.000292951
0.000273287
0.0002627
0.000257964
0.000248623
0.000239139
0.000230195
0.00022225
0.00021605
0.00021006
0.000204472
0.000199369
0.000194536
0.000189831
0.000186436
0.000182762
0.000179341
0.000176473
0.0001731
0.000170469
0.000169394
0.000168184
0.000166213
0.000164067
0.000162229
0.00015982
0.000156967
0.000155201
0.000153145
0.000150956
0.000149056
0.000147703
0.000146101
0.0001449
0.000143199
0.000141816
0.000140288
0.000138765
0.000137609
0.000136204
0.000135136
0.00013407
0.000132661
0.000131505
0.000130107
0.000128678
0.000127732
0.000126422
0.000125116
0.000123993
0.000122892
0.000121844
0.000120946
0.000119941
0.000118919
0.000118023
0.000116959
0.000115882
0.000114904
0.000113997
0.000113158
0.00011224
0.0001112
0.000110333
0.000109414
0.000108507
0.000107792
0.000107157
0.000106499
0.000105658
0.000104733
0.000103971
0.000103139
0.000102371
0.000101561
0.000100822
0.000100012
9.91644e-05
9.83374e-05
9.7351e-05
9.6567e-05
9.56206e-05
9.46942e-05
9.37684e-05
9.2918e-05
9.18855e-05
9.08506e-05
8.9867e-05
8.89271e-05
8.80169e-05
8.70833e-05
8.61878e-05
8.527e-05
8.43266e-05
8.33976e-05
8.24184e-05
8.14733e-05
8.04781e-05
7.95652e-05
)
;

boundaryField
{
    inlet
    {
        type            fixedValue;
        value           uniform 0;
    }
    outlet
    {
        type            zeroGradient;
    }
    yzfaces
    {
        type            empty;
    }
}


// ************************************************************************* //
