/*--------------------------------*- C++ -*----------------------------------*\
| =========                 |                                                 |
| \\      /  F ield         | foam-extend: Open Source CFD                    |
|  \\    /   O peration     | Version:     5.0                                |
|   \\  /    A nd           | Web:         http://www.foam-extend.org         |
|    \\/     M anipulation  |                                                 |
\*---------------------------------------------------------------------------*/
FoamFile
{
    version     2.0;
    format      ascii;
    class       volScalarField;
    location    "7";
    object      H2O.water;
}
// * * * * * * * * * * * * * * * * * * * * * * * * * * * * * * * * * * * * * //

dimensions      [0 0 0 0 0 0 0];

internalField   nonuniform List<scalar> 
100
(
0.0276887
0.0368861
0.0443991
0.0484441
0.0502537
0.0538224
0.0574461
0.0608634
0.0638989
0.0662677
0.0685564
0.0706911
0.0726409
0.0744874
0.0762851
0.0775822
0.0789859
0.0802929
0.0813887
0.0826775
0.0836827
0.0840935
0.0845556
0.0853087
0.0861289
0.0868309
0.0877515
0.0888413
0.0895162
0.0903017
0.0911379
0.0918641
0.0923807
0.0929931
0.0934517
0.0941017
0.0946302
0.0952138
0.0957957
0.0962375
0.0967743
0.0971825
0.0975895
0.0981278
0.0985696
0.0991039
0.0996496
0.100011
0.100512
0.101011
0.10144
0.10186
0.102261
0.102604
0.102988
0.103378
0.10372
0.104127
0.104539
0.104912
0.105259
0.105579
0.10593
0.106328
0.106659
0.10701
0.107356
0.107629
0.107872
0.108124
0.108445
0.108798
0.10909
0.109407
0.109701
0.11001
0.110292
0.110602
0.110926
0.111242
0.111619
0.111918
0.11228
0.112634
0.112988
0.113312
0.113707
0.114102
0.114478
0.114837
0.115185
0.115542
0.115884
0.116235
0.116595
0.11695
0.117324
0.117685
0.118065
0.118414
)
;

boundaryField
{
    inlet
    {
        type            fixedValue;
        value           uniform 0;
    }
    outlet
    {
        type            zeroGradient;
    }
    yzfaces
    {
        type            empty;
    }
}


// ************************************************************************* //
