/*--------------------------------*- C++ -*----------------------------------*\
| =========                 |                                                 |
| \\      /  F ield         | foam-extend: Open Source CFD                    |
|  \\    /   O peration     | Version:     5.0                                |
|   \\  /    A nd           | Web:         http://www.foam-extend.org         |
|    \\/     M anipulation  |                                                 |
\*---------------------------------------------------------------------------*/
FoamFile
{
    version     2.0;
    format      ascii;
    class       volScalarField;
    location    "7";
    object      H2O.gas;
}
// * * * * * * * * * * * * * * * * * * * * * * * * * * * * * * * * * * * * * //

dimensions      [0 0 0 0 0 0 0];

internalField   nonuniform List<scalar> 
100
(
0.000317077
0.000292907
0.000274194
0.000263145
0.000258431
0.000249799
0.000240278
0.000230202
0.000222257
0.000216093
0.000209802
0.000203505
0.000198641
0.000193602
0.000189912
0.000186257
0.000182088
0.000178868
0.000175637
0.00017287
0.000170362
0.000169412
0.00016839
0.000166491
0.000164256
0.000162045
0.00015962
0.000156978
0.000154694
0.000152463
0.00015032
0.000148645
0.000147207
0.000145828
0.000144299
0.000143084
0.000141283
0.000139807
0.000138376
0.000137105
0.000135976
0.000134874
0.000133503
0.000132189
0.000130906
0.000129682
0.00012865
0.000127349
0.000126283
0.000125246
0.000124059
0.000122837
0.000121774
0.000120744
0.000119696
0.000118752
0.00011774
0.000116829
0.000115815
0.00011493
0.000113916
0.000113059
0.00011218
0.000111136
0.000110273
0.000109314
0.000108473
0.000107753
0.000106927
0.000106207
0.000105366
0.000104622
0.00010392
0.000103176
0.000102368
0.000101534
0.000100777
0.000100004
9.91237e-05
9.82096e-05
9.73568e-05
9.65353e-05
9.5621e-05
9.46826e-05
9.3736e-05
9.26625e-05
9.16973e-05
9.07274e-05
8.97095e-05
8.87698e-05
8.78608e-05
0.00317955
0.00566128
0.00791752
0.0100544
0.0121269
0.0141163
0.0160309
0.0178657
0.0195791
)
;

boundaryField
{
    inlet
    {
        type            fixedValue;
        value           uniform 0;
    }
    outlet
    {
        type            zeroGradient;
    }
    yzfaces
    {
        type            empty;
    }
}


// ************************************************************************* //
