/*--------------------------------*- C++ -*----------------------------------*\
| =========                 |                                                 |
| \\      /  F ield         | foam-extend: Open Source CFD                    |
|  \\    /   O peration     | Version:     5.0                                |
|   \\  /    A nd           | Web:         http://www.foam-extend.org         |
|    \\/     M anipulation  |                                                 |
\*---------------------------------------------------------------------------*/
FoamFile
{
    version     2.0;
    format      ascii;
    class       volScalarField;
    location    "7";
    object      Ns;
}
// * * * * * * * * * * * * * * * * * * * * * * * * * * * * * * * * * * * * * //

dimensions      [0 -3 0 0 1 0 0];

internalField   nonuniform List<scalar> 
100
(
45.3804
111.199
102.215
186.175
283.137
199.227
171.905
164.644
85.09
120.015
129.106
62.2233
80.975
109.027
91.185
103.139
69.0809
83.2324
106.336
99.1223
112.465
116.582
99.2561
122.134
99.9828
139.821
81.413
115.031
110.553
134.021
97.9172
120.454
120.996
126.415
112.221
113.73
104.616
105.246
112.514
123.139
145.701
112.543
125.749
116.863
101.621
114.933
109.876
120.021
117.341
133.669
126.34
117.648
106.392
118.718
129.431
137.65
113.352
133.571
102.705
112.756
102.863
118.126
110.314
123.062
110.485
127.075
121.486
126.976
125.457
133.66
123.027
115.67
131.15
122.355
110.96
117.94
122.956
131.344
118.242
116.445
123.069
120.98
111.842
113.732
110.296
112.645
121.116
111.651
114.831
113.438
109.595
170.594
167.631
171.254
174.189
169.915
171.704
173.148
163.74
175.151
)
;

boundaryField
{
    inlet
    {
        type            fixedValue;
        value           uniform 0;
    }
    outlet
    {
        type            zeroGradient;
    }
    yzfaces
    {
        type            empty;
    }
}


// ************************************************************************* //
