/*--------------------------------*- C++ -*----------------------------------*\
| =========                 |                                                 |
| \\      /  F ield         | foam-extend: Open Source CFD                    |
|  \\    /   O peration     | Version:     5.0                                |
|   \\  /    A nd           | Web:         http://www.foam-extend.org         |
|    \\/     M anipulation  |                                                 |
\*---------------------------------------------------------------------------*/
FoamFile
{
    version     2.0;
    format      ascii;
    class       volScalarField;
    location    "10";
    object      alpha.gas;
}
// * * * * * * * * * * * * * * * * * * * * * * * * * * * * * * * * * * * * * //

dimensions      [0 0 0 0 0 0 0];

internalField   nonuniform List<scalar> 
100
(
0.169966
0.157935
0.149407
0.142913
0.137268
0.132588
0.127906
0.123522
0.120172
0.117518
0.115293
0.113479
0.111464
0.109961
0.108851
0.107286
0.105852
0.103891
0.101718
0.100204
0.0988361
0.0975866
0.0955093
0.0929325
0.0910049
0.0896441
0.0882517
0.0865887
0.0851963
0.0841234
0.083346
0.0827543
0.0823956
0.0822848
0.0824809
0.0827215
0.0828019
0.0827736
0.0824916
0.0825077
0.0825024
0.0822481
0.0822563
0.082127
0.0817565
0.0812427
0.0808482
0.0806512
0.08016
0.0793354
0.0781729
0.0770877
0.0760986
0.0751392
0.0741642
0.0731937
0.0721659
0.0711549
0.07041
0.0696977
0.0690629
0.0684072
0.0676945
0.067013
0.0664412
0.0658079
0.065152
0.0644359
0.063832
0.0631235
0.0626411
0.0623815
0.0622165
0.0619512
0.0616949
0.0614621
0.0612002
0.0609897
0.0605839
0.0600794
0.0595894
0.0590654
0.0585799
0.0581457
0.0576579
0.0572067
0.0566684
0.0560999
0.0555713
0.055051
0.0544718
0.0538339
0.0532203
0.0525992
0.0518415
0.0509348
0.0498454
0.04858
0.0465541
0.0437666
)
;

boundaryField
{
    inlet
    {
        type            fixedValue;
        value           uniform 0.2;
    }
    outlet
    {
        type            zeroGradient;
    }
    yzfaces
    {
        type            empty;
    }
}


// ************************************************************************* //
