/*--------------------------------*- C++ -*----------------------------------*\
| =========                 |                                                 |
| \\      /  F ield         | foam-extend: Open Source CFD                    |
|  \\    /   O peration     | Version:     5.0                                |
|   \\  /    A nd           | Web:         http://www.foam-extend.org         |
|    \\/     M anipulation  |                                                 |
\*---------------------------------------------------------------------------*/
FoamFile
{
    version     2.0;
    format      ascii;
    class       volScalarField;
    location    "10";
    object      Cl.water;
}
// * * * * * * * * * * * * * * * * * * * * * * * * * * * * * * * * * * * * * //

dimensions      [0 0 0 0 0 0 0];

internalField   nonuniform List<scalar> 
100
(
7.3612e-16
0.00115639
0.00255288
0.00351985
0.00404003
0.00435782
0.00472553
0.00522082
0.00570699
0.0060738
0.0063273
0.00651374
0.0066758
0.00678549
0.00684429
0.00690848
0.00700276
0.00711083
0.00723754
0.00736367
0.00745093
0.00752633
0.00762076
0.00776812
0.00792532
0.00805199
0.00815283
0.00828827
0.00847195
0.0086649
0.00887236
0.00908099
0.0092661
0.00936825
0.00941726
0.00937508
0.00929841
0.00920859
0.00915667
0.00910071
0.00903796
0.008978
0.00894891
0.00890926
0.00891574
0.00895241
0.00906156
0.00919354
0.00932562
0.00945374
0.00955901
0.00962992
0.00965297
0.00965699
0.00968665
0.00978175
0.00992116
0.0100776
0.0102114
0.0103448
0.0104941
0.0106295
0.0107126
0.0107814
0.010847
0.0109352
0.0110042
0.0110253
0.0109906
0.0108959
0.0107339
0.0105461
0.0104133
0.0102918
0.0101593
0.0100949
0.010121
0.0101195
0.0100328
0.0100853
0.0104886
0.0109918
0.0111628
0.0110548
0.011135
0.0110563
0.0106059
0.010357
0.0108403
0.0107202
0.010131
0.0102677
0.0115085
0.0133143
0.0114828
0.0103265
0.0116271
0.0139914
0.00813625
0.0100417
)
;

boundaryField
{
    inlet
    {
        type            fixedValue;
        value           uniform 0;
    }
    outlet
    {
        type            zeroGradient;
    }
    yzfaces
    {
        type            empty;
    }
}


// ************************************************************************* //
