/*--------------------------------*- C++ -*----------------------------------*\
| =========                 |                                                 |
| \\      /  F ield         | foam-extend: Open Source CFD                    |
|  \\    /   O peration     | Version:     5.0                                |
|   \\  /    A nd           | Web:         http://www.foam-extend.org         |
|    \\/     M anipulation  |                                                 |
\*---------------------------------------------------------------------------*/
FoamFile
{
    version     2.0;
    format      ascii;
    class       volScalarField;
    location    "10";
    object      CO2.water;
}
// * * * * * * * * * * * * * * * * * * * * * * * * * * * * * * * * * * * * * //

dimensions      [0 0 0 0 0 0 0];

internalField   nonuniform List<scalar> 
100
(
0.000791001
0.000850736
0.000769682
0.000732078
0.000758121
0.000800416
0.000819859
0.00082353
0.00082396
0.00083389
0.000853046
0.000871275
0.00088806
0.000904418
0.000920758
0.000938281
0.000953991
0.000968794
0.000986185
0.00100407
0.00101604
0.00102763
0.00104415
0.00106965
0.00109645
0.00111818
0.00113536
0.00115443
0.00117238
0.00117499
0.00116349
0.00114492
0.0011265
0.00111281
0.00111213
0.00112029
0.00113833
0.00115925
0.00118414
0.00120554
0.00122104
0.00123061
0.00123884
0.00124253
0.00124803
0.00124477
0.00123094
0.00120609
0.0011809
0.00116332
0.00115686
0.00116232
0.00117792
0.001197
0.00120723
0.00120512
0.00119338
0.00118335
0.00117606
0.00116398
0.00114782
0.00113521
0.00113325
0.00114006
0.00114104
0.00113745
0.00114088
0.00115812
0.00118571
0.00122574
0.00128074
0.00133238
0.00136795
0.0013957
0.00142831
0.00144505
0.00144375
0.00145258
0.00147458
0.00147381
0.00139436
0.00130006
0.00128032
0.00131635
0.0013118
0.00134253
0.00145023
0.00152134
0.00143374
0.00147464
0.00161741
0.00160599
0.0013589
0.00098653
0.00140009
0.00167331
0.00141889
0.000939118
0.00226162
0.00192098
)
;

boundaryField
{
    inlet
    {
        type            fixedValue;
        value           uniform 0;
    }
    outlet
    {
        type            zeroGradient;
    }
    yzfaces
    {
        type            empty;
    }
}


// ************************************************************************* //
