/*--------------------------------*- C++ -*----------------------------------*\
| =========                 |                                                 |
| \\      /  F ield         | foam-extend: Open Source CFD                    |
|  \\    /   O peration     | Version:     5.0                                |
|   \\  /    A nd           | Web:         http://www.foam-extend.org         |
|    \\/     M anipulation  |                                                 |
\*---------------------------------------------------------------------------*/
FoamFile
{
    version     2.0;
    format      ascii;
    class       volScalarField;
    location    "10";
    object      CO2.gas;
}
// * * * * * * * * * * * * * * * * * * * * * * * * * * * * * * * * * * * * * //

dimensions      [0 0 0 0 0 0 0];

internalField   nonuniform List<scalar> 
100
(
0.170421
0.157386
0.148773
0.142488
0.136141
0.130771
0.124693
0.120316
0.118198
0.116742
0.11536
0.114122
0.111975
0.110507
0.109313
0.107353
0.10581
0.103336
0.100765
0.0994841
0.0979461
0.0965613
0.093886
0.0910869
0.0895671
0.0886849
0.0874013
0.08588
0.0850946
0.0844655
0.0840459
0.0837366
0.0836874
0.0837378
0.0843222
0.0847154
0.0848908
0.0849
0.084778
0.0850389
0.0850415
0.0845358
0.0846116
0.0842429
0.0837929
0.0830073
0.0825882
0.0823479
0.081617
0.0804704
0.0789364
0.0776849
0.0765468
0.0754734
0.0742774
0.0731489
0.0719292
0.070845
0.0701682
0.0694049
0.0687843
0.0681289
0.0673544
0.0667269
0.0661742
0.0655061
0.0648619
0.0641854
0.0636687
0.0630034
0.0626527
0.0624681
0.0623412
0.0619812
0.0616658
0.0613738
0.0610684
0.0608991
0.0603804
0.0598481
0.0592981
0.058798
0.0583899
0.0579702
0.0574766
0.0570496
0.0564358
0.0558936
0.0554183
0.0549332
0.0543646
0.0537444
0.053188
0.0525873
0.0517908
0.0508372
0.049724
0.0484318
0.0463948
0.0435818
)
;

boundaryField
{
    inlet
    {
        type            fixedValue;
        value           uniform 0.2;
    }
    outlet
    {
        type            zeroGradient;
    }
    yzfaces
    {
        type            empty;
    }
}


// ************************************************************************* //
