/*--------------------------------*- C++ -*----------------------------------*\
| =========                 |                                                 |
| \\      /  F ield         | foam-extend: Open Source CFD                    |
|  \\    /   O peration     | Version:     5.0                                |
|   \\  /    A nd           | Web:         http://www.foam-extend.org         |
|    \\/     M anipulation  |                                                 |
\*---------------------------------------------------------------------------*/
FoamFile
{
    version     2.0;
    format      ascii;
    class       volScalarField;
    location    "10";
    object      Na.water;
}
// * * * * * * * * * * * * * * * * * * * * * * * * * * * * * * * * * * * * * //

dimensions      [0 0 0 0 0 0 0];

internalField   nonuniform List<scalar> 
100
(
7.36041e-16
0.00115606
0.00255217
0.00351764
0.00403887
0.00435561
0.00472482
0.00522315
0.00570739
0.00607055
0.00632121
0.00650829
0.00667429
0.00679031
0.00684846
0.00691705
0.00700834
0.00711796
0.00724395
0.00736937
0.00745487
0.00753093
0.00762439
0.00777197
0.00792815
0.00805282
0.00815672
0.00828923
0.00847364
0.00866668
0.00887249
0.00908041
0.00926045
0.00936464
0.00941631
0.00937575
0.00929872
0.00921236
0.00915785
0.00909811
0.00903553
0.00897972
0.00895165
0.00890536
0.00890952
0.00894818
0.00905522
0.00918298
0.0093177
0.00944306
0.00955533
0.00963007
0.00965574
0.0096569
0.00968367
0.00978256
0.0099184
0.0100669
0.0102074
0.0103446
0.0104891
0.0106211
0.0107022
0.0107704
0.0108319
0.01092
0.0109867
0.0110099
0.0109851
0.010893
0.0107307
0.0105457
0.0104092
0.0102878
0.0101529
0.0100907
0.010117
0.0101092
0.0100268
0.0100804
0.0104837
0.0109904
0.0111613
0.0110554
0.0111368
0.0110565
0.0106112
0.0103572
0.0108388
0.0107208
0.0101314
0.0102627
0.0115008
0.0133009
0.0114724
0.0103174
0.0116103
0.0139723
0.00812577
0.0100301
)
;

boundaryField
{
    inlet
    {
        type            fixedValue;
        value           uniform 0;
    }
    outlet
    {
        type            zeroGradient;
    }
    yzfaces
    {
        type            empty;
    }
}


// ************************************************************************* //
