/*--------------------------------*- C++ -*----------------------------------*\
| =========                 |                                                 |
| \\      /  F ield         | foam-extend: Open Source CFD                    |
|  \\    /   O peration     | Version:     5.0                                |
|   \\  /    A nd           | Web:         http://www.foam-extend.org         |
|    \\/     M anipulation  |                                                 |
\*---------------------------------------------------------------------------*/
FoamFile
{
    version     2.0;
    format      ascii;
    class       surfaceScalarField;
    location    "10";
    object      phi;
}
// * * * * * * * * * * * * * * * * * * * * * * * * * * * * * * * * * * * * * //

dimensions      [0 3 -1 0 0 0 0];

internalField   nonuniform List<scalar> 
99
(
1.22353e-06
1.21598e-06
1.23098e-06
1.22954e-06
1.21845e-06
1.21311e-06
1.20352e-06
1.20858e-06
1.20371e-06
1.21416e-06
1.22666e-06
1.21494e-06
1.21591e-06
1.20623e-06
1.2098e-06
1.21616e-06
1.21294e-06
1.21663e-06
1.21218e-06
1.21655e-06
1.21711e-06
1.21241e-06
1.20925e-06
1.20851e-06
1.20391e-06
1.20226e-06
1.20214e-06
1.20222e-06
1.21e-06
1.21618e-06
1.21263e-06
1.21223e-06
1.21982e-06
1.22318e-06
1.22718e-06
1.22433e-06
1.22827e-06
1.22978e-06
1.22896e-06
1.22455e-06
1.22401e-06
1.21569e-06
1.21368e-06
1.21212e-06
1.21004e-06
1.20933e-06
1.21212e-06
1.20138e-06
1.19913e-06
1.19301e-06
1.19012e-06
1.19224e-06
1.19214e-06
1.1845e-06
1.1806e-06
1.17979e-06
1.17618e-06
1.17717e-06
1.17506e-06
1.17774e-06
1.17498e-06
1.17403e-06
1.17429e-06
1.17656e-06
1.17692e-06
1.18065e-06
1.17801e-06
1.18265e-06
1.18144e-06
1.18192e-06
1.18328e-06
1.1839e-06
1.184e-06
1.18641e-06
1.18478e-06
1.18483e-06
1.18993e-06
1.1892e-06
1.18826e-06
1.18838e-06
1.18662e-06
1.18489e-06
1.18339e-06
1.18271e-06
1.18461e-06
1.18343e-06
1.18072e-06
1.18116e-06
1.18042e-06
1.17605e-06
1.1754e-06
1.17883e-06
1.18007e-06
1.17636e-06
1.17552e-06
1.17428e-06
1.17412e-06
1.17339e-06
1.17268e-06
)
;

boundaryField
{
    inlet
    {
        type            calculated;
        value           uniform -1.225e-06;
    }
    outlet
    {
        type            calculated;
        value           uniform 1.17452e-06;
    }
    yzfaces
    {
        type            empty;
    }
}


// ************************************************************************* //
