/*--------------------------------*- C++ -*----------------------------------*\
| =========                 |                                                 |
| \\      /  F ield         | foam-extend: Open Source CFD                    |
|  \\    /   O peration     | Version:     5.0                                |
|   \\  /    A nd           | Web:         http://www.foam-extend.org         |
|    \\/     M anipulation  |                                                 |
\*---------------------------------------------------------------------------*/
FoamFile
{
    version     2.0;
    format      ascii;
    class       surfaceScalarField;
    location    "10";
    object      phi.water;
}
// * * * * * * * * * * * * * * * * * * * * * * * * * * * * * * * * * * * * * //

dimensions      [0 3 -1 0 0 0 0];

internalField   nonuniform List<scalar> 
99
(
6.01636e-08
1.05758e-07
1.48047e-07
1.85543e-07
2.21935e-07
2.5719e-07
2.94762e-07
3.36962e-07
3.66272e-07
3.9736e-07
4.24825e-07
4.41732e-07
4.6821e-07
4.86596e-07
5.02121e-07
5.29564e-07
5.50073e-07
5.8528e-07
6.22766e-07
6.51189e-07
6.78136e-07
6.99913e-07
7.40896e-07
7.98038e-07
8.39148e-07
8.67656e-07
8.99538e-07
9.405e-07
9.79228e-07
1.01056e-06
1.02765e-06
1.04309e-06
1.05768e-06
1.06157e-06
1.0561e-06
1.04516e-06
1.04516e-06
1.04331e-06
1.04949e-06
1.04316e-06
1.04452e-06
1.04877e-06
1.04668e-06
1.04935e-06
1.06002e-06
1.07725e-06
1.09309e-06
1.09136e-06
1.10576e-06
1.1291e-06
1.16963e-06
1.2114e-06
1.24794e-06
1.27794e-06
1.3135e-06
1.35306e-06
1.39268e-06
1.43634e-06
1.46561e-06
1.5008e-06
1.52438e-06
1.55281e-06
1.58555e-06
1.62238e-06
1.64899e-06
1.6851e-06
1.71438e-06
1.75382e-06
1.78301e-06
1.81896e-06
1.8435e-06
1.85834e-06
1.86873e-06
1.88905e-06
1.90211e-06
1.91778e-06
1.94037e-06
1.95319e-06
1.97488e-06
2.00484e-06
2.03179e-06
2.06078e-06
2.08441e-06
2.11017e-06
2.14274e-06
2.17073e-06
2.20052e-06
2.2362e-06
2.26851e-06
2.2922e-06
2.32878e-06
2.37745e-06
2.42112e-06
2.45578e-06
2.5091e-06
2.57101e-06
2.65205e-06
2.74132e-06
2.89288e-06
)
;

boundaryField
{
    inlet
    {
        type            fixedValue;
        value           uniform 0;
    }
    outlet
    {
        type            calculated;
        value           uniform 3.16024e-06;
    }
    yzfaces
    {
        type            empty;
    }
}


// ************************************************************************* //
