/*--------------------------------*- C++ -*----------------------------------*\
| =========                 |                                                 |
| \\      /  F ield         | foam-extend: Open Source CFD                    |
|  \\    /   O peration     | Version:     5.0                                |
|   \\  /    A nd           | Web:         http://www.foam-extend.org         |
|    \\/     M anipulation  |                                                 |
\*---------------------------------------------------------------------------*/
FoamFile
{
    version     2.0;
    format      ascii;
    class       volVectorField;
    location    "10";
    object      U.gas;
}
// * * * * * * * * * * * * * * * * * * * * * * * * * * * * * * * * * * * * * //

dimensions      [0 1 -1 0 0 0 0];

internalField   nonuniform List<vector> 
100
(
(0.0058748 0 0)
(0.00628639 0 0)
(0.0066498 0 0)
(0.00697306 0 0)
(0.0072037 0 0)
(0.00738728 0 0)
(0.00758754 0 0)
(0.00781481 0 0)
(0.00800592 0 0)
(0.00818062 0 0)
(0.00839463 0 0)
(0.00851099 0 0)
(0.00860529 0 0)
(0.00867044 0 0)
(0.00871994 0 0)
(0.00886517 0 0)
(0.00897459 0 0)
(0.0091184 0 0)
(0.00927401 0 0)
(0.00937953 0 0)
(0.00950001 0 0)
(0.0095771 0 0)
(0.00971517 0 0)
(0.00990916 0 0)
(0.0100328 0 0)
(0.0101079 0 0)
(0.0102151 0 0)
(0.0103571 0 0)
(0.010503 0 0)
(0.0106493 0 0)
(0.0107209 0 0)
(0.0107488 0 0)
(0.0108058 0 0)
(0.0108589 0 0)
(0.0108678 0 0)
(0.0108507 0 0)
(0.0108517 0 0)
(0.0108814 0 0)
(0.0109156 0 0)
(0.0108846 0 0)
(0.0108631 0 0)
(0.0108495 0 0)
(0.0107962 0 0)
(0.0107952 0 0)
(0.0108165 0 0)
(0.0108514 0 0)
(0.0108917 0 0)
(0.0108671 0 0)
(0.0108574 0 0)
(0.0108991 0 0)
(0.0109658 0 0)
(0.0110527 0 0)
(0.0111448 0 0)
(0.0111898 0 0)
(0.0112186 0 0)
(0.0112782 0 0)
(0.0113457 0 0)
(0.0114176 0 0)
(0.0114642 0 0)
(0.0115241 0 0)
(0.011573 0 0)
(0.0116097 0 0)
(0.0116672 0 0)
(0.011732 0 0)
(0.0117849 0 0)
(0.0118596 0 0)
(0.0119167 0 0)
(0.0119867 0 0)
(0.012045 0 0)
(0.0121 0 0)
(0.0121349 0 0)
(0.0121516 0 0)
(0.0121598 0 0)
(0.0121975 0 0)
(0.0122202 0 0)
(0.0122266 0 0)
(0.0122733 0 0)
(0.0123061 0 0)
(0.0123382 0 0)
(0.0123783 0 0)
(0.0124028 0 0)
(0.0124194 0 0)
(0.0124312 0 0)
(0.0124447 0 0)
(0.0124858 0 0)
(0.0125139 0 0)
(0.0125311 0 0)
(0.0125552 0 0)
(0.0125794 0 0)
(0.0125794 0 0)
(0.0125883 0 0)
(0.0126397 0 0)
(0.0126906 0 0)
(0.012705 0 0)
(0.0127248 0 0)
(0.0127639 0 0)
(0.0128123 0 0)
(0.0128604 0 0)
(0.0129867 0 0)
(0.0131175 0 0)
)
;

boundaryField
{
    inlet
    {
        type            fixedValue;
        value           uniform (0.005 0 0);
    }
    outlet
    {
        type            zeroGradient;
    }
    yzfaces
    {
        type            empty;
    }
}


// ************************************************************************* //
