/*--------------------------------*- C++ -*----------------------------------*\
| =========                 |                                                 |
| \\      /  F ield         | foam-extend: Open Source CFD                    |
|  \\    /   O peration     | Version:     5.0                                |
|   \\  /    A nd           | Web:         http://www.foam-extend.org         |
|    \\/     M anipulation  |                                                 |
\*---------------------------------------------------------------------------*/
FoamFile
{
    version     2.0;
    format      ascii;
    class       volVectorField;
    location    "10";
    object      U.water;
}
// * * * * * * * * * * * * * * * * * * * * * * * * * * * * * * * * * * * * * //

dimensions      [0 1 -1 0 0 0 0];

internalField   nonuniform List<vector> 
100
(
(2.94479e-05 0 0)
(6.8383e-05 0 0)
(0.00010345 0 0)
(0.000135809 0 0)
(0.000164837 0 0)
(0.000192966 0 0)
(0.000220377 0 0)
(0.000251459 0 0)
(0.000282056 0 0)
(0.0003093 0 0)
(0.00033539 0 0)
(0.000355454 0 0)
(0.00037281 0 0)
(0.000391173 0 0)
(0.000405519 0 0)
(0.000421554 0 0)
(0.000440728 0 0)
(0.000461393 0 0)
(0.000488537 0 0)
(0.00051562 0 0)
(0.000537638 0 0)
(0.000557015 0 0)
(0.000579429 0 0)
(0.000616065 0 0)
(0.000657186 0 0)
(0.00068865 0 0)
(0.000714958 0 0)
(0.000745652 0 0)
(0.000781902 0 0)
(0.00081485 0 0)
(0.000838439 0 0)
(0.000854906 0 0)
(0.000870066 0 0)
(0.000880284 0 0)
(0.000882941 0 0)
(0.000878488 0 0)
(0.000874778 0 0)
(0.000875142 0 0)
(0.000877528 0 0)
(0.000879775 0 0)
(0.000878152 0 0)
(0.000878487 0 0)
(0.000879245 0 0)
(0.000878445 0 0)
(0.000882179 0 0)
(0.000891733 0 0)
(0.000904487 0 0)
(0.000910399 0 0)
(0.000913493 0 0)
(0.000925738 0 0)
(0.000947896 0 0)
(0.000979271 0 0)
(0.00100981 0 0)
(0.00103523 0 0)
(0.00105957 0 0)
(0.00108774 0 0)
(0.00111749 0 0)
(0.00114972 0 0)
(0.00117986 0 0)
(0.00120583 0 0)
(0.0012298 0 0)
(0.00125076 0 0)
(0.00127504 0 0)
(0.00130338 0 0)
(0.00132979 0 0)
(0.00135494 0 0)
(0.0013817 0 0)
(0.00141011 0 0)
(0.00143998 0 0)
(0.00146736 0 0)
(0.00149425 0 0)
(0.00151258 0 0)
(0.00152377 0 0)
(0.00153473 0 0)
(0.00154662 0 0)
(0.00155709 0 0)
(0.00157178 0 0)
(0.00158641 0 0)
(0.00159877 0 0)
(0.0016179 0 0)
(0.00164028 0 0)
(0.00166323 0 0)
(0.00168591 0 0)
(0.00170702 0 0)
(0.00173068 0 0)
(0.00175543 0 0)
(0.00177798 0 0)
(0.00180466 0 0)
(0.00183381 0 0)
(0.001858 0 0)
(0.0018833 0 0)
(0.00191884 0 0)
(0.00195819 0 0)
(0.00199139 0 0)
(0.00202672 0 0)
(0.00207277 0 0)
(0.00213043 0 0)
(0.00220185 0 0)
(0.00230046 0 0)
(0.00245743 0 0)
)
;

boundaryField
{
    inlet
    {
        type            fixedValue;
        value           uniform (0 0 0);
    }
    outlet
    {
        type            zeroGradient;
    }
    yzfaces
    {
        type            empty;
    }
}


// ************************************************************************* //
