/*--------------------------------*- C++ -*----------------------------------*\
| =========                 |                                                 |
| \\      /  F ield         | foam-extend: Open Source CFD                    |
|  \\    /   O peration     | Version:     5.0                                |
|   \\  /    A nd           | Web:         http://www.foam-extend.org         |
|    \\/     M anipulation  |                                                 |
\*---------------------------------------------------------------------------*/
FoamFile
{
    version     2.0;
    format      ascii;
    class       volScalarField;
    location    "5";
    object      CO2.gas;
}
// * * * * * * * * * * * * * * * * * * * * * * * * * * * * * * * * * * * * * //

dimensions      [0 0 0 0 0 0 0];

internalField   nonuniform List<scalar> 
100
(
0.156049
0.141535
0.133384
0.126581
0.120531
0.114927
0.110275
0.105872
0.102635
0.0988722
0.096476
0.0938569
0.0916607
0.0896307
0.0873636
0.0862342
0.0846373
0.0833064
0.0815703
0.0798847
0.0784001
0.0769904
0.0759952
0.0749526
0.0738285
0.0728863
0.0717758
0.0706892
0.0697189
0.0688256
0.0679791
0.0671618
0.0664062
0.0655735
0.064655
0.0637937
0.0629933
0.0622795
0.0615533
0.0606954
0.0600061
0.0592996
0.0585948
0.0579625
0.0572389
0.0565757
0.0559652
0.0553802
0.0548206
0.0542284
0.0537202
0.0530935
0.0524917
0.0518626
0.0512898
0.0507622
0.0501503
0.0495541
0.0488811
0.0482667
0.0476066
0.0469176
0.0462267
0.0456152
0.0448869
0.0442392
0.0381552
0.0350331
0.0320582
0.0291572
0.0263931
0.0237339
0.0212003
0.0188233
0.0165115
0.0143995
0.0124132
0.0105701
0.00889324
0.00737075
0.00600641
0.00481141
0.00376814
0.00287845
0.00213722
0.00153017
0.0010512
0.000684924
0.000419786
0.000239166
0.000124607
5.88774e-05
2.50939e-05
9.65788e-06
3.39143e-06
1.10139e-06
3.30235e-07
9.33829e-08
2.45821e-08
0
)
;

boundaryField
{
    inlet
    {
        type            fixedValue;
        value           uniform 0.2;
    }
    outlet
    {
        type            zeroGradient;
    }
    yzfaces
    {
        type            empty;
    }
}


// ************************************************************************* //
