/*--------------------------------*- C++ -*----------------------------------*\
| =========                 |                                                 |
| \\      /  F ield         | foam-extend: Open Source CFD                    |
|  \\    /   O peration     | Version:     5.0                                |
|   \\  /    A nd           | Web:         http://www.foam-extend.org         |
|    \\/     M anipulation  |                                                 |
\*---------------------------------------------------------------------------*/
FoamFile
{
    version     2.0;
    format      ascii;
    class       volScalarField;
    location    "5";
    object      H2O.gas;
}
// * * * * * * * * * * * * * * * * * * * * * * * * * * * * * * * * * * * * * //

dimensions      [0 0 0 0 0 0 0];

internalField   nonuniform List<scalar> 
100
(
0.000303852
0.000276935
0.000260674
0.000248323
0.000234281
0.000223037
0.000215091
0.000206983
0.000200042
0.000193601
0.000188304
0.000183827
0.000178983
0.000175038
0.000171951
0.000169396
0.000165882
0.000163219
0.0001597
0.000156619
0.000153682
0.000151271
0.000149186
0.000146778
0.000144829
0.000142628
0.000140401
0.000138794
0.000136961
0.000135017
0.000133194
0.000131342
0.000129468
0.000127653
0.000126114
0.00012446
0.000122741
0.000121274
0.000119908
0.000118338
0.000117166
0.000115867
0.000114515
0.000113178
0.000112025
0.000110804
0.000109533
0.000108223
0.00010714
0.000105892
0.000104657
0.000103426
0.000102474
0.000101233
0.00010008
9.89245e-05
9.77123e-05
9.64725e-05
9.53619e-05
9.41687e-05
9.28127e-05
9.17348e-05
9.05006e-05
8.91728e-05
8.78487e-05
8.65634e-05
8.5282e-05
8.39002e-05
8.25463e-05
8.11078e-05
7.97101e-05
0.00717737
0.0103018
0.0131113
0.015647
0.0179049
0.0198197
0.021439
0.022786
0.0237874
0.0245163
0.0249178
0.0249684
0.0247633
0.0241838
0.023313
0.0221558
0.0207324
0.0191455
0.017447
0.0157581
0.0142092
0.0129265
0.0119164
0.0112117
0.0107418
0.0104491
0.010265
0.0101525
0.0100858
)
;

boundaryField
{
    inlet
    {
        type            fixedValue;
        value           uniform 0;
    }
    outlet
    {
        type            zeroGradient;
    }
    yzfaces
    {
        type            empty;
    }
}


// ************************************************************************* //
