/*--------------------------------*- C++ -*----------------------------------*\
| =========                 |                                                 |
| \\      /  F ield         | foam-extend: Open Source CFD                    |
|  \\    /   O peration     | Version:     5.0                                |
|   \\  /    A nd           | Web:         http://www.foam-extend.org         |
|    \\/     M anipulation  |                                                 |
\*---------------------------------------------------------------------------*/
FoamFile
{
    version     2.0;
    format      ascii;
    class       volScalarField;
    location    "5";
    object      H2O.gas;
}
// * * * * * * * * * * * * * * * * * * * * * * * * * * * * * * * * * * * * * //

dimensions      [0 0 0 0 0 0 0];

internalField   nonuniform List<scalar> 
100
(
0.000304493
0.000276173
0.000260268
0.000246993
0.000235188
0.000224254
0.000215176
0.000206585
0.00020027
0.000192927
0.000188251
0.00018314
0.000178855
0.000174894
0.00017047
0.000168266
0.00016515
0.000162553
0.000159166
0.000155877
0.00015298
0.000150229
0.000148287
0.000146253
0.000144059
0.000142221
0.000140054
0.000137934
0.00013604
0.000134297
0.000132646
0.000131051
0.000129577
0.000127952
0.000126159
0.000124479
0.000122917
0.000121524
0.000120107
0.000118433
0.000117088
0.00011571
0.000114334
0.000113101
0.000111689
0.000110394
0.000109203
0.000108062
0.00010697
0.000105814
0.000104823
0.0001036
0.000102425
0.000101198
0.00010008
9.90508e-05
9.78569e-05
9.66934e-05
9.53803e-05
9.41815e-05
9.28935e-05
9.1549e-05
9.02008e-05
8.90075e-05
8.75866e-05
8.63227e-05
0.00548051
0.00794298
0.0102711
0.0124696
0.0145507
0.0164835
0.0182814
0.0199615
0.0214232
0.0227828
0.0239323
0.0248589
0.0255872
0.0260743
0.0263133
0.0263606
0.0261144
0.0256
0.0248519
0.0238014
0.0225407
0.0210195
0.0193547
0.0176234
0.0158947
0.0143189
0.012997
0.0119743
0.011256
0.0107739
0.0104597
0.010278
0.0101582
0.0100885
)
;

boundaryField
{
    inlet
    {
        type            fixedValue;
        value           uniform 0;
    }
    outlet
    {
        type            zeroGradient;
    }
    yzfaces
    {
        type            empty;
    }
}


// ************************************************************************* //
