/*--------------------------------*- C++ -*----------------------------------*\
| =========                 |                                                 |
| \\      /  F ield         | foam-extend: Open Source CFD                    |
|  \\    /   O peration     | Version:     5.0                                |
|   \\  /    A nd           | Web:         http://www.foam-extend.org         |
|    \\/     M anipulation  |                                                 |
\*---------------------------------------------------------------------------*/
FoamFile
{
    version     2.0;
    format      ascii;
    class       volScalarField;
    location    "5";
    object      Na.water;
}
// * * * * * * * * * * * * * * * * * * * * * * * * * * * * * * * * * * * * * //

dimensions      [0 0 0 0 0 0 0];

internalField   nonuniform List<scalar> 
100
(
0.00501227
0.00667981
0.00761571
0.00839669
0.00909521
0.00973945
0.0102759
0.0107852
0.0111576
0.0115901
0.0118634
0.0121628
0.0124151
0.0126513
0.012914
0.0130419
0.0132255
0.0133794
0.0135826
0.0137741
0.013942
0.0141028
0.0142159
0.01434
0.0144696
0.0145758
0.0147006
0.0148237
0.0149443
0.0150483
0.0151429
0.0152378
0.0153233
0.0154187
0.0155195
0.0156206
0.0157182
0.0157962
0.0158778
0.0159759
0.0160536
0.0161367
0.0162196
0.0162955
0.0163775
0.0164506
0.0165257
0.0165941
0.016656
0.016726
0.016783
0.0168573
0.0169276
0.0170009
0.0170679
0.0171228
0.0171926
0.0172591
0.0173389
0.0174022
0.0174815
0.0175644
0.0176433
0.0177118
0.0177981
0.0178777
0.0179631
0.0180343
0.0181086
0.0181931
0.0182699
0.0183529
0.018438
0.0185073
0.0186166
0.018693
0.0187882
0.0188964
0.0189983
0.0191235
0.0192543
0.0193835
0.0195308
0.0196938
0.0198614
0.0200593
0.0202499
0.020477
0.0206976
0.020906
0.0211216
0.0213106
0.0214654
0.0215867
0.021664
0.0217124
0.0217575
0.021773
0.0217943
0.0218048
)
;

boundaryField
{
    inlet
    {
        type            fixedValue;
        value           uniform 0;
    }
    outlet
    {
        type            zeroGradient;
    }
    yzfaces
    {
        type            empty;
    }
}


// ************************************************************************* //
