/*--------------------------------*- C++ -*----------------------------------*\
| =========                 |                                                 |
| \\      /  F ield         | foam-extend: Open Source CFD                    |
|  \\    /   O peration     | Version:     5.0                                |
|   \\  /    A nd           | Web:         http://www.foam-extend.org         |
|    \\/     M anipulation  |                                                 |
\*---------------------------------------------------------------------------*/
FoamFile
{
    version     2.0;
    format      ascii;
    class       volVectorField;
    location    "5";
    object      U.gas;
}
// * * * * * * * * * * * * * * * * * * * * * * * * * * * * * * * * * * * * * //

dimensions      [0 1 -1 0 0 0 0];

internalField   nonuniform List<vector> 
100
(
(0.00639276 0 0)
(0.00706608 0 0)
(0.00749409 0 0)
(0.00785671 0 0)
(0.00818163 0 0)
(0.00851735 0 0)
(0.0088061 0 0)
(0.00906325 0 0)
(0.00924336 0 0)
(0.00949763 0 0)
(0.00964763 0 0)
(0.00984341 0 0)
(0.0100237 0 0)
(0.0101951 0 0)
(0.0104231 0 0)
(0.0104992 0 0)
(0.0106192 0 0)
(0.0106738 0 0)
(0.0107835 0 0)
(0.0108989 0 0)
(0.0109984 0 0)
(0.0111407 0 0)
(0.0112147 0 0)
(0.0112701 0 0)
(0.0113604 0 0)
(0.0114394 0 0)
(0.011527 0 0)
(0.0116214 0 0)
(0.0116914 0 0)
(0.0117559 0 0)
(0.0118342 0 0)
(0.0118999 0 0)
(0.0119269 0 0)
(0.01198 0 0)
(0.0120544 0 0)
(0.0121018 0 0)
(0.012153 0 0)
(0.0121796 0 0)
(0.0121937 0 0)
(0.0122424 0 0)
(0.0122877 0 0)
(0.0123436 0 0)
(0.0123914 0 0)
(0.0123993 0 0)
(0.0124484 0 0)
(0.0125229 0 0)
(0.0125646 0 0)
(0.0125957 0 0)
(0.0126141 0 0)
(0.0126333 0 0)
(0.012642 0 0)
(0.0126741 0 0)
(0.0126973 0 0)
(0.0127328 0 0)
(0.0127534 0 0)
(0.0127442 0 0)
(0.0127447 0 0)
(0.0127469 0 0)
(0.0127722 0 0)
(0.0127763 0 0)
(0.0127728 0 0)
(0.012766 0 0)
(0.0127521 0 0)
(0.0126983 0 0)
(0.0126954 0 0)
(0.012675 0 0)
(0.0126563 0 0)
(0.0126507 0 0)
(0.0126374 0 0)
(0.0126233 0 0)
(0.0126012 0 0)
(0.0125803 0 0)
(0.0125462 0 0)
(0.0124924 0 0)
(0.0124479 0 0)
(0.0123877 0 0)
(0.012317 0 0)
(0.0122359 0 0)
(0.0121339 0 0)
(0.0120128 0 0)
(0.0118868 0 0)
(0.0117226 0 0)
(0.0115345 0 0)
(0.0113008 0 0)
(0.0110167 0 0)
(0.0106773 0 0)
(0.010252 0 0)
(0.00976263 0 0)
(0.00918843 0 0)
(0.00851956 0 0)
(0.00779833 0 0)
(0.00705977 0 0)
(0.0063651 0 0)
(0.00577642 0 0)
(0.0053211 0 0)
(0.00499138 0 0)
(0.00476718 0 0)
(0.0046264 0 0)
(0.00453987 0 0)
(0.00448801 0 0)
)
;

boundaryField
{
    inlet
    {
        type            fixedValue;
        value           uniform (0.005 0 0);
    }
    outlet
    {
        type            zeroGradient;
    }
    yzfaces
    {
        type            empty;
    }
}


// ************************************************************************* //
