/*--------------------------------*- C++ -*----------------------------------*\
| =========                 |                                                 |
| \\      /  F ield         | foam-extend: Open Source CFD                    |
|  \\    /   O peration     | Version:     5.0                                |
|   \\  /    A nd           | Web:         http://www.foam-extend.org         |
|    \\/     M anipulation  |                                                 |
\*---------------------------------------------------------------------------*/
FoamFile
{
    version     2.0;
    format      ascii;
    class       volVectorField;
    location    "5";
    object      U.gas;
}
// * * * * * * * * * * * * * * * * * * * * * * * * * * * * * * * * * * * * * //

dimensions      [0 1 -1 0 0 0 0];

internalField   nonuniform List<vector> 
100
(
(0.00640698 0 0)
(0.00699219 0 0)
(0.00738338 0 0)
(0.00772471 0 0)
(0.00812309 0 0)
(0.00847263 0 0)
(0.00873351 0 0)
(0.00902316 0 0)
(0.00926286 0 0)
(0.00946435 0 0)
(0.00965662 0 0)
(0.00983632 0 0)
(0.0100576 0 0)
(0.0102155 0 0)
(0.0103226 0 0)
(0.010427 0 0)
(0.0105936 0 0)
(0.0107104 0 0)
(0.0108772 0 0)
(0.0110103 0 0)
(0.0111751 0 0)
(0.0113244 0 0)
(0.0114195 0 0)
(0.0115065 0 0)
(0.0115633 0 0)
(0.0116588 0 0)
(0.0117574 0 0)
(0.011819 0 0)
(0.0119113 0 0)
(0.0120137 0 0)
(0.0121092 0 0)
(0.0121952 0 0)
(0.0122745 0 0)
(0.0123689 0 0)
(0.0124372 0 0)
(0.012504 0 0)
(0.012584 0 0)
(0.0126433 0 0)
(0.0126933 0 0)
(0.0127662 0 0)
(0.0128 0 0)
(0.01285 0 0)
(0.0129091 0 0)
(0.0129735 0 0)
(0.0130101 0 0)
(0.0130417 0 0)
(0.013078 0 0)
(0.0131301 0 0)
(0.0131596 0 0)
(0.0132008 0 0)
(0.0132395 0 0)
(0.0132948 0 0)
(0.0133049 0 0)
(0.013345 0 0)
(0.0133659 0 0)
(0.0134033 0 0)
(0.0134725 0 0)
(0.0135281 0 0)
(0.0135375 0 0)
(0.01354 0 0)
(0.0135828 0 0)
(0.0135737 0 0)
(0.0135584 0 0)
(0.013573 0 0)
(0.0135891 0 0)
(0.0135848 0 0)
(0.0135725 0 0)
(0.0135611 0 0)
(0.0135422 0 0)
(0.0135163 0 0)
(0.0134768 0 0)
(0.0134408 0 0)
(0.0133768 0 0)
(0.0133281 0 0)
(0.0132763 0 0)
(0.0132116 0 0)
(0.01313 0 0)
(0.0130275 0 0)
(0.0129195 0 0)
(0.012804 0 0)
(0.0126604 0 0)
(0.0124815 0 0)
(0.0122746 0 0)
(0.0120164 0 0)
(0.0116974 0 0)
(0.0113245 0 0)
(0.0108706 0 0)
(0.0103346 0 0)
(0.0097099 0 0)
(0.00900075 0 0)
(0.00822024 0 0)
(0.00743813 0 0)
(0.00670924 0 0)
(0.00609567 0 0)
(0.00562365 0 0)
(0.00529022 0 0)
(0.00506884 0 0)
(0.00492659 0 0)
(0.00484035 0 0)
(0.00479132 0 0)
)
;

boundaryField
{
    inlet
    {
        type            fixedValue;
        value           uniform (0.005 0 0);
    }
    outlet
    {
        type            zeroGradient;
    }
    yzfaces
    {
        type            empty;
    }
}


// ************************************************************************* //
