/*--------------------------------*- C++ -*----------------------------------*\
| =========                 |                                                 |
| \\      /  F ield         | foam-extend: Open Source CFD                    |
|  \\    /   O peration     | Version:     5.0                                |
|   \\  /    A nd           | Web:         http://www.foam-extend.org         |
|    \\/     M anipulation  |                                                 |
\*---------------------------------------------------------------------------*/
FoamFile
{
    version     2.0;
    format      ascii;
    class       volVectorField;
    location    "5";
    object      U.water;
}
// * * * * * * * * * * * * * * * * * * * * * * * * * * * * * * * * * * * * * //

dimensions      [0 1 -1 0 0 0 0];

internalField   nonuniform List<vector> 
100
(
(5.11971e-05 0 0)
(0.000119128 0 0)
(0.000173562 0 0)
(0.000218985 0 0)
(0.000264796 0 0)
(0.000320745 0 0)
(0.000371438 0 0)
(0.000416624 0 0)
(0.000464609 0 0)
(0.000509909 0 0)
(0.000555822 0 0)
(0.00059741 0 0)
(0.000639551 0 0)
(0.000683076 0 0)
(0.000718945 0 0)
(0.000750049 0 0)
(0.00078238 0 0)
(0.000819694 0 0)
(0.000856582 0 0)
(0.000900177 0 0)
(0.000944119 0 0)
(0.000987201 0 0)
(0.00102156 0 0)
(0.00105291 0 0)
(0.00108636 0 0)
(0.00111952 0 0)
(0.00115667 0 0)
(0.00119163 0 0)
(0.00122298 0 0)
(0.00125877 0 0)
(0.0012964 0 0)
(0.00133309 0 0)
(0.0013708 0 0)
(0.00141145 0 0)
(0.00144955 0 0)
(0.0014832 0 0)
(0.0015219 0 0)
(0.00156152 0 0)
(0.00159546 0 0)
(0.0016302 0 0)
(0.00166579 0 0)
(0.00169665 0 0)
(0.00173169 0 0)
(0.00177041 0 0)
(0.00180568 0 0)
(0.0018359 0 0)
(0.0018693 0 0)
(0.00190767 0 0)
(0.00194409 0 0)
(0.00197711 0 0)
(0.00201489 0 0)
(0.0020566 0 0)
(0.00209156 0 0)
(0.00212437 0 0)
(0.00216396 0 0)
(0.00220359 0 0)
(0.00224854 0 0)
(0.00229461 0 0)
(0.00233607 0 0)
(0.0023736 0 0)
(0.00242111 0 0)
(0.00246603 0 0)
(0.00250107 0 0)
(0.00254872 0 0)
(0.00260123 0 0)
(0.00265055 0 0)
(0.00269861 0 0)
(0.00274805 0 0)
(0.0028016 0 0)
(0.00285561 0 0)
(0.00291159 0 0)
(0.00296794 0 0)
(0.00302111 0 0)
(0.00307891 0 0)
(0.0031446 0 0)
(0.00321095 0 0)
(0.003278 0 0)
(0.00334715 0 0)
(0.00342288 0 0)
(0.0035063 0 0)
(0.00359674 0 0)
(0.00369159 0 0)
(0.00379332 0 0)
(0.00390169 0 0)
(0.00401485 0 0)
(0.00413716 0 0)
(0.00426589 0 0)
(0.00439899 0 0)
(0.00453662 0 0)
(0.00466299 0 0)
(0.00476794 0 0)
(0.00485698 0 0)
(0.00492567 0 0)
(0.00497875 0 0)
(0.00502006 0 0)
(0.0050471 0 0)
(0.00506651 0 0)
(0.00507552 0 0)
(0.00508024 0 0)
(0.00508537 0 0)
)
;

boundaryField
{
    inlet
    {
        type            fixedValue;
        value           uniform (0 0 0);
    }
    outlet
    {
        type            zeroGradient;
    }
    yzfaces
    {
        type            empty;
    }
}


// ************************************************************************* //
