/*--------------------------------*- C++ -*----------------------------------*\
| =========                 |                                                 |
| \\      /  F ield         | foam-extend: Open Source CFD                    |
|  \\    /   O peration     | Version:     5.0                                |
|   \\  /    A nd           | Web:         http://www.foam-extend.org         |
|    \\/     M anipulation  |                                                 |
\*---------------------------------------------------------------------------*/
FoamFile
{
    version     2.0;
    format      ascii;
    class       volScalarField;
    location    "9";
    object      alpha.gas;
}
// * * * * * * * * * * * * * * * * * * * * * * * * * * * * * * * * * * * * * //

dimensions      [0 0 0 0 0 0 0];

internalField   nonuniform List<scalar> 
100
(
0.169625
0.152781
0.132141
0.120372
0.107175
0.104266
0.100071
0.10033
0.100211
0.100214
0.0986911
0.0972146
0.102794
0.103105
0.101253
0.0993999
0.100437
0.101368
0.10226
0.0994556
0.100013
0.0919642
0.0923771
0.0862569
0.0821197
0.0807729
0.0800574
0.0801631
0.0801486
0.0811159
0.0806584
0.0774511
0.0775718
0.0790947
0.0798954
0.0811195
0.0786083
0.0780085
0.0757153
0.0731839
0.0724842
0.0730225
0.073855
0.0728187
0.0736216
0.0725718
0.0717481
0.0691937
0.0693943
0.0679718
0.0693986
0.06717
0.068466
0.0686086
0.0669653
0.0669607
0.0651386
0.0642763
0.0627396
0.0630583
0.0642213
0.0643909
0.0623738
0.0626335
0.062668
0.0606036
0.0597639
0.0598872
0.0583367
0.0560533
0.052723
0.0527658
0.0504876
0.0509545
0.0491113
0.0482791
0.0444675
0.0453722
0.0421497
0.0389614
0.028783
0.000434799
0.0242898
0.0238794
0.0237313
0.0237345
0.0238089
0.0239079
0.0240064
0.0240859
0.0241529
0.0241999
0.0242131
0.0241928
0.0241883
0.0241759
0.0241686
0.0241689
0.0241792
0.0241756
)
;

boundaryField
{
    inlet
    {
        type            fixedValue;
        value           uniform 0.2;
    }
    outlet
    {
        type            zeroGradient;
    }
    yzfaces
    {
        type            empty;
    }
}


// ************************************************************************* //
