/*--------------------------------*- C++ -*----------------------------------*\
| =========                 |                                                 |
| \\      /  F ield         | foam-extend: Open Source CFD                    |
|  \\    /   O peration     | Version:     5.0                                |
|   \\  /    A nd           | Web:         http://www.foam-extend.org         |
|    \\/     M anipulation  |                                                 |
\*---------------------------------------------------------------------------*/
FoamFile
{
    version     2.0;
    format      ascii;
    class       volScalarField;
    location    "9";
    object      CO2.water;
}
// * * * * * * * * * * * * * * * * * * * * * * * * * * * * * * * * * * * * * //

dimensions      [0 0 0 0 0 0 0];

internalField   nonuniform List<scalar> 
100
(
0.000797774
0.00124018
0.00178229
0.00209138
0.00243799
0.0025144
0.00262459
0.00261778
0.0026209
0.00262082
0.00266083
0.00269961
0.00255308
0.00254491
0.00259355
0.00264222
0.00261498
0.00259053
0.00256709
0.00264075
0.00262611
0.00283751
0.00282667
0.00298741
0.00309607
0.00313145
0.00315024
0.00314746
0.00314784
0.00312244
0.00313445
0.00321869
0.00321552
0.00317552
0.00315449
0.00312234
0.0031883
0.00320405
0.00326428
0.00333077
0.00334914
0.003335
0.00331314
0.00334036
0.00331927
0.00334684
0.00336848
0.00343557
0.0034303
0.00346766
0.00343019
0.00348872
0.00345468
0.00345093
0.00349409
0.00349422
0.00354207
0.00356472
0.00360508
0.00359671
0.00356617
0.00356171
0.00361469
0.00360787
0.00360696
0.00366118
0.00368324
0.00368
0.00372072
0.0037807
0.00386816
0.00386704
0.00392688
0.00391461
0.00396302
0.00398488
0.00408499
0.00406123
0.00414587
0.0042296
0.00449693
0.00524149
0.000806954
0.000308407
0.000115062
4.21838e-05
1.53024e-05
5.52436e-06
1.99534e-06
7.2371e-07
2.64055e-07
9.6903e-08
3.56928e-08
1.31839e-08
4.88419e-09
1.81004e-09
6.70564e-10
2.48039e-10
9.16316e-11
3.3948e-11
)
;

boundaryField
{
    inlet
    {
        type            fixedValue;
        value           uniform 0;
    }
    outlet
    {
        type            zeroGradient;
    }
    yzfaces
    {
        type            empty;
    }
}


// ************************************************************************* //
