/*--------------------------------*- C++ -*----------------------------------*\
| =========                 |                                                 |
| \\      /  F ield         | foam-extend: Open Source CFD                    |
|  \\    /   O peration     | Version:     5.0                                |
|   \\  /    A nd           | Web:         http://www.foam-extend.org         |
|    \\/     M anipulation  |                                                 |
\*---------------------------------------------------------------------------*/
FoamFile
{
    version     2.0;
    format      ascii;
    class       volScalarField;
    location    "9";
    object      CO2.gas;
}
// * * * * * * * * * * * * * * * * * * * * * * * * * * * * * * * * * * * * * //

dimensions      [0 0 0 0 0 0 0];

internalField   nonuniform List<scalar> 
100
(
0.169295
0.152484
0.131884
0.120138
0.106967
0.104063
0.099876
0.100135
0.100016
0.100019
0.0984989
0.0970253
0.102593
0.102904
0.101055
0.0992063
0.100241
0.10117
0.102061
0.0992619
0.0998182
0.0917851
0.0921972
0.0860889
0.0819598
0.0806156
0.0799015
0.080007
0.0799925
0.080958
0.0805013
0.0773003
0.0774207
0.0789407
0.0797398
0.0809615
0.0784552
0.0778566
0.0755679
0.0730414
0.072343
0.0728803
0.0737111
0.0726769
0.0734782
0.0724305
0.0716083
0.0690589
0.0692591
0.0678394
0.0692634
0.0670392
0.0683326
0.068475
0.0668349
0.0668302
0.0650118
0.0641511
0.0626174
0.0629355
0.0640962
0.0642655
0.0622523
0.0625116
0.062546
0.0604855
0.0596475
0.0597706
0.0582231
0.0559441
0.0526203
0.052663
0.0503892
0.0508553
0.0490156
0.0481851
0.0443809
0.0452838
0.0420676
0.0388855
0.028727
0.000433952
0.0238295
0.0231171
0.0226211
0.0222294
0.0218756
0.0214993
0.0210741
0.0205897
0.020041
0.0194401
0.018771
0.0180464
0.0173077
0.0165482
0.0157719
0.014987
0.0141997
0.0133981
)
;

boundaryField
{
    inlet
    {
        type            fixedValue;
        value           uniform 0.2;
    }
    outlet
    {
        type            zeroGradient;
    }
    yzfaces
    {
        type            empty;
    }
}


// ************************************************************************* //
