/*--------------------------------*- C++ -*----------------------------------*\
| =========                 |                                                 |
| \\      /  F ield         | foam-extend: Open Source CFD                    |
|  \\    /   O peration     | Version:     5.0                                |
|   \\  /    A nd           | Web:         http://www.foam-extend.org         |
|    \\/     M anipulation  |                                                 |
\*---------------------------------------------------------------------------*/
FoamFile
{
    version     2.0;
    format      ascii;
    class       volScalarField;
    location    "9";
    object      H2O.gas;
}
// * * * * * * * * * * * * * * * * * * * * * * * * * * * * * * * * * * * * * //

dimensions      [0 0 0 0 0 0 0];

internalField   nonuniform List<scalar> 
100
(
0.000330341
0.000297537
0.000257341
0.000234422
0.000208721
0.000203056
0.000194885
0.00019539
0.000195159
0.000195165
0.000192198
0.000189323
0.000200188
0.000200793
0.000197187
0.000193578
0.000195598
0.000197411
0.000199149
0.000193687
0.000194772
0.000179098
0.000179902
0.000167983
0.000159926
0.000157303
0.000155909
0.000156115
0.000156087
0.000157971
0.00015708
0.000150834
0.000151069
0.000154035
0.000155594
0.000157978
0.000153087
0.000151919
0.000147453
0.000142524
0.000141161
0.000142209
0.00014383
0.000141812
0.000143376
0.000141331
0.000139727
0.000134753
0.000135143
0.000132373
0.000135152
0.000130812
0.000133335
0.000133613
0.000130413
0.000130404
0.000126856
0.000125176
0.000122184
0.000122804
0.000125069
0.000125399
0.000121471
0.000121977
0.000122044
0.000118024
0.000116389
0.000116629
0.000113609
0.000109162
0.000102676
0.00010276
9.8323e-05
9.92324e-05
9.56428e-05
9.40222e-05
8.65992e-05
8.8361e-05
8.20853e-05
7.58762e-05
5.60541e-05
8.46758e-07
0.000482571
0.00078313
0.00112672
0.00151348
0.00194683
0.00242728
0.0029522
0.00352104
0.00412952
0.00477749
0.00545198
0.00615181
0.00687831
0.00762639
0.00839294
0.00917224
0.00996297
0.0107475
)
;

boundaryField
{
    inlet
    {
        type            fixedValue;
        value           uniform 0;
    }
    outlet
    {
        type            zeroGradient;
    }
    yzfaces
    {
        type            empty;
    }
}


// ************************************************************************* //
