/*--------------------------------*- C++ -*----------------------------------*\
| =========                 |                                                 |
| \\      /  F ield         | foam-extend: Open Source CFD                    |
|  \\    /   O peration     | Version:     5.0                                |
|   \\  /    A nd           | Web:         http://www.foam-extend.org         |
|    \\/     M anipulation  |                                                 |
\*---------------------------------------------------------------------------*/
FoamFile
{
    version     2.0;
    format      ascii;
    class       surfaceScalarField;
    location    "9";
    object      phi;
}
// * * * * * * * * * * * * * * * * * * * * * * * * * * * * * * * * * * * * * //

dimensions      [0 3 -1 0 0 0 0];

internalField   nonuniform List<scalar> 
99
(
1.21962e-06
1.23052e-06
1.23057e-06
1.22974e-06
1.21818e-06
1.21994e-06
1.21945e-06
1.21976e-06
1.22905e-06
1.22823e-06
1.22239e-06
1.21717e-06
1.2185e-06
1.22054e-06
1.22064e-06
1.21819e-06
1.22003e-06
1.22369e-06
1.22761e-06
1.22653e-06
1.23259e-06
1.23001e-06
1.23298e-06
1.23211e-06
1.23759e-06
1.24026e-06
1.23641e-06
1.23518e-06
1.23583e-06
1.2413e-06
1.24748e-06
1.24837e-06
1.25154e-06
1.25433e-06
1.2548e-06
1.25569e-06
1.2545e-06
1.25282e-06
1.25348e-06
1.25087e-06
1.24965e-06
1.24692e-06
1.24938e-06
1.24614e-06
1.24672e-06
1.24477e-06
1.246e-06
1.24709e-06
1.24495e-06
1.24328e-06
1.24232e-06
1.24412e-06
1.24484e-06
1.24713e-06
1.24751e-06
1.24775e-06
1.24511e-06
1.2454e-06
1.24405e-06
1.24524e-06
1.24589e-06
1.24753e-06
1.24681e-06
1.24801e-06
1.25027e-06
1.24796e-06
1.24943e-06
1.24861e-06
1.24713e-06
1.24862e-06
1.24705e-06
1.24662e-06
1.24471e-06
1.24555e-06
1.24415e-06
1.24682e-06
1.2426e-06
1.24418e-06
1.24412e-06
1.24443e-06
1.24525e-06
1.24504e-06
1.24565e-06
1.24599e-06
1.24708e-06
1.2459e-06
1.24685e-06
1.24723e-06
1.24723e-06
1.24899e-06
1.24883e-06
1.24828e-06
1.24686e-06
1.24894e-06
1.248e-06
1.24894e-06
1.2479e-06
1.24858e-06
1.24827e-06
)
;

boundaryField
{
    inlet
    {
        type            calculated;
        value           uniform -1.225e-06;
    }
    outlet
    {
        type            calculated;
        value           uniform 1.24958e-06;
    }
    yzfaces
    {
        type            empty;
    }
}


// ************************************************************************* //
