/*--------------------------------*- C++ -*----------------------------------*\
| =========                 |                                                 |
| \\      /  F ield         | foam-extend: Open Source CFD                    |
|  \\    /   O peration     | Version:     5.0                                |
|   \\  /    A nd           | Web:         http://www.foam-extend.org         |
|    \\/     M anipulation  |                                                 |
\*---------------------------------------------------------------------------*/
FoamFile
{
    version     2.0;
    format      ascii;
    class       volVectorField;
    location    "9";
    object      U.gas;
}
// * * * * * * * * * * * * * * * * * * * * * * * * * * * * * * * * * * * * * //

dimensions      [0 1 -1 0 0 0 0];

internalField   nonuniform List<vector> 
100
(
(0.00587513 0 0)
(0.00658244 0 0)
(0.00749925 0 0)
(0.00819136 0 0)
(0.00894751 0 0)
(0.00911441 0 0)
(0.00951173 0 0)
(0.00944389 0 0)
(0.00955878 0 0)
(0.00935999 0 0)
(0.00961139 0 0)
(0.00948368 0 0)
(0.00914545 0 0)
(0.00933447 0 0)
(0.00933906 0 0)
(0.00940765 0 0)
(0.00940581 0 0)
(0.0093361 0 0)
(0.00936637 0 0)
(0.0095201 0 0)
(0.00960983 0 0)
(0.0101679 0 0)
(0.0102809 0 0)
(0.0107733 0 0)
(0.0112814 0 0)
(0.0112098 0 0)
(0.0111097 0 0)
(0.0111741 0 0)
(0.0112328 0 0)
(0.0112207 0 0)
(0.0113351 0 0)
(0.0116145 0 0)
(0.0115469 0 0)
(0.011485 0 0)
(0.0113849 0 0)
(0.0112031 0 0)
(0.0115662 0 0)
(0.011418 0 0)
(0.0119226 0 0)
(0.0118648 0 0)
(0.0121117 0 0)
(0.0118391 0 0)
(0.011815 0 0)
(0.0119231 0 0)
(0.0118542 0 0)
(0.0119406 0 0)
(0.0120997 0 0)
(0.0122435 0 0)
(0.0121506 0 0)
(0.0123056 0 0)
(0.0121919 0 0)
(0.0124013 0 0)
(0.0123499 0 0)
(0.0123016 0 0)
(0.0124262 0 0)
(0.0124487 0 0)
(0.0126415 0 0)
(0.0127118 0 0)
(0.012825 0 0)
(0.012692 0 0)
(0.0126412 0 0)
(0.0126928 0 0)
(0.0127838 0 0)
(0.0127863 0 0)
(0.0128748 0 0)
(0.0129566 0 0)
(0.0130867 0 0)
(0.0129335 0 0)
(0.0132116 0 0)
(0.0134499 0 0)
(0.0135541 0 0)
(0.0134602 0 0)
(0.0135683 0 0)
(0.013522 0 0)
(0.0137883 0 0)
(0.0135924 0 0)
(0.0137018 0 0)
(0.0137157 0 0)
(0.0137684 0 0)
(0.0139882 0 0)
(0.014796 0 0)
(0.0119467 0 0)
(0.0109251 0 0)
(0.0105645 0 0)
(0.0104243 0 0)
(0.0103686 0 0)
(0.0103648 0 0)
(0.0103932 0 0)
(0.010428 0 0)
(0.0104651 0 0)
(0.0104979 0 0)
(0.0105172 0 0)
(0.0105229 0 0)
(0.0105306 0 0)
(0.0105316 0 0)
(0.0105326 0 0)
(0.010525 0 0)
(0.0105197 0 0)
(0.0105219 0 0)
(0.0105362 0 0)
)
;

boundaryField
{
    inlet
    {
        type            fixedValue;
        value           uniform (0.005 0 0);
    }
    outlet
    {
        type            zeroGradient;
    }
    yzfaces
    {
        type            empty;
    }
}


// ************************************************************************* //
