/*--------------------------------*- C++ -*----------------------------------*\
| =========                 |                                                 |
| \\      /  F ield         | foam-extend: Open Source CFD                    |
|  \\    /   O peration     | Version:     5.0                                |
|   \\  /    A nd           | Web:         http://www.foam-extend.org         |
|    \\/     M anipulation  |                                                 |
\*---------------------------------------------------------------------------*/
FoamFile
{
    version     2.0;
    format      ascii;
    class       volVectorField;
    location    "9";
    object      U.water;
}
// * * * * * * * * * * * * * * * * * * * * * * * * * * * * * * * * * * * * * //

dimensions      [0 1 -1 0 0 0 0];

internalField   nonuniform List<vector> 
100
(
(2.98745e-05 0 0)
(7.90284e-05 0 0)
(0.000151462 0 0)
(0.000244556 0 0)
(0.000346753 0 0)
(0.000441273 0 0)
(0.00049498 0 0)
(0.000541928 0 0)
(0.000546156 0 0)
(0.000544985 0 0)
(0.000531697 0 0)
(0.000556253 0 0)
(0.000530792 0 0)
(0.000498546 0 0)
(0.000516149 0 0)
(0.000521821 0 0)
(0.000531454 0 0)
(0.000528183 0 0)
(0.00051838 0 0)
(0.000526668 0 0)
(0.00054966 0 0)
(0.00059679 0 0)
(0.000678853 0 0)
(0.000742861 0 0)
(0.000862437 0 0)
(0.000951458 0 0)
(0.000946158 0 0)
(0.00093626 0 0)
(0.000952924 0 0)
(0.000965396 0 0)
(0.000971105 0 0)
(0.00100569 0 0)
(0.00104663 0 0)
(0.0010371 0 0)
(0.00101058 0 0)
(0.000970696 0 0)
(0.00096312 0 0)
(0.00100497 0 0)
(0.00104089 0 0)
(0.00112612 0 0)
(0.00116732 0 0)
(0.0011983 0 0)
(0.00116227 0 0)
(0.0011584 0 0)
(0.00116912 0 0)
(0.00117144 0 0)
(0.00120524 0 0)
(0.0012594 0 0)
(0.00129009 0 0)
(0.00130105 0 0)
(0.00132555 0 0)
(0.0013393 0 0)
(0.00137712 0 0)
(0.00137265 0 0)
(0.00137166 0 0)
(0.00139527 0 0)
(0.00143036 0 0)
(0.00149208 0 0)
(0.00154786 0 0)
(0.00158103 0 0)
(0.00156285 0 0)
(0.0015474 0 0)
(0.00156014 0 0)
(0.00158413 0 0)
(0.00160532 0 0)
(0.00163955 0 0)
(0.00169051 0 0)
(0.00172446 0 0)
(0.0017448 0 0)
(0.0018544 0 0)
(0.001987 0 0)
(0.00208244 0 0)
(0.00214692 0 0)
(0.00221902 0 0)
(0.00230998 0 0)
(0.00242722 0 0)
(0.00249534 0 0)
(0.00260006 0 0)
(0.00273223 0 0)
(0.00294647 0 0)
(0.00347254 0 0)
(0.00408606 0 0)
(0.00427545 0 0)
(0.00434205 0 0)
(0.00436946 0 0)
(0.00437662 0 0)
(0.00437408 0 0)
(0.00436994 0 0)
(0.0043627 0 0)
(0.00435896 0 0)
(0.00435585 0 0)
(0.00434991 0 0)
(0.00434408 0 0)
(0.00434526 0 0)
(0.00434793 0 0)
(0.00434822 0 0)
(0.0043493 0 0)
(0.00434917 0 0)
(0.00434938 0 0)
(0.00434987 0 0)
)
;

boundaryField
{
    inlet
    {
        type            fixedValue;
        value           uniform (0 0 0);
    }
    outlet
    {
        type            zeroGradient;
    }
    yzfaces
    {
        type            empty;
    }
}


// ************************************************************************* //
