/*--------------------------------*- C++ -*----------------------------------*\
| =========                 |                                                 |
| \\      /  F ield         | foam-extend: Open Source CFD                    |
|  \\    /   O peration     | Version:     5.0                                |
|   \\  /    A nd           | Web:         http://www.foam-extend.org         |
|    \\/     M anipulation  |                                                 |
\*---------------------------------------------------------------------------*/
FoamFile
{
    version     2.0;
    format      ascii;
    class       volScalarField;
    location    "1";
    object      Cl.water;
}
// * * * * * * * * * * * * * * * * * * * * * * * * * * * * * * * * * * * * * //

dimensions      [0 0 0 0 0 0 0];

internalField   nonuniform List<scalar> 
100
(
0.00969111
0.0117848
0.0130597
0.0139763
0.0146662
0.0152546
0.015745
0.0161797
0.0165668
0.0169322
0.0172708
0.0176024
0.0179084
0.0182227
0.0185339
0.0188447
0.0191785
0.0195075
0.0198274
0.0201682
0.0205207
0.0208501
0.0211296
0.0213692
0.0215464
0.0216744
0.0217308
0.0217894
0.0218026
0.0218128
0.0218165
0.0218131
0.0218087
0.0218202
0.0218243
0.021825
0.0218242
0.0218243
0.0218109
0.0218026
0.0218161
0.0218193
0.0218154
0.021822
0.0218289
0.0218189
0.021819
0.0218198
0.0218176
0.0218162
0.0218212
0.0218179
0.0218137
0.0218164
0.0218163
0.0218152
0.0218068
0.0218086
0.0218111
0.0218042
0.0218065
0.0218206
0.021806
0.0218255
0.0218135
0.0218217
0.0218269
0.0218248
0.0218205
0.0218131
0.021812
0.0218051
0.0218149
0.0218256
0.0218214
0.0218299
0.0218267
0.0218298
0.0218254
0.0218237
0.0218261
0.0218142
0.0218135
0.0218246
0.0218278
0.0218184
0.0218282
0.0218235
0.0218114
0.0218245
0.0218198
0.0218202
0.021819
0.0218156
0.0218031
0.0218264
0.0218093
0.0218122
0.021822
0.0218113
)
;

boundaryField
{
    inlet
    {
        type            fixedValue;
        value           uniform 0;
    }
    outlet
    {
        type            zeroGradient;
    }
    yzfaces
    {
        type            empty;
    }
}


// ************************************************************************* //
