/*--------------------------------*- C++ -*----------------------------------*\
| =========                 |                                                 |
| \\      /  F ield         | foam-extend: Open Source CFD                    |
|  \\    /   O peration     | Version:     5.0                                |
|   \\  /    A nd           | Web:         http://www.foam-extend.org         |
|    \\/     M anipulation  |                                                 |
\*---------------------------------------------------------------------------*/
FoamFile
{
    version     2.0;
    format      ascii;
    class       surfaceScalarField;
    location    "1";
    object      phi.water;
}
// * * * * * * * * * * * * * * * * * * * * * * * * * * * * * * * * * * * * * //

dimensions      [0 3 -1 0 0 0 0];

internalField   nonuniform List<scalar> 
99
(
3.85494e-07
6.69524e-07
9.30528e-07
1.18092e-06
1.40828e-06
1.64109e-06
1.86709e-06
2.08768e-06
2.29926e-06
2.51818e-06
2.74295e-06
2.98835e-06
3.21598e-06
3.46763e-06
3.72089e-06
3.98467e-06
4.27169e-06
4.56297e-06
4.85102e-06
5.12991e-06
5.39743e-06
5.63128e-06
5.80144e-06
5.92364e-06
6.00433e-06
6.06135e-06
6.07737e-06
6.10599e-06
6.10873e-06
6.11909e-06
6.11948e-06
6.11491e-06
6.10867e-06
6.11186e-06
6.11612e-06
6.11846e-06
6.12468e-06
6.13116e-06
6.12636e-06
6.11661e-06
6.12572e-06
6.12759e-06
6.12077e-06
6.12213e-06
6.12484e-06
6.12388e-06
6.12803e-06
6.13087e-06
6.12873e-06
6.12817e-06
6.13026e-06
6.1266e-06
6.12384e-06
6.12764e-06
6.13311e-06
6.12888e-06
6.12271e-06
6.12918e-06
6.12606e-06
6.11378e-06
6.11114e-06
6.11248e-06
6.10698e-06
6.1162e-06
6.11258e-06
6.1223e-06
6.12414e-06
6.12914e-06
6.12643e-06
6.12237e-06
6.11624e-06
6.10885e-06
6.10989e-06
6.10745e-06
6.10862e-06
6.1084e-06
6.11155e-06
6.1108e-06
6.11147e-06
6.11482e-06
6.12006e-06
6.11997e-06
6.11907e-06
6.12619e-06
6.13372e-06
6.13193e-06
6.1395e-06
6.13368e-06
6.12539e-06
6.13556e-06
6.13888e-06
6.14629e-06
6.14449e-06
6.13387e-06
6.12161e-06
6.13063e-06
6.12294e-06
6.1222e-06
6.13049e-06
)
;

boundaryField
{
    inlet
    {
        type            fixedValue;
        value           uniform 0;
    }
    outlet
    {
        type            calculated;
        value           uniform 6.13247e-06;
    }
    yzfaces
    {
        type            empty;
    }
}


// ************************************************************************* //
