/*--------------------------------*- C++ -*----------------------------------*\
| =========                 |                                                 |
| \\      /  F ield         | foam-extend: Open Source CFD                    |
|  \\    /   O peration     | Version:     5.0                                |
|   \\  /    A nd           | Web:         http://www.foam-extend.org         |
|    \\/     M anipulation  |                                                 |
\*---------------------------------------------------------------------------*/
FoamFile
{
    version     2.0;
    format      ascii;
    class       volScalarField;
    location    "8";
    object      alpha.gas;
}
// * * * * * * * * * * * * * * * * * * * * * * * * * * * * * * * * * * * * * //

dimensions      [0 0 0 0 0 0 0];

internalField   nonuniform List<scalar> 
100
(
0.168053
0.154233
0.145349
0.139129
0.133771
0.129527
0.126153
0.121329
0.116942
0.113011
0.11007
0.107868
0.105737
0.103764
0.101665
0.0999749
0.0978678
0.0959711
0.0946879
0.0931691
0.0916781
0.090488
0.0889335
0.0874226
0.086275
0.0851926
0.084045
0.0831894
0.0824906
0.0819226
0.0809553
0.080088
0.0790214
0.0781377
0.0771706
0.0762018
0.0755512
0.0749754
0.0743107
0.0737065
0.0730242
0.072152
0.0714201
0.0706167
0.0699257
0.0690731
0.0684048
0.067797
0.0671304
0.0664569
0.0657967
0.0651307
0.0644982
0.0637953
0.063167
0.0623953
0.0616806
0.0609428
0.0602961
0.0595582
0.0588117
0.0579968
0.0573263
0.0564707
0.0555159
0.0545566
0.0533
0.0517165
0.0498146
0.0474336
0.0436508
0.0373628
0.0239374
0.0224482
0.0226256
0.0230257
0.0233533
0.0236049
0.0237905
0.0239367
0.0240314
0.0240939
0.0241413
0.0241659
0.0241838
0.0242138
0.0242282
0.0242564
0.0242908
0.0243325
0.0243753
0.0244328
0.0245049
0.0245809
0.0246595
0.0247515
0.0248401
0.0249351
0.0250216
0.0250939
)
;

boundaryField
{
    inlet
    {
        type            fixedValue;
        value           uniform 0.2;
    }
    outlet
    {
        type            zeroGradient;
    }
    yzfaces
    {
        type            empty;
    }
}


// ************************************************************************* //
