/*--------------------------------*- C++ -*----------------------------------*\
| =========                 |                                                 |
| \\      /  F ield         | foam-extend: Open Source CFD                    |
|  \\    /   O peration     | Version:     5.0                                |
|   \\  /    A nd           | Web:         http://www.foam-extend.org         |
|    \\/     M anipulation  |                                                 |
\*---------------------------------------------------------------------------*/
FoamFile
{
    version     2.0;
    format      ascii;
    class       volScalarField;
    location    "8";
    object      CO2.water;
}
// * * * * * * * * * * * * * * * * * * * * * * * * * * * * * * * * * * * * * //

dimensions      [0 0 0 0 0 0 0];

internalField   nonuniform List<scalar> 
100
(
0.00083669
0.00118926
0.00141845
0.00157739
0.00171919
0.00184562
0.00193593
0.00205717
0.00215515
0.00225724
0.00234276
0.00241002
0.00246938
0.00252686
0.0025822
0.00262156
0.0026668
0.00272361
0.00275963
0.00279006
0.00282813
0.00285822
0.00289308
0.00293912
0.00297798
0.00300596
0.00303616
0.00306555
0.00308549
0.00310006
0.00312078
0.00314891
0.00316683
0.00319071
0.00321398
0.00324263
0.00326761
0.00328249
0.00329913
0.00331705
0.00332854
0.00334433
0.00336891
0.00339227
0.00341309
0.00343553
0.00344918
0.0034635
0.0034818
0.00349559
0.00351132
0.00353015
0.0035473
0.00356332
0.00358288
0.00360376
0.00362233
0.00364523
0.00366508
0.00368449
0.00370675
0.00372941
0.00374255
0.00376688
0.00379476
0.00381811
0.00385007
0.00389292
0.00394401
0.00400625
0.00410458
0.00426779
0.00461305
0.0018334
0.000652822
0.000227428
7.92876e-05
2.77641e-05
9.79033e-06
3.48125e-06
1.24726e-06
4.51351e-07
1.64904e-07
6.07148e-08
2.25247e-08
8.39171e-09
3.1308e-09
1.17025e-09
4.37138e-10
1.63131e-10
6.07553e-11
2.26041e-11
8.39801e-12
3.11415e-12
1.15257e-12
4.26789e-13
1.57967e-13
5.85233e-14
2.17085e-14
8.1366e-15
)
;

boundaryField
{
    inlet
    {
        type            fixedValue;
        value           uniform 0;
    }
    outlet
    {
        type            zeroGradient;
    }
    yzfaces
    {
        type            empty;
    }
}


// ************************************************************************* //
