/*--------------------------------*- C++ -*----------------------------------*\
| =========                 |                                                 |
| \\      /  F ield         | foam-extend: Open Source CFD                    |
|  \\    /   O peration     | Version:     5.0                                |
|   \\  /    A nd           | Web:         http://www.foam-extend.org         |
|    \\/     M anipulation  |                                                 |
\*---------------------------------------------------------------------------*/
FoamFile
{
    version     2.0;
    format      ascii;
    class       volVectorField;
    location    "8";
    object      U.water;
}
// * * * * * * * * * * * * * * * * * * * * * * * * * * * * * * * * * * * * * //

dimensions      [0 1 -1 0 0 0 0];

internalField   nonuniform List<vector> 
100
(
(3.19859e-05 0 0)
(7.66093e-05 0 0)
(0.000118166 0 0)
(0.000153725 0 0)
(0.000184667 0 0)
(0.000214318 0 0)
(0.000239579 0 0)
(0.000267083 0 0)
(0.00030294 0 0)
(0.000341036 0 0)
(0.000378182 0 0)
(0.000408992 0 0)
(0.000436588 0 0)
(0.000461594 0 0)
(0.00048682 0 0)
(0.000513635 0 0)
(0.000539969 0 0)
(0.00057143 0 0)
(0.000599144 0 0)
(0.00062349 0 0)
(0.000651381 0 0)
(0.000677697 0 0)
(0.00070335 0 0)
(0.000735466 0 0)
(0.00076467 0 0)
(0.00078837 0 0)
(0.00081535 0 0)
(0.00084035 0 0)
(0.000857832 0 0)
(0.000873983 0 0)
(0.000893337 0 0)
(0.000914647 0 0)
(0.000936074 0 0)
(0.000964762 0 0)
(0.000989483 0 0)
(0.00101614 0 0)
(0.00104259 0 0)
(0.00106135 0 0)
(0.00108052 0 0)
(0.00110032 0 0)
(0.00111904 0 0)
(0.00114414 0 0)
(0.00117125 0 0)
(0.00119608 0 0)
(0.00122236 0 0)
(0.00125038 0 0)
(0.00128252 0 0)
(0.00130844 0 0)
(0.00133202 0 0)
(0.00135623 0 0)
(0.00138007 0 0)
(0.00140705 0 0)
(0.00143466 0 0)
(0.001466 0 0)
(0.00149759 0 0)
(0.00152741 0 0)
(0.0015628 0 0)
(0.00160014 0 0)
(0.00163712 0 0)
(0.00166992 0 0)
(0.00170808 0 0)
(0.00174765 0 0)
(0.00178554 0 0)
(0.0018258 0 0)
(0.00187011 0 0)
(0.00191843 0 0)
(0.00198067 0 0)
(0.00206414 0 0)
(0.00216809 0 0)
(0.0022977 0 0)
(0.00249603 0 0)
(0.00284386 0 0)
(0.00354837 0 0)
(0.00424463 0 0)
(0.00432891 0 0)
(0.00430914 0 0)
(0.00427843 0 0)
(0.00425777 0 0)
(0.00424595 0 0)
(0.00423274 0 0)
(0.00422122 0 0)
(0.00421381 0 0)
(0.00420836 0 0)
(0.00420616 0 0)
(0.00420472 0 0)
(0.00420121 0 0)
(0.00420024 0 0)
(0.00419824 0 0)
(0.00419175 0 0)
(0.00418658 0 0)
(0.00418554 0 0)
(0.00418668 0 0)
(0.00418192 0 0)
(0.0041749 0 0)
(0.00417131 0 0)
(0.00416702 0 0)
(0.00415856 0 0)
(0.00414753 0 0)
(0.00413878 0 0)
(0.00413928 0 0)
)
;

boundaryField
{
    inlet
    {
        type            fixedValue;
        value           uniform (0 0 0);
    }
    outlet
    {
        type            zeroGradient;
    }
    yzfaces
    {
        type            empty;
    }
}


// ************************************************************************* //
