/*--------------------------------*- C++ -*----------------------------------*\
| =========                 |                                                 |
| \\      /  F ield         | foam-extend: Open Source CFD                    |
|  \\    /   O peration     | Version:     5.0                                |
|   \\  /    A nd           | Web:         http://www.foam-extend.org         |
|    \\/     M anipulation  |                                                 |
\*---------------------------------------------------------------------------*/
FoamFile
{
    version     2.0;
    format      ascii;
    class       volScalarField;
    location    "2";
    object      alpha.gas;
}
// * * * * * * * * * * * * * * * * * * * * * * * * * * * * * * * * * * * * * //

dimensions      [0 0 0 0 0 0 0];

internalField   nonuniform List<scalar> 
100
(
0.13617
0.116575
0.10649
0.0959389
0.0919134
0.0864008
0.0806311
0.0792118
0.0722507
0.0686999
0.0686002
0.0640878
0.0613835
0.0574653
0.0533837
0.0476202
0.0427749
0.0340772
0.0105291
0.0284015
0.0275806
0.0271698
0.026969
0.0268622
0.0267904
0.0266947
0.0265195
0.0262411
0.0258176
0.0252179
0.0244159
0.0234048
0.022173
0.0207434
0.0191331
0.0174346
0.0157466
0.0141926
0.0128815
0.0118727
0.0111604
0.0106948
0.0104041
0.0102353
0.0101322
0.0100771
0.0100446
0.0100225
0.0100118
0.0100051
0.010003
0.0100002
0.00999851
0.00999842
0.00999954
0.00999846
0.00999817
0.00999789
0.00999789
0.00999846
0.00999804
0.00999757
0.00999774
0.00999651
0.00999778
0.00999894
0.0100015
0.0100031
0.010003
0.0100047
0.0100043
0.0100019
0.0100024
0.0100013
0.0100009
0.00999883
0.0100009
0.010002
0.00999914
0.00999665
0.00999846
0.00999874
0.00999837
0.00999676
0.00999755
0.00999881
0.00999633
0.00999632
0.00999907
0.00999908
0.0100012
0.00999837
0.00999829
0.00999979
0.00999885
0.00999938
0.0100015
0.0100026
0.0100043
0.0100059
)
;

boundaryField
{
    inlet
    {
        type            fixedValue;
        value           uniform 0.2;
    }
    outlet
    {
        type            zeroGradient;
    }
    yzfaces
    {
        type            empty;
    }
}


// ************************************************************************* //
