/*--------------------------------*- C++ -*----------------------------------*\
| =========                 |                                                 |
| \\      /  F ield         | foam-extend: Open Source CFD                    |
|  \\    /   O peration     | Version:     5.0                                |
|   \\  /    A nd           | Web:         http://www.foam-extend.org         |
|    \\/     M anipulation  |                                                 |
\*---------------------------------------------------------------------------*/
FoamFile
{
    version     2.0;
    format      ascii;
    class       volScalarField;
    location    "2";
    object      H2O.gas;
}
// * * * * * * * * * * * * * * * * * * * * * * * * * * * * * * * * * * * * * //

dimensions      [0 0 0 0 0 0 0];

internalField   nonuniform List<scalar> 
100
(
0.000265187
0.000227026
0.000207386
0.000186838
0.000178999
0.000168263
0.000157027
0.000154263
0.000140706
0.000133791
0.000133597
0.000124809
0.000119543
0.000111912
0.000103963
9.27389e-05
8.3303e-05
6.63644e-05
2.05051e-05
0.00189467
0.00324955
0.00478532
0.00646251
0.00822821
0.0100589
0.0118851
0.0136453
0.0152745
0.0167165
0.0178893
0.0187128
0.0191477
0.0191448
0.0187268
0.017863
0.0167123
0.0153652
0.0140152
0.0128173
0.0118483
0.0111523
0.0106967
0.0104124
0.010234
0.0101418
0.0100815
0.0100512
0.0100277
0.0100209
0.0100177
0.0100114
0.0100056
0.0100066
0.0100017
0.0100031
0.0100053
0.0100022
0.0100048
0.0100042
0.00999858
0.00999496
0.00999711
0.00999771
0.0100013
0.00999463
0.00999866
0.0099986
0.0100009
0.0100009
0.0100005
0.0100044
0.0100076
0.0100054
0.010003
0.0100062
0.0100101
0.0100049
0.0100036
0.0100051
0.0100025
0.00999882
0.00999388
0.00999337
0.00999031
0.00999966
0.00999473
0.00999402
0.0099941
0.00999553
0.0100041
0.00999935
0.0099971
0.00999427
0.009993
0.00999859
0.00999533
0.0099881
0.00998765
0.00999502
0.00999115
)
;

boundaryField
{
    inlet
    {
        type            fixedValue;
        value           uniform 0;
    }
    outlet
    {
        type            zeroGradient;
    }
    yzfaces
    {
        type            empty;
    }
}


// ************************************************************************* //
