/*--------------------------------*- C++ -*----------------------------------*\
| =========                 |                                                 |
| \\      /  F ield         | foam-extend: Open Source CFD                    |
|  \\    /   O peration     | Version:     5.0                                |
|   \\  /    A nd           | Web:         http://www.foam-extend.org         |
|    \\/     M anipulation  |                                                 |
\*---------------------------------------------------------------------------*/
FoamFile
{
    version     2.0;
    format      ascii;
    class       surfaceScalarField;
    location    "2";
    object      phi;
}
// * * * * * * * * * * * * * * * * * * * * * * * * * * * * * * * * * * * * * //

dimensions      [0 3 -1 0 0 0 0];

internalField   nonuniform List<scalar> 
99
(
1.22307e-06
1.21826e-06
1.21903e-06
1.22089e-06
1.21887e-06
1.22233e-06
1.22002e-06
1.21698e-06
1.21288e-06
1.20894e-06
1.2129e-06
1.2097e-06
1.21308e-06
1.21578e-06
1.21571e-06
1.2133e-06
1.212e-06
1.21316e-06
1.21382e-06
1.21341e-06
1.21431e-06
1.2148e-06
1.21317e-06
1.21292e-06
1.21226e-06
1.21235e-06
1.21272e-06
1.21218e-06
1.2111e-06
1.20949e-06
1.20853e-06
1.20921e-06
1.20866e-06
1.20754e-06
1.20792e-06
1.20796e-06
1.20883e-06
1.20806e-06
1.20719e-06
1.207e-06
1.20732e-06
1.20679e-06
1.2061e-06
1.20652e-06
1.20706e-06
1.20751e-06
1.20598e-06
1.20739e-06
1.20802e-06
1.20722e-06
1.20692e-06
1.20561e-06
1.20564e-06
1.20348e-06
1.20368e-06
1.20227e-06
1.20241e-06
1.20116e-06
1.19865e-06
1.1982e-06
1.1987e-06
1.19896e-06
1.19809e-06
1.19838e-06
1.19765e-06
1.19641e-06
1.1957e-06
1.19556e-06
1.19697e-06
1.19514e-06
1.19611e-06
1.19613e-06
1.19651e-06
1.19781e-06
1.19859e-06
1.19774e-06
1.19735e-06
1.19869e-06
1.19739e-06
1.19675e-06
1.19834e-06
1.19697e-06
1.19807e-06
1.19949e-06
1.19848e-06
1.1974e-06
1.1966e-06
1.19642e-06
1.19643e-06
1.19708e-06
1.19371e-06
1.19458e-06
1.19429e-06
1.19412e-06
1.19352e-06
1.19233e-06
1.19139e-06
1.19188e-06
1.19231e-06
)
;

boundaryField
{
    inlet
    {
        type            calculated;
        value           uniform -1.225e-06;
    }
    outlet
    {
        type            calculated;
        value           uniform 1.19324e-06;
    }
    yzfaces
    {
        type            empty;
    }
}


// ************************************************************************* //
