/*--------------------------------*- C++ -*----------------------------------*\
| =========                 |                                                 |
| \\      /  F ield         | foam-extend: Open Source CFD                    |
|  \\    /   O peration     | Version:     5.0                                |
|   \\  /    A nd           | Web:         http://www.foam-extend.org         |
|    \\/     M anipulation  |                                                 |
\*---------------------------------------------------------------------------*/
FoamFile
{
    version     2.0;
    format      ascii;
    class       volScalarField;
    location    "2";
    object      S.gas;
}
// * * * * * * * * * * * * * * * * * * * * * * * * * * * * * * * * * * * * * //

dimensions      [0 0 0 0 0 0 0];

internalField   nonuniform List<scalar> 
100
(
0.684508
0.592671
0.530016
0.483642
0.46161
0.433496
0.409544
0.401118
0.370554
0.350808
0.335097
0.325305
0.303388
0.283004
0.266293
0.247837
0.215084
0.16852
0.150355
0.142008
0.137903
0.135849
0.134845
0.134311
0.133952
0.133473
0.132598
0.131205
0.129088
0.126089
0.122079
0.117024
0.110865
0.103717
0.0956657
0.0871728
0.0787328
0.070963
0.0644076
0.0593637
0.0558018
0.0534742
0.0520207
0.0511765
0.050661
0.0503854
0.0502228
0.0501127
0.050059
0.0500256
0.0500148
0.0500009
0.0499925
0.0499921
0.0499977
0.0499923
0.0499908
0.0499894
0.0499894
0.0499923
0.0499902
0.0499878
0.0499887
0.0499826
0.0499889
0.0499947
0.0500076
0.0500154
0.0500151
0.0500236
0.0500213
0.0500093
0.0500121
0.0500066
0.0500044
0.0499942
0.0500045
0.05001
0.0499957
0.0499832
0.0499923
0.0499937
0.0499919
0.0499838
0.0499878
0.0499941
0.0499816
0.0499816
0.0499954
0.0499954
0.0500062
0.0499918
0.0499914
0.049999
0.0499943
0.0499969
0.0500073
0.0500128
0.0500216
0.0500296
)
;

boundaryField
{
    inlet
    {
        type            calculated;
        value           uniform 1;
    }
    outlet
    {
        type            calculated;
        value           uniform 0.0500296;
    }
    yzfaces
    {
        type            empty;
    }
}


// ************************************************************************* //
