/*--------------------------------*- C++ -*----------------------------------*\
| =========                 |                                                 |
| \\      /  F ield         | foam-extend: Open Source CFD                    |
|  \\    /   O peration     | Version:     5.0                                |
|   \\  /    A nd           | Web:         http://www.foam-extend.org         |
|    \\/     M anipulation  |                                                 |
\*---------------------------------------------------------------------------*/
FoamFile
{
    version     2.0;
    format      ascii;
    class       volVectorField;
    location    "2";
    object      U.gas;
}
// * * * * * * * * * * * * * * * * * * * * * * * * * * * * * * * * * * * * * //

dimensions      [0 1 -1 0 0 0 0];

internalField   nonuniform List<vector> 
100
(
(0.00725528 0 0)
(0.0082469 0 0)
(0.00906195 0 0)
(0.0097627 0 0)
(0.0100714 0 0)
(0.0105727 0 0)
(0.0109906 0 0)
(0.0110475 0 0)
(0.011688 0 0)
(0.0119495 0 0)
(0.0121997 0 0)
(0.0123158 0 0)
(0.0128176 0 0)
(0.0131566 0 0)
(0.0133384 0 0)
(0.0135542 0 0)
(0.0141054 0 0)
(0.0145206 0 0)
(0.012762 0 0)
(0.0118686 0 0)
(0.0114214 0 0)
(0.0111971 0 0)
(0.0110719 0 0)
(0.0110051 0 0)
(0.0109717 0 0)
(0.0109535 0 0)
(0.0109357 0 0)
(0.0108969 0 0)
(0.010827 0 0)
(0.0107145 0 0)
(0.010553 0 0)
(0.0103308 0 0)
(0.0100349 0 0)
(0.00964142 0 0)
(0.00915414 0 0)
(0.00856502 0 0)
(0.00789988 0 0)
(0.00719634 0 0)
(0.00651126 0 0)
(0.00591418 0 0)
(0.00544778 0 0)
(0.00511547 0 0)
(0.00489695 0 0)
(0.00476208 0 0)
(0.004687 0 0)
(0.00464256 0 0)
(0.00461579 0 0)
(0.00459986 0 0)
(0.00459229 0 0)
(0.00458791 0 0)
(0.00458305 0 0)
(0.00457878 0 0)
(0.00457557 0 0)
(0.00457105 0 0)
(0.00456777 0 0)
(0.00456593 0 0)
(0.00456247 0 0)
(0.00456011 0 0)
(0.00455313 0 0)
(0.00454709 0 0)
(0.00454753 0 0)
(0.0045488 0 0)
(0.00454634 0 0)
(0.00454518 0 0)
(0.00454482 0 0)
(0.00454126 0 0)
(0.00453749 0 0)
(0.00453759 0 0)
(0.00454075 0 0)
(0.00453983 0 0)
(0.0045391 0 0)
(0.0045412 0 0)
(0.00454091 0 0)
(0.00454435 0 0)
(0.004548 0 0)
(0.00454733 0 0)
(0.00454411 0 0)
(0.00454683 0 0)
(0.00454672 0 0)
(0.00454211 0 0)
(0.00454274 0 0)
(0.00454347 0 0)
(0.00454381 0 0)
(0.00454863 0 0)
(0.00454913 0 0)
(0.0045459 0 0)
(0.00454322 0 0)
(0.00454034 0 0)
(0.00453916 0 0)
(0.00454106 0 0)
(0.00453672 0 0)
(0.00453319 0 0)
(0.00453195 0 0)
(0.00453104 0 0)
(0.00452932 0 0)
(0.0045262 0 0)
(0.00452332 0 0)
(0.00452336 0 0)
(0.00452565 0 0)
(0.00452829 0 0)
)
;

boundaryField
{
    inlet
    {
        type            fixedValue;
        value           uniform (0.005 0 0);
    }
    outlet
    {
        type            zeroGradient;
    }
    yzfaces
    {
        type            empty;
    }
}


// ************************************************************************* //
