/*--------------------------------*- C++ -*----------------------------------*\
| =========                 |                                                 |
| \\      /  F ield         | foam-extend: Open Source CFD                    |
|  \\    /   O peration     | Version:     5.0                                |
|   \\  /    A nd           | Web:         http://www.foam-extend.org         |
|    \\/     M anipulation  |                                                 |
\*---------------------------------------------------------------------------*/
FoamFile
{
    version     2.0;
    format      ascii;
    class       volVectorField;
    location    "2";
    object      U.water;
}
// * * * * * * * * * * * * * * * * * * * * * * * * * * * * * * * * * * * * * //

dimensions      [0 1 -1 0 0 0 0];

internalField   nonuniform List<vector> 
100
(
(9.43602e-05 0 0)
(0.000232281 0 0)
(0.000364054 0 0)
(0.000499243 0 0)
(0.000613025 0 0)
(0.000704049 0 0)
(0.000818449 0 0)
(0.000905232 0 0)
(0.000997487 0 0)
(0.00115606 0 0)
(0.00128508 0 0)
(0.0013898 0 0)
(0.00151552 0 0)
(0.00172038 0 0)
(0.00192216 0 0)
(0.00212443 0 0)
(0.00244069 0 0)
(0.00300943 0 0)
(0.00357113 0 0)
(0.00380901 0 0)
(0.00392008 0 0)
(0.00397644 0 0)
(0.00400164 0 0)
(0.00401193 0 0)
(0.00401785 0 0)
(0.00402317 0 0)
(0.00403398 0 0)
(0.0040505 0 0)
(0.00407369 0 0)
(0.00410681 0 0)
(0.00415349 0 0)
(0.00421893 0 0)
(0.00429847 0 0)
(0.00438594 0 0)
(0.0044826 0 0)
(0.00458326 0 0)
(0.0046786 0 0)
(0.00475951 0 0)
(0.00482017 0 0)
(0.0048646 0 0)
(0.0048964 0 0)
(0.00491608 0 0)
(0.00492576 0 0)
(0.00493243 0 0)
(0.00493841 0 0)
(0.00494282 0 0)
(0.00494187 0 0)
(0.00494241 0 0)
(0.00494718 0 0)
(0.00494704 0 0)
(0.00494493 0 0)
(0.00494169 0 0)
(0.0049391 0 0)
(0.00493475 0 0)
(0.00493071 0 0)
(0.00492822 0 0)
(0.00492567 0 0)
(0.00492342 0 0)
(0.00491569 0 0)
(0.00490964 0 0)
(0.00490973 0 0)
(0.00491129 0 0)
(0.00491011 0 0)
(0.00490893 0 0)
(0.004908 0 0)
(0.00490396 0 0)
(0.00489998 0 0)
(0.00489814 0 0)
(0.00490072 0 0)
(0.00489988 0 0)
(0.00489806 0 0)
(0.00490006 0 0)
(0.00490093 0 0)
(0.00490436 0 0)
(0.00490865 0 0)
(0.00490853 0 0)
(0.00490603 0 0)
(0.00490795 0 0)
(0.00490804 0 0)
(0.0049041 0 0)
(0.0049061 0 0)
(0.00490653 0 0)
(0.00490594 0 0)
(0.00491111 0 0)
(0.00491197 0 0)
(0.00490765 0 0)
(0.00490373 0 0)
(0.00490178 0 0)
(0.00490148 0 0)
(0.0049028 0 0)
(0.0048972 0 0)
(0.004892 0 0)
(0.00489329 0 0)
(0.00489236 0 0)
(0.0048908 0 0)
(0.00488712 0 0)
(0.00488272 0 0)
(0.00488175 0 0)
(0.0048836 0 0)
(0.00488639 0 0)
)
;

boundaryField
{
    inlet
    {
        type            fixedValue;
        value           uniform (0 0 0);
    }
    outlet
    {
        type            zeroGradient;
    }
    yzfaces
    {
        type            empty;
    }
}


// ************************************************************************* //
