/*--------------------------------*- C++ -*----------------------------------*\
| =========                 |                                                 |
| \\      /  F ield         | foam-extend: Open Source CFD                    |
|  \\    /   O peration     | Version:     5.0                                |
|   \\  /    A nd           | Web:         http://www.foam-extend.org         |
|    \\/     M anipulation  |                                                 |
\*---------------------------------------------------------------------------*/
FoamFile
{
    version     2.0;
    format      ascii;
    class       volScalarField;
    location    "6";
    object      alpha.gas;
}
// * * * * * * * * * * * * * * * * * * * * * * * * * * * * * * * * * * * * * //

dimensions      [0 0 0 0 0 0 0];

internalField   nonuniform List<scalar> 
100
(
0.179899
0.170874
0.164007
0.158427
0.153669
0.149526
0.14588
0.142618
0.139646
0.137006
0.134577
0.132344
0.130219
0.128291
0.126453
0.124785
0.123173
0.121701
0.120261
0.118923
0.117589
0.116402
0.115184
0.114093
0.113009
0.111948
0.110943
0.10997
0.109056
0.108169
0.107287
0.106425
0.105605
0.104775
0.104056
0.103337
0.102606
0.101925
0.101277
0.100619
0.0999806
0.0993736
0.0987166
0.0981472
0.0975367
0.0969656
0.0964115
0.0958641
0.0953647
0.0948406
0.094351
0.0938733
0.0933885
0.0929324
0.0924749
0.0920177
0.0915692
0.0911374
0.0907402
0.0903325
0.0899252
0.089489
0.0890858
0.0886818
0.0882893
0.0879024
0.0875272
0.0871842
0.0868344
0.0864855
0.0861407
0.085815
0.0854781
0.0851296
0.0848148
0.0844688
0.0841457
0.0838037
0.083486
0.0831738
0.0828666
0.0825305
0.0822474
0.081957
0.0816808
0.0813888
0.0810979
0.0808378
0.0806131
0.0803351
0.0800906
0.0798127
0.0795293
0.0792454
0.0789788
0.0787046
0.0784472
0.0782329
0.0780143
0.0778123
)
;

boundaryField
{
    inlet
    {
        type            fixedValue;
        value           uniform 0.2;
    }
    outlet
    {
        type            zeroGradient;
    }
    yzfaces
    {
        type            empty;
    }
}


// ************************************************************************* //
