/*--------------------------------*- C++ -*----------------------------------*\
| =========                 |                                                 |
| \\      /  F ield         | foam-extend: Open Source CFD                    |
|  \\    /   O peration     | Version:     5.0                                |
|   \\  /    A nd           | Web:         http://www.foam-extend.org         |
|    \\/     M anipulation  |                                                 |
\*---------------------------------------------------------------------------*/
FoamFile
{
    version     2.0;
    format      ascii;
    class       volScalarField;
    location    "6";
    object      CO2.gas;
}
// * * * * * * * * * * * * * * * * * * * * * * * * * * * * * * * * * * * * * //

dimensions      [0 0 0 0 0 0 0];

internalField   nonuniform List<scalar> 
100
(
0.179956
0.170924
0.164004
0.158481
0.153669
0.149426
0.145734
0.142451
0.139398
0.136811
0.134421
0.132239
0.130066
0.128173
0.126321
0.124729
0.123109
0.121708
0.120264
0.11898
0.117591
0.116473
0.115206
0.114164
0.113097
0.111989
0.111008
0.110004
0.109116
0.108215
0.107311
0.106419
0.105595
0.104713
0.104043
0.103337
0.102594
0.101925
0.101315
0.100645
0.0999961
0.0994093
0.0987144
0.0981583
0.0975081
0.0969309
0.0963741
0.0958253
0.0953405
0.094816
0.0943309
0.0938668
0.0933792
0.0929442
0.0924862
0.0920297
0.0915549
0.091134
0.0907518
0.0903461
0.0899343
0.0894738
0.0890687
0.0886625
0.0882635
0.0878658
0.0874924
0.0871647
0.0868092
0.0864686
0.0861121
0.0858008
0.0854522
0.0850954
0.0847937
0.0844233
0.0840959
0.0837379
0.0834175
0.0831101
0.0828046
0.082443
0.0821645
0.0818713
0.0815932
0.0812978
0.0809942
0.080745
0.080544
0.0802505
0.0800201
0.079729
0.0794251
0.0791292
0.0788626
0.0785763
0.0783264
0.0781289
0.0779221
0.0777325
)
;

boundaryField
{
    inlet
    {
        type            fixedValue;
        value           uniform 0.2;
    }
    outlet
    {
        type            zeroGradient;
    }
    yzfaces
    {
        type            empty;
    }
}


// ************************************************************************* //
