/*--------------------------------*- C++ -*----------------------------------*\
| =========                 |                                                 |
| \\      /  F ield         | foam-extend: Open Source CFD                    |
|  \\    /   O peration     | Version:     5.0                                |
|   \\  /    A nd           | Web:         http://www.foam-extend.org         |
|    \\/     M anipulation  |                                                 |
\*---------------------------------------------------------------------------*/
FoamFile
{
    version     2.0;
    format      ascii;
    class       volScalarField;
    location    "6";
    object      H2O.water;
}
// * * * * * * * * * * * * * * * * * * * * * * * * * * * * * * * * * * * * * //

dimensions      [0 0 0 0 0 0 0];

internalField   nonuniform List<scalar> 
100
(
0.020108
0.0291347
0.0359927
0.0415865
0.0463313
0.0504399
0.0540659
0.0573141
0.0602466
0.0629044
0.0653475
0.0676027
0.0696985
0.0716429
0.0734692
0.0751814
0.0767875
0.0783033
0.079742
0.0811157
0.0824126
0.0836499
0.0848323
0.0859605
0.087059
0.0880849
0.089109
0.0900587
0.0909944
0.0918695
0.0927345
0.0935697
0.0943862
0.0951688
0.0959332
0.0966639
0.0973819
0.0980746
0.0987599
0.0994074
0.100035
0.100662
0.101281
0.101864
0.102433
0.102998
0.103548
0.104094
0.104609
0.105132
0.105626
0.106119
0.106601
0.107081
0.107538
0.107996
0.108414
0.108859
0.109274
0.109684
0.110086
0.110492
0.110893
0.111294
0.111678
0.112051
0.112428
0.112791
0.113133
0.113492
0.113821
0.114166
0.114487
0.114824
0.115156
0.115469
0.115786
0.116105
0.116418
0.116737
0.117046
0.117345
0.117634
0.11792
0.118192
0.118479
0.11875
0.119025
0.119285
0.119539
0.119804
0.120061
0.120313
0.120577
0.120843
0.121098
0.121366
0.121605
0.121841
0.122062
)
;

boundaryField
{
    inlet
    {
        type            fixedValue;
        value           uniform 0;
    }
    outlet
    {
        type            zeroGradient;
    }
    yzfaces
    {
        type            empty;
    }
}


// ************************************************************************* //
