/*--------------------------------*- C++ -*----------------------------------*\
| =========                 |                                                 |
| \\      /  F ield         | foam-extend: Open Source CFD                    |
|  \\    /   O peration     | Version:     5.0                                |
|   \\  /    A nd           | Web:         http://www.foam-extend.org         |
|    \\/     M anipulation  |                                                 |
\*---------------------------------------------------------------------------*/
FoamFile
{
    version     2.0;
    format      ascii;
    class       surfaceScalarField;
    location    "6";
    object      phi;
}
// * * * * * * * * * * * * * * * * * * * * * * * * * * * * * * * * * * * * * //

dimensions      [0 3 -1 0 0 0 0];

internalField   nonuniform List<scalar> 
99
(
1.22491e-05
1.22409e-05
1.22434e-05
1.22473e-05
1.22486e-05
1.22335e-05
1.22181e-05
1.22093e-05
1.22257e-05
1.22232e-05
1.22283e-05
1.22126e-05
1.2211e-05
1.22178e-05
1.22226e-05
1.22283e-05
1.22352e-05
1.22371e-05
1.22376e-05
1.22219e-05
1.22153e-05
1.21997e-05
1.22001e-05
1.22064e-05
1.22027e-05
1.22107e-05
1.22034e-05
1.22028e-05
1.22138e-05
1.22e-05
1.22002e-05
1.21952e-05
1.21943e-05
1.22046e-05
1.22072e-05
1.22042e-05
1.22098e-05
1.22153e-05
1.22169e-05
1.22167e-05
1.22192e-05
1.22246e-05
1.22215e-05
1.22154e-05
1.22162e-05
1.22141e-05
1.22134e-05
1.22161e-05
1.22131e-05
1.22186e-05
1.22223e-05
1.22205e-05
1.22282e-05
1.22253e-05
1.22234e-05
1.22255e-05
1.22166e-05
1.22216e-05
1.22162e-05
1.22157e-05
1.22067e-05
1.22114e-05
1.22066e-05
1.221e-05
1.22129e-05
1.22119e-05
1.22114e-05
1.22075e-05
1.22116e-05
1.22159e-05
1.22111e-05
1.22136e-05
1.22191e-05
1.22133e-05
1.22169e-05
1.22192e-05
1.22119e-05
1.22127e-05
1.22064e-05
1.22018e-05
1.22008e-05
1.2199e-05
1.2203e-05
1.22025e-05
1.22014e-05
1.21996e-05
1.2201e-05
1.21996e-05
1.21981e-05
1.22e-05
1.21982e-05
1.21969e-05
1.21929e-05
1.21967e-05
1.21934e-05
1.2189e-05
1.21888e-05
1.21892e-05
1.21907e-05
)
;

boundaryField
{
    inlet
    {
        type            calculated;
        value           uniform -1.225e-05;
    }
    outlet
    {
        type            calculated;
        value           uniform 1.21876e-05;
    }
    yzfaces
    {
        type            empty;
    }
}


// ************************************************************************* //
