/*--------------------------------*- C++ -*----------------------------------*\
| =========                 |                                                 |
| \\      /  F ield         | foam-extend: Open Source CFD                    |
|  \\    /   O peration     | Version:     5.0                                |
|   \\  /    A nd           | Web:         http://www.foam-extend.org         |
|    \\/     M anipulation  |                                                 |
\*---------------------------------------------------------------------------*/
FoamFile
{
    version     2.0;
    format      ascii;
    class       surfaceScalarField;
    location    "6";
    object      phi.gas;
}
// * * * * * * * * * * * * * * * * * * * * * * * * * * * * * * * * * * * * * //

dimensions      [0 3 -1 0 0 0 0];

internalField   nonuniform List<scalar> 
99
(
6.98037e-05
7.30581e-05
7.58675e-05
7.83757e-05
8.06945e-05
8.27281e-05
8.45889e-05
8.63911e-05
8.82347e-05
8.97964e-05
9.13344e-05
9.26912e-05
9.40961e-05
9.54918e-05
9.67956e-05
9.80522e-05
9.92742e-05
0.000100413
0.000101517
0.000102487
0.000103481
0.000104368
0.000105373
0.00010636
0.000107308
0.000108335
0.000109194
0.000110082
0.00011104
0.000111793
0.000112683
0.000113497
0.000114357
0.000115252
0.000115992
0.000116729
0.000117536
0.000118279
0.000118994
0.000119721
0.000120435
0.000121217
0.000121898
0.000122536
0.000123261
0.000123909
0.000124561
0.000125206
0.000125788
0.00012646
0.000127083
0.000127657
0.000128314
0.000128849
0.000129412
0.000130035
0.000130521
0.000131095
0.000131556
0.000132092
0.00013258
0.000133215
0.000133712
0.000134299
0.000134881
0.000135403
0.000135885
0.000136319
0.000136858
0.000137401
0.000137823
0.000138327
0.000138904
0.000139315
0.000139854
0.000140396
0.000140825
0.000141341
0.00014174
0.000142149
0.00014265
0.000143116
0.000143604
0.000144039
0.000144474
0.000144925
0.000145373
0.000145703
0.000146084
0.000146521
0.000146922
0.000147389
0.000147831
0.000148335
0.00014875
0.000149136
0.000149494
0.000149834
0.000150176
)
;

boundaryField
{
    inlet
    {
        type            fixedValue;
        value           uniform -6.125e-05;
    }
    outlet
    {
        type            calculated;
        value           uniform 0.000150265;
    }
    yzfaces
    {
        type            empty;
    }
}


// ************************************************************************* //
