/*--------------------------------*- C++ -*----------------------------------*\
| =========                 |                                                 |
| \\      /  F ield         | foam-extend: Open Source CFD                    |
|  \\    /   O peration     | Version:     5.0                                |
|   \\  /    A nd           | Web:         http://www.foam-extend.org         |
|    \\/     M anipulation  |                                                 |
\*---------------------------------------------------------------------------*/
FoamFile
{
    version     2.0;
    format      ascii;
    class       volVectorField;
    location    "6";
    object      U.gas;
}
// * * * * * * * * * * * * * * * * * * * * * * * * * * * * * * * * * * * * * //

dimensions      [0 1 -1 0 0 0 0];

internalField   nonuniform List<vector> 
100
(
(0.0555787 0 0)
(0.0584773 0 0)
(0.0608926 0 0)
(0.0630315 0 0)
(0.0649728 0 0)
(0.0667088 0 0)
(0.0682631 0 0)
(0.0697257 0 0)
(0.0712009 0 0)
(0.0725827 0 0)
(0.0738686 0 0)
(0.0750498 0 0)
(0.0761865 0 0)
(0.0773136 0 0)
(0.078439 0 0)
(0.0794863 0 0)
(0.0805325 0 0)
(0.0814999 0 0)
(0.0824477 0 0)
(0.0832863 0 0)
(0.0841167 0 0)
(0.0848597 0 0)
(0.0856649 0 0)
(0.0864691 0 0)
(0.0872699 0 0)
(0.0880732 0 0)
(0.088833 0 0)
(0.0895502 0 0)
(0.0902992 0 0)
(0.0909885 0 0)
(0.0916449 0 0)
(0.0923267 0 0)
(0.0929787 0 0)
(0.0937087 0 0)
(0.094365 0 0)
(0.0949792 0 0)
(0.0956232 0 0)
(0.0962637 0 0)
(0.096867 0 0)
(0.0974642 0 0)
(0.0980524 0 0)
(0.0986411 0 0)
(0.0992625 0 0)
(0.0997557 0 0)
(0.100314 0 0)
(0.100854 0 0)
(0.101378 0 0)
(0.10192 0 0)
(0.102409 0 0)
(0.102942 0 0)
(0.10347 0 0)
(0.103961 0 0)
(0.104482 0 0)
(0.104971 0 0)
(0.105425 0 0)
(0.105905 0 0)
(0.106348 0 0)
(0.106789 0 0)
(0.107211 0 0)
(0.107625 0 0)
(0.108025 0 0)
(0.108485 0 0)
(0.108928 0 0)
(0.10937 0 0)
(0.109837 0 0)
(0.110281 0 0)
(0.1107 0 0)
(0.111069 0 0)
(0.111473 0 0)
(0.111915 0 0)
(0.112313 0 0)
(0.112683 0 0)
(0.113118 0 0)
(0.113531 0 0)
(0.113894 0 0)
(0.11434 0 0)
(0.114705 0 0)
(0.115092 0 0)
(0.115453 0 0)
(0.115785 0 0)
(0.116138 0 0)
(0.116545 0 0)
(0.116905 0 0)
(0.117288 0 0)
(0.117628 0 0)
(0.117987 0 0)
(0.118357 0 0)
(0.118688 0 0)
(0.11896 0 0)
(0.119328 0 0)
(0.119644 0 0)
(0.119996 0 0)
(0.120343 0 0)
(0.120717 0 0)
(0.121073 0 0)
(0.121402 0 0)
(0.121722 0 0)
(0.122008 0 0)
(0.122315 0 0)
(0.122578 0 0)
)
;

boundaryField
{
    inlet
    {
        type            fixedValue;
        value           uniform (0.05 0 0);
    }
    outlet
    {
        type            zeroGradient;
    }
    yzfaces
    {
        type            empty;
    }
}


// ************************************************************************* //
