/*--------------------------------*- C++ -*----------------------------------*\
| =========                 |                                                 |
| \\      /  F ield         | foam-extend: Open Source CFD                    |
|  \\    /   O peration     | Version:     5.0                                |
|   \\  /    A nd           | Web:         http://www.foam-extend.org         |
|    \\/     M anipulation  |                                                 |
\*---------------------------------------------------------------------------*/
FoamFile
{
    version     2.0;
    format      ascii;
    class       volVectorField;
    location    "6";
    object      U.water;
}
// * * * * * * * * * * * * * * * * * * * * * * * * * * * * * * * * * * * * * //

dimensions      [0 1 -1 0 0 0 0];

internalField   nonuniform List<vector> 
100
(
(5.46635e-05 0 0)
(0.000125363 0 0)
(0.000188575 0 0)
(0.000247454 0 0)
(0.000303059 0 0)
(0.000356207 0 0)
(0.000407276 0 0)
(0.000456788 0 0)
(0.000505735 0 0)
(0.000553466 0 0)
(0.000598831 0 0)
(0.000642889 0 0)
(0.000686048 0 0)
(0.000729555 0 0)
(0.000772053 0 0)
(0.000814153 0 0)
(0.000854904 0 0)
(0.000894971 0 0)
(0.000933766 0 0)
(0.000972139 0 0)
(0.00100959 0 0)
(0.00104698 0 0)
(0.00108321 0 0)
(0.00112088 0 0)
(0.00115663 0 0)
(0.00119341 0 0)
(0.00122998 0 0)
(0.0012655 0 0)
(0.00130124 0 0)
(0.00133564 0 0)
(0.00136968 0 0)
(0.00140454 0 0)
(0.00143942 0 0)
(0.00147452 0 0)
(0.00150927 0 0)
(0.00154156 0 0)
(0.00157488 0 0)
(0.00160824 0 0)
(0.00164031 0 0)
(0.00167224 0 0)
(0.00170455 0 0)
(0.00173656 0 0)
(0.00176889 0 0)
(0.00180145 0 0)
(0.00183248 0 0)
(0.00186497 0 0)
(0.00189605 0 0)
(0.00192735 0 0)
(0.00195813 0 0)
(0.00198814 0 0)
(0.0020194 0 0)
(0.00204908 0 0)
(0.0020792 0 0)
(0.00210915 0 0)
(0.00213774 0 0)
(0.00216741 0 0)
(0.00219657 0 0)
(0.0022258 0 0)
(0.00225403 0 0)
(0.00228078 0 0)
(0.0023084 0 0)
(0.0023373 0 0)
(0.00236756 0 0)
(0.002397 0 0)
(0.00242684 0 0)
(0.00245617 0 0)
(0.00248479 0 0)
(0.00251218 0 0)
(0.00253903 0 0)
(0.00256704 0 0)
(0.00259474 0 0)
(0.00262168 0 0)
(0.0026492 0 0)
(0.00267713 0 0)
(0.00270491 0 0)
(0.00273319 0 0)
(0.00276146 0 0)
(0.00278911 0 0)
(0.00281742 0 0)
(0.0028441 0 0)
(0.00287128 0 0)
(0.00289963 0 0)
(0.00292862 0 0)
(0.00295523 0 0)
(0.00298187 0 0)
(0.00300818 0 0)
(0.00303571 0 0)
(0.00306283 0 0)
(0.00308658 0 0)
(0.00311031 0 0)
(0.00313649 0 0)
(0.00316204 0 0)
(0.00318971 0 0)
(0.00321842 0 0)
(0.00324706 0 0)
(0.00327418 0 0)
(0.00330182 0 0)
(0.00332713 0 0)
(0.00335038 0 0)
(0.00337394 0 0)
)
;

boundaryField
{
    inlet
    {
        type            fixedValue;
        value           uniform (0 0 0);
    }
    outlet
    {
        type            zeroGradient;
    }
    yzfaces
    {
        type            empty;
    }
}


// ************************************************************************* //
