/*--------------------------------*- C++ -*----------------------------------*\
| =========                 |                                                 |
| \\      /  F ield         | foam-extend: Open Source CFD                    |
|  \\    /   O peration     | Version:     5.0                                |
|   \\  /    A nd           | Web:         http://www.foam-extend.org         |
|    \\/     M anipulation  |                                                 |
\*---------------------------------------------------------------------------*/
FoamFile
{
    version     2.0;
    format      ascii;
    class       volScalarField;
    location    "7";
    object      H2O.gas;
}
// * * * * * * * * * * * * * * * * * * * * * * * * * * * * * * * * * * * * * //

dimensions      [0 0 0 0 0 0 0];

internalField   nonuniform List<scalar> 
100
(
0.00038396
0.000279328
0.000278425
0.000276592
0.000274647
0.000272799
0.000271083
0.000269404
0.000267834
0.000266278
0.000264829
0.000263369
0.00026205
0.000260708
0.000259421
0.000258122
0.000256896
0.000255642
0.000254452
0.000253296
0.000252179
0.000251058
0.000249918
0.000248843
0.000247812
0.000246786
0.000245825
0.000244796
0.00024383
0.000242918
0.000242017
0.000241095
0.000240275
0.00023944
0.000238593
0.000237851
0.000237053
0.000236303
0.000235465
0.000234674
0.000233913
0.000233146
0.000232382
0.000231563
0.000230819
0.00023002
0.000229315
0.000228573
0.000227853
0.000227133
0.00022646
0.000225752
0.000225122
0.00022449
0.000223848
0.000223184
0.000222531
0.000221907
0.000221312
0.000220666
0.000220054
0.000219511
0.000218928
0.000218375
0.000217831
0.000217333
0.000216815
0.000216321
0.000215819
0.000215331
0.000214855
0.000214388
0.000213974
0.000213544
0.000213116
0.000212704
0.000212276
0.000211879
0.000211474
0.000211091
0.000210687
0.000210299
0.000209861
0.000209469
0.00020908
0.000208686
0.000208303
0.000207939
0.000207526
0.000207162
0.00020677
0.000206442
0.000206055
0.000205684
0.000205305
0.000204948
0.000204616
0.000204204
0.000203871
0.000203471
)
;

boundaryField
{
    inlet
    {
        type            fixedValue;
        value           uniform 0;
    }
    outlet
    {
        type            zeroGradient;
    }
    yzfaces
    {
        type            empty;
    }
}


// ************************************************************************* //
