/*--------------------------------*- C++ -*----------------------------------*\
| =========                 |                                                 |
| \\      /  F ield         | foam-extend: Open Source CFD                    |
|  \\    /   O peration     | Version:     5.0                                |
|   \\  /    A nd           | Web:         http://www.foam-extend.org         |
|    \\/     M anipulation  |                                                 |
\*---------------------------------------------------------------------------*/
FoamFile
{
    version     2.0;
    format      ascii;
    class       volScalarField;
    location    "7";
    object      H2O.water;
}
// * * * * * * * * * * * * * * * * * * * * * * * * * * * * * * * * * * * * * //

dimensions      [0 0 0 0 0 0 0];

internalField   nonuniform List<scalar> 
100
(
0.00276687
0.00451856
0.00601223
0.00739704
0.00870515
0.0099504
0.0111418
0.0122866
0.0133899
0.0144545
0.0154832
0.01648
0.017447
0.0183847
0.0192962
0.0201831
0.0210459
0.0218865
0.0227062
0.023505
0.0242858
0.0250474
0.0257917
0.0265197
0.0272315
0.0279287
0.0286103
0.0292788
0.0299327
0.030574
0.0312039
0.0318199
0.0324269
0.0330203
0.0336043
0.034177
0.0347408
0.0352939
0.0358379
0.0363729
0.0368992
0.0374167
0.037927
0.0384283
0.038922
0.0394079
0.0398869
0.0403588
0.0408238
0.0412828
0.0417324
0.0421781
0.0426151
0.0430493
0.0434739
0.0438963
0.0443121
0.0447217
0.045127
0.0455253
0.0459204
0.0463081
0.0466935
0.0470722
0.0474492
0.0478213
0.0481859
0.0485491
0.0489051
0.0492592
0.0496085
0.0499556
0.0502984
0.0506347
0.0509689
0.0512985
0.0516265
0.0519503
0.0522706
0.052588
0.0528996
0.0532102
0.0535172
0.0538214
0.0541241
0.0544202
0.0547164
0.0550063
0.0552969
0.0555833
0.0558672
0.0561477
0.0564248
0.0567019
0.0569752
0.0572468
0.0575155
0.0577804
0.0580458
0.0583132
)
;

boundaryField
{
    inlet
    {
        type            fixedValue;
        value           uniform 0;
    }
    outlet
    {
        type            zeroGradient;
    }
    yzfaces
    {
        type            empty;
    }
}


// ************************************************************************* //
