/*--------------------------------*- C++ -*----------------------------------*\
| =========                 |                                                 |
| \\      /  F ield         | foam-extend: Open Source CFD                    |
|  \\    /   O peration     | Version:     5.0                                |
|   \\  /    A nd           | Web:         http://www.foam-extend.org         |
|    \\/     M anipulation  |                                                 |
\*---------------------------------------------------------------------------*/
FoamFile
{
    version     2.0;
    format      ascii;
    class       surfaceScalarField;
    location    "7";
    object      phi;
}
// * * * * * * * * * * * * * * * * * * * * * * * * * * * * * * * * * * * * * //

dimensions      [0 3 -1 0 0 0 0];

internalField   nonuniform List<scalar> 
99
(
0.000122518
0.000122503
0.000122481
0.000122502
0.000122495
0.000122487
0.000122496
0.000122497
0.000122478
0.000122455
0.000122471
0.000122453
0.000122463
0.000122475
0.000122489
0.000122477
0.00012247
0.000122473
0.00012249
0.000122502
0.000122508
0.000122493
0.000122502
0.000122517
0.000122506
0.000122502
0.00012249
0.000122479
0.000122505
0.000122468
0.000122465
0.000122451
0.000122456
0.000122467
0.000122467
0.000122456
0.000122489
0.000122469
0.000122469
0.00012248
0.00012247
0.000122453
0.00012246
0.00012245
0.000122421
0.000122399
0.000122387
0.000122378
0.000122353
0.00012234
0.000122329
0.000122318
0.000122323
0.000122323
0.000122311
0.000122307
0.000122299
0.000122299
0.000122271
0.000122251
0.000122254
0.00012225
0.000122256
0.000122271
0.000122271
0.000122287
0.000122281
0.000122282
0.000122291
0.000122314
0.000122331
0.000122362
0.0001224
0.000122449
0.000122441
0.000122469
0.000122484
0.000122534
0.000122528
0.000122575
0.000122605
0.00012261
0.000122651
0.000122672
0.000122691
0.000122715
0.000122764
0.000122801
0.000122788
0.000122825
0.000122853
0.000122879
0.000122873
0.000122884
0.000122937
0.000122937
0.00012293
0.000122963
0.000122952
)
;

boundaryField
{
    inlet
    {
        type            calculated;
        value           uniform -0.0001225;
    }
    outlet
    {
        type            calculated;
        value           uniform 0.000122981;
    }
    yzfaces
    {
        type            empty;
    }
}


// ************************************************************************* //
