/*--------------------------------*- C++ -*----------------------------------*\
| =========                 |                                                 |
| \\      /  F ield         | foam-extend: Open Source CFD                    |
|  \\    /   O peration     | Version:     5.0                                |
|   \\  /    A nd           | Web:         http://www.foam-extend.org         |
|    \\/     M anipulation  |                                                 |
\*---------------------------------------------------------------------------*/
FoamFile
{
    version     2.0;
    format      ascii;
    class       surfaceScalarField;
    location    "7";
    object      phi.water;
}
// * * * * * * * * * * * * * * * * * * * * * * * * * * * * * * * * * * * * * //

dimensions      [0 3 -1 0 0 0 0];

internalField   nonuniform List<scalar> 
99
(
1.21642e-07
2.19075e-07
3.08848e-07
3.94927e-07
4.78598e-07
5.60173e-07
6.40223e-07
7.19122e-07
7.96662e-07
8.73352e-07
9.48956e-07
1.02383e-06
1.09754e-06
1.17092e-06
1.24327e-06
1.3151e-06
1.38605e-06
1.4569e-06
1.52703e-06
1.5963e-06
1.66497e-06
1.73301e-06
1.80135e-06
1.86869e-06
1.93546e-06
2.00176e-06
2.06694e-06
2.13333e-06
2.19974e-06
2.26366e-06
2.32835e-06
2.39298e-06
2.45603e-06
2.51878e-06
2.58249e-06
2.64295e-06
2.70676e-06
2.76773e-06
2.83115e-06
2.89342e-06
2.95499e-06
3.01589e-06
3.07769e-06
3.14045e-06
3.20114e-06
3.26365e-06
3.3231e-06
3.38494e-06
3.44486e-06
3.50567e-06
3.56504e-06
3.62591e-06
3.68467e-06
3.74363e-06
3.80161e-06
3.86134e-06
3.92017e-06
3.97839e-06
4.03543e-06
4.09415e-06
4.15279e-06
4.20778e-06
4.26629e-06
4.32301e-06
4.37975e-06
4.43527e-06
4.49095e-06
4.54503e-06
4.60019e-06
4.65519e-06
4.70917e-06
4.76385e-06
4.81684e-06
4.87013e-06
4.92249e-06
4.97445e-06
5.02716e-06
5.07985e-06
5.13086e-06
5.18273e-06
5.2349e-06
5.28561e-06
5.34008e-06
5.39096e-06
5.44274e-06
5.494e-06
5.54634e-06
5.59631e-06
5.64806e-06
5.69931e-06
5.75268e-06
5.80151e-06
5.85259e-06
5.90308e-06
5.95644e-06
6.00629e-06
6.05449e-06
6.10811e-06
6.15551e-06
)
;

boundaryField
{
    inlet
    {
        type            fixedValue;
        value           uniform 0;
    }
    outlet
    {
        type            calculated;
        value           uniform 6.2232e-06;
    }
    yzfaces
    {
        type            empty;
    }
}


// ************************************************************************* //
