/*--------------------------------*- C++ -*----------------------------------*\
| =========                 |                                                 |
| \\      /  F ield         | foam-extend: Open Source CFD                    |
|  \\    /   O peration     | Version:     5.0                                |
|   \\  /    A nd           | Web:         http://www.foam-extend.org         |
|    \\/     M anipulation  |                                                 |
\*---------------------------------------------------------------------------*/
FoamFile
{
    version     2.0;
    format      ascii;
    class       volVectorField;
    location    "7";
    object      U.water;
}
// * * * * * * * * * * * * * * * * * * * * * * * * * * * * * * * * * * * * * //

dimensions      [0 1 -1 0 0 0 0];

internalField   nonuniform List<vector> 
100
(
(6.43329e-05 0 0)
(0.00014457 0 0)
(0.000218915 0 0)
(0.000289728 0 0)
(0.000358402 0 0)
(0.000425504 0 0)
(0.00049127 0 0)
(0.00055594 0 0)
(0.000619659 0 0)
(0.000682456 0 0)
(0.000744633 0 0)
(0.000805929 0 0)
(0.000866729 0 0)
(0.000926795 0 0)
(0.000986395 0 0)
(0.00104526 0 0)
(0.00110369 0 0)
(0.00116154 0 0)
(0.0012192 0 0)
(0.00127626 0 0)
(0.00133283 0 0)
(0.00138878 0 0)
(0.00144441 0 0)
(0.0015 0 0)
(0.00155491 0 0)
(0.00160938 0 0)
(0.00166336 0 0)
(0.00171692 0 0)
(0.00177105 0 0)
(0.00182444 0 0)
(0.00187693 0 0)
(0.00192962 0 0)
(0.00198213 0 0)
(0.00203387 0 0)
(0.00208543 0 0)
(0.00213688 0 0)
(0.00218753 0 0)
(0.00223877 0 0)
(0.00228919 0 0)
(0.00234038 0 0)
(0.00239094 0 0)
(0.00244082 0 0)
(0.00249072 0 0)
(0.00254083 0 0)
(0.0025909 0 0)
(0.00264032 0 0)
(0.00269005 0 0)
(0.0027389 0 0)
(0.00278816 0 0)
(0.00283678 0 0)
(0.00288562 0 0)
(0.00293382 0 0)
(0.00298265 0 0)
(0.00303048 0 0)
(0.00307803 0 0)
(0.00312549 0 0)
(0.00317333 0 0)
(0.00322082 0 0)
(0.00326765 0 0)
(0.00331411 0 0)
(0.00336142 0 0)
(0.00340814 0 0)
(0.00345385 0 0)
(0.00350092 0 0)
(0.00354705 0 0)
(0.00359311 0 0)
(0.00363841 0 0)
(0.00368356 0 0)
(0.00372827 0 0)
(0.00377347 0 0)
(0.00381853 0 0)
(0.00386319 0 0)
(0.00390807 0 0)
(0.00395235 0 0)
(0.00399605 0 0)
(0.00403956 0 0)
(0.0040828 0 0)
(0.00412673 0 0)
(0.0041699 0 0)
(0.00421286 0 0)
(0.00425604 0 0)
(0.00429884 0 0)
(0.00434187 0 0)
(0.00438568 0 0)
(0.00442818 0 0)
(0.0044709 0 0)
(0.0045139 0 0)
(0.00455677 0 0)
(0.00459831 0 0)
(0.00464095 0 0)
(0.00468372 0 0)
(0.00472661 0 0)
(0.00476745 0 0)
(0.00480931 0 0)
(0.00485192 0 0)
(0.00489439 0 0)
(0.00493538 0 0)
(0.00497652 0 0)
(0.00501876 0 0)
(0.00505946 0 0)
)
;

boundaryField
{
    inlet
    {
        type            fixedValue;
        value           uniform (0 0 0);
    }
    outlet
    {
        type            zeroGradient;
    }
    yzfaces
    {
        type            empty;
    }
}


// ************************************************************************* //
