/*--------------------------------*- C++ -*----------------------------------*\
| =========                 |                                                 |
| \\      /  F ield         | foam-extend: Open Source CFD                    |
|  \\    /   O peration     | Version:     5.0                                |
|   \\  /    A nd           | Web:         http://www.foam-extend.org         |
|    \\/     M anipulation  |                                                 |
\*---------------------------------------------------------------------------*/
FoamFile
{
    version     2.0;
    format      ascii;
    class       volScalarField;
    location    "10";
    object      alpha.gas;
}
// * * * * * * * * * * * * * * * * * * * * * * * * * * * * * * * * * * * * * //

dimensions      [0 0 0 0 0 0 0];

internalField   nonuniform List<scalar> 
100
(
0.16893
0.158342
0.149074
0.146801
0.143517
0.138902
0.132412
0.127443
0.125176
0.124011
0.12315
0.120266
0.117164
0.113547
0.11052
0.108293
0.10591
0.10419
0.101606
0.0995979
0.0977941
0.0963808
0.0953145
0.0941139
0.0924533
0.0909835
0.0898149
0.0884394
0.0876112
0.0870388
0.0865318
0.0862097
0.0861949
0.0858129
0.0852147
0.0845998
0.0843502
0.0836067
0.0826853
0.0815437
0.0805149
0.0795067
0.0786359
0.0777119
0.0771076
0.0765668
0.0759738
0.0754531
0.0749558
0.0743719
0.0738541
0.0732301
0.0726774
0.0720652
0.0714408
0.0709517
0.0704838
0.069927
0.0695866
0.0692341
0.068813
0.0684345
0.0678236
0.0673745
0.0668188
0.0663861
0.0658995
0.0654169
0.0651562
0.064658
0.0642683
0.0638256
0.0634095
0.0629769
0.0625996
0.0622738
0.0618762
0.0615817
0.0612748
0.0609313
0.0606114
0.0602113
0.0599334
0.0596002
0.0592001
0.0587813
0.0584048
0.0581037
0.0578229
0.0575605
0.0572216
0.0569459
0.0565958
0.0563407
0.0559728
0.055683
0.0554369
0.0551274
0.0549212
0.0547664
)
;

boundaryField
{
    inlet
    {
        type            fixedValue;
        value           uniform 0.2;
    }
    outlet
    {
        type            zeroGradient;
    }
    yzfaces
    {
        type            empty;
    }
}


// ************************************************************************* //
