/*--------------------------------*- C++ -*----------------------------------*\
| =========                 |                                                 |
| \\      /  F ield         | foam-extend: Open Source CFD                    |
|  \\    /   O peration     | Version:     5.0                                |
|   \\  /    A nd           | Web:         http://www.foam-extend.org         |
|    \\/     M anipulation  |                                                 |
\*---------------------------------------------------------------------------*/
FoamFile
{
    version     2.0;
    format      ascii;
    class       volScalarField;
    location    "10";
    object      CO2.water;
}
// * * * * * * * * * * * * * * * * * * * * * * * * * * * * * * * * * * * * * //

dimensions      [0 0 0 0 0 0 0];

internalField   nonuniform List<scalar> 
100
(
0.000816043
0.00109413
0.00133754
0.00139725
0.00148349
0.0016047
0.00177516
0.00190566
0.00196522
0.00199581
0.00201844
0.00209419
0.00217565
0.00227064
0.00235015
0.00240864
0.00247122
0.00251642
0.00258427
0.00263701
0.00268439
0.00272151
0.00274952
0.00278105
0.00282466
0.00286327
0.00289396
0.00293009
0.00295184
0.00296687
0.00298019
0.00298865
0.00298904
0.00299907
0.00301478
0.00303093
0.00303749
0.00305702
0.00308122
0.0031112
0.00313822
0.0031647
0.00318757
0.00321184
0.00322771
0.00324192
0.00325749
0.00327117
0.00328423
0.00329956
0.00331316
0.00332955
0.00334407
0.00336015
0.00337655
0.00338939
0.00340168
0.00341631
0.00342525
0.00343451
0.00344557
0.00345551
0.00347155
0.00348335
0.00349794
0.00350931
0.00352209
0.00353476
0.00354161
0.00355469
0.00356493
0.00357656
0.00358749
0.00359885
0.00360876
0.00361732
0.00362776
0.00363549
0.00364355
0.00365257
0.00366098
0.00367149
0.00367878
0.00368753
0.00369805
0.00370904
0.00371893
0.00372684
0.00373422
0.00374111
0.00375001
0.00375725
0.00376645
0.00377314
0.00378281
0.00379042
0.00379688
0.00380501
0.00381043
0.00381449
)
;

boundaryField
{
    inlet
    {
        type            fixedValue;
        value           uniform 0;
    }
    outlet
    {
        type            zeroGradient;
    }
    yzfaces
    {
        type            empty;
    }
}


// ************************************************************************* //
