/*--------------------------------*- C++ -*----------------------------------*\
| =========                 |                                                 |
| \\      /  F ield         | foam-extend: Open Source CFD                    |
|  \\    /   O peration     | Version:     5.0                                |
|   \\  /    A nd           | Web:         http://www.foam-extend.org         |
|    \\/     M anipulation  |                                                 |
\*---------------------------------------------------------------------------*/
FoamFile
{
    version     2.0;
    format      ascii;
    class       volScalarField;
    location    "10";
    object      Na.water;
}
// * * * * * * * * * * * * * * * * * * * * * * * * * * * * * * * * * * * * * //

dimensions      [0 0 0 0 0 0 0];

internalField   nonuniform List<scalar> 
100
(
0.00569963
0.00836124
0.0102431
0.0121459
0.0131623
0.0140553
0.0146115
0.0155389
0.016163
0.0165486
0.0167515
0.0169587
0.0173442
0.0177146
0.0181202
0.0185797
0.0189041
0.0193799
0.0195512
0.0200725
0.0203984
0.0208437
0.0211477
0.0214334
0.0215827
0.0218633
0.0220827
0.0223832
0.0227987
0.0229287
0.0230737
0.0231151
0.0232253
0.0233531
0.0233602
0.0234873
0.0237317
0.0237182
0.0238598
0.0239561
0.0240914
0.0243539
0.0245495
0.0246979
0.0249357
0.0251022
0.0251481
0.0252552
0.0253414
0.025429
0.0255374
0.0256366
0.0258412
0.0259558
0.0260416
0.0262049
0.0263731
0.0264624
0.0265482
0.0266499
0.0266955
0.0268058
0.0268728
0.0270307
0.0271056
0.0272018
0.027263
0.0273669
0.0275164
0.0275481
0.0276393
0.0277675
0.0278299
0.0279208
0.0280367
0.0281476
0.0282197
0.0283013
0.0283784
0.0284675
0.0285393
0.0285798
0.0286607
0.0287127
0.0287714
0.0288753
0.0289895
0.0290679
0.0291275
0.0291534
0.0291788
0.0292943
0.029293
0.0293879
0.0294559
0.0295524
0.0296306
0.0296908
0.0297692
0.0298259
)
;

boundaryField
{
    inlet
    {
        type            fixedValue;
        value           uniform 0;
    }
    outlet
    {
        type            zeroGradient;
    }
    yzfaces
    {
        type            empty;
    }
}


// ************************************************************************* //
