/*--------------------------------*- C++ -*----------------------------------*\
| =========                 |                                                 |
| \\      /  F ield         | foam-extend: Open Source CFD                    |
|  \\    /   O peration     | Version:     5.0                                |
|   \\  /    A nd           | Web:         http://www.foam-extend.org         |
|    \\/     M anipulation  |                                                 |
\*---------------------------------------------------------------------------*/
FoamFile
{
    version     2.0;
    format      ascii;
    class       surfaceScalarField;
    location    "10";
    object      phi;
}
// * * * * * * * * * * * * * * * * * * * * * * * * * * * * * * * * * * * * * //

dimensions      [0 3 -1 0 0 0 0];

internalField   nonuniform List<scalar> 
99
(
1.22855e-06
1.2192e-06
1.23455e-06
1.22391e-06
1.21264e-06
1.20173e-06
1.20153e-06
1.20611e-06
1.20785e-06
1.20751e-06
1.19135e-06
1.18836e-06
1.17513e-06
1.17286e-06
1.16393e-06
1.1673e-06
1.15561e-06
1.15739e-06
1.15479e-06
1.1535e-06
1.15568e-06
1.15681e-06
1.15268e-06
1.15972e-06
1.163e-06
1.16326e-06
1.16242e-06
1.16204e-06
1.16327e-06
1.17042e-06
1.17509e-06
1.17356e-06
1.17549e-06
1.17453e-06
1.16868e-06
1.1675e-06
1.17013e-06
1.16581e-06
1.16454e-06
1.16087e-06
1.15854e-06
1.14988e-06
1.15017e-06
1.15426e-06
1.15622e-06
1.15872e-06
1.15763e-06
1.15769e-06
1.16117e-06
1.1631e-06
1.16268e-06
1.16349e-06
1.16264e-06
1.1639e-06
1.16176e-06
1.16497e-06
1.166e-06
1.16758e-06
1.164e-06
1.16771e-06
1.16977e-06
1.17071e-06
1.17025e-06
1.1728e-06
1.17464e-06
1.17613e-06
1.17706e-06
1.1764e-06
1.17742e-06
1.17524e-06
1.17681e-06
1.17472e-06
1.17454e-06
1.17538e-06
1.17522e-06
1.1727e-06
1.17276e-06
1.17259e-06
1.17247e-06
1.17507e-06
1.17675e-06
1.17472e-06
1.17841e-06
1.17813e-06
1.17739e-06
1.17608e-06
1.17561e-06
1.17619e-06
1.17271e-06
1.17143e-06
1.17004e-06
1.17117e-06
1.17338e-06
1.16947e-06
1.16841e-06
1.16989e-06
1.16992e-06
1.16564e-06
1.16354e-06
)
;

boundaryField
{
    inlet
    {
        type            calculated;
        value           uniform -1.225e-06;
    }
    outlet
    {
        type            calculated;
        value           uniform 1.16448e-06;
    }
    yzfaces
    {
        type            empty;
    }
}


// ************************************************************************* //
