/*--------------------------------*- C++ -*----------------------------------*\
| =========                 |                                                 |
| \\      /  F ield         | foam-extend: Open Source CFD                    |
|  \\    /   O peration     | Version:     5.0                                |
|   \\  /    A nd           | Web:         http://www.foam-extend.org         |
|    \\/     M anipulation  |                                                 |
\*---------------------------------------------------------------------------*/
FoamFile
{
    version     2.0;
    format      ascii;
    class       surfaceScalarField;
    location    "10";
    object      phi.water;
}
// * * * * * * * * * * * * * * * * * * * * * * * * * * * * * * * * * * * * * //

dimensions      [0 3 -1 0 0 0 0];

internalField   nonuniform List<scalar> 
99
(
6.3574e-08
1.03848e-07
1.53778e-07
1.68094e-07
1.84671e-07
2.13788e-07
2.57674e-07
2.99915e-07
3.25298e-07
3.26996e-07
3.28553e-07
3.45547e-07
3.85304e-07
4.23443e-07
4.55237e-07
4.97903e-07
5.23511e-07
5.57673e-07
5.9137e-07
6.16586e-07
6.52574e-07
6.77947e-07
6.91646e-07
7.31018e-07
7.58698e-07
7.83591e-07
8.17742e-07
8.4895e-07
8.77227e-07
9.02972e-07
9.14233e-07
9.17444e-07
9.26301e-07
9.36227e-07
9.40151e-07
9.5813e-07
9.79734e-07
9.99759e-07
1.02626e-06
1.05547e-06
1.08235e-06
1.09899e-06
1.13235e-06
1.16304e-06
1.18655e-06
1.21487e-06
1.23369e-06
1.25487e-06
1.284e-06
1.30381e-06
1.32028e-06
1.35022e-06
1.3619e-06
1.38312e-06
1.40187e-06
1.43127e-06
1.45232e-06
1.47186e-06
1.47975e-06
1.50373e-06
1.53032e-06
1.54957e-06
1.56571e-06
1.59256e-06
1.61896e-06
1.64713e-06
1.66564e-06
1.67875e-06
1.70065e-06
1.71343e-06
1.73767e-06
1.75258e-06
1.77437e-06
1.79413e-06
1.81895e-06
1.83529e-06
1.86095e-06
1.87967e-06
1.9052e-06
1.93657e-06
1.95688e-06
1.97315e-06
2.0006e-06
2.01779e-06
2.04046e-06
2.05774e-06
2.07866e-06
2.10014e-06
2.10792e-06
2.12133e-06
2.13625e-06
2.15689e-06
2.18006e-06
2.19146e-06
2.20805e-06
2.23114e-06
2.24756e-06
2.2543e-06
2.27045e-06
)
;

boundaryField
{
    inlet
    {
        type            fixedValue;
        value           uniform 0;
    }
    outlet
    {
        type            calculated;
        value           uniform 2.28923e-06;
    }
    yzfaces
    {
        type            empty;
    }
}


// ************************************************************************* //
