/*--------------------------------*- C++ -*----------------------------------*\
| =========                 |                                                 |
| \\      /  F ield         | foam-extend: Open Source CFD                    |
|  \\    /   O peration     | Version:     5.0                                |
|   \\  /    A nd           | Web:         http://www.foam-extend.org         |
|    \\/     M anipulation  |                                                 |
\*---------------------------------------------------------------------------*/
FoamFile
{
    version     2.0;
    format      ascii;
    class       volVectorField;
    location    "10";
    object      U.gas;
}
// * * * * * * * * * * * * * * * * * * * * * * * * * * * * * * * * * * * * * //

dimensions      [0 1 -1 0 0 0 0];

internalField   nonuniform List<vector> 
100
(
(0.00591502 0 0)
(0.00629477 0 0)
(0.0066731 0 0)
(0.00681523 0 0)
(0.00692398 0 0)
(0.00709985 0 0)
(0.00735617 0 0)
(0.0076078 0 0)
(0.00775328 0 0)
(0.0077712 0 0)
(0.00777215 0 0)
(0.00784593 0 0)
(0.00803103 0 0)
(0.00818079 0 0)
(0.00831432 0 0)
(0.00849314 0 0)
(0.00859413 0 0)
(0.00870714 0 0)
(0.00884662 0 0)
(0.00894168 0 0)
(0.00907876 0 0)
(0.00917728 0 0)
(0.00923763 0 0)
(0.00937611 0 0)
(0.00950986 0 0)
(0.00961506 0 0)
(0.00972703 0 0)
(0.00982276 0 0)
(0.00990389 0 0)
(0.00999454 0 0)
(0.0100655 0 0)
(0.0100905 0 0)
(0.0101226 0 0)
(0.010156 0 0)
(0.0101592 0 0)
(0.0101907 0 0)
(0.0102595 0 0)
(0.0103222 0 0)
(0.0103797 0 0)
(0.010449 0 0)
(0.0104943 0 0)
(0.0105087 0 0)
(0.0105509 0 0)
(0.0106361 0 0)
(0.0107129 0 0)
(0.0108 0 0)
(0.0108466 0 0)
(0.0108915 0 0)
(0.010962 0 0)
(0.0110234 0 0)
(0.0110727 0 0)
(0.0111375 0 0)
(0.0111562 0 0)
(0.0112064 0 0)
(0.0112448 0 0)
(0.0113002 0 0)
(0.0113544 0 0)
(0.0113968 0 0)
(0.011407 0 0)
(0.0114521 0 0)
(0.0115245 0 0)
(0.0115668 0 0)
(0.0115999 0 0)
(0.0116565 0 0)
(0.0117206 0 0)
(0.011777 0 0)
(0.011811 0 0)
(0.0118315 0 0)
(0.0118763 0 0)
(0.0118864 0 0)
(0.0119202 0 0)
(0.0119416 0 0)
(0.0119676 0 0)
(0.0119961 0 0)
(0.0120403 0 0)
(0.01205 0 0)
(0.0120732 0 0)
(0.0120927 0 0)
(0.0121285 0 0)
(0.0121743 0 0)
(0.0122109 0 0)
(0.0122307 0 0)
(0.0122628 0 0)
(0.0123031 0 0)
(0.0123279 0 0)
(0.0123333 0 0)
(0.0123465 0 0)
(0.0123689 0 0)
(0.0123601 0 0)
(0.0123514 0 0)
(0.0123564 0 0)
(0.0123722 0 0)
(0.0124105 0 0)
(0.0124174 0 0)
(0.0124049 0 0)
(0.0124259 0 0)
(0.0124456 0 0)
(0.0124323 0 0)
(0.0124161 0 0)
(0.0124193 0 0)
)
;

boundaryField
{
    inlet
    {
        type            fixedValue;
        value           uniform (0.005 0 0);
    }
    outlet
    {
        type            zeroGradient;
    }
    yzfaces
    {
        type            empty;
    }
}


// ************************************************************************* //
