/*--------------------------------*- C++ -*----------------------------------*\
| =========                 |                                                 |
| \\      /  F ield         | foam-extend: Open Source CFD                    |
|  \\    /   O peration     | Version:     5.0                                |
|   \\  /    A nd           | Web:         http://www.foam-extend.org         |
|    \\/     M anipulation  |                                                 |
\*---------------------------------------------------------------------------*/
FoamFile
{
    version     2.0;
    format      ascii;
    class       volScalarField;
    location    "4";
    object      alpha.gas;
}
// * * * * * * * * * * * * * * * * * * * * * * * * * * * * * * * * * * * * * //

dimensions      [0 0 0 0 0 0 0];

internalField   nonuniform List<scalar> 
100
(
0.151359
0.136851
0.127685
0.11928
0.112291
0.107653
0.103712
0.0997012
0.0963293
0.0931974
0.0905605
0.087859
0.0860026
0.0842065
0.0823017
0.0802634
0.0786511
0.0771589
0.0756338
0.0741294
0.072698
0.0713851
0.0703474
0.0691019
0.0677762
0.0666082
0.0656143
0.0644747
0.0634258
0.0624822
0.0616617
0.0608707
0.0599933
0.0590975
0.0581988
0.0573462
0.0565374
0.0557814
0.0549323
0.0541585
0.0532648
0.052577
0.0518534
0.0511471
0.0503823
0.0495981
0.0488578
0.0481031
0.0473956
0.0465382
0.0457793
0.0449178
0.0440785
0.0432321
0.0424279
0.0415794
0.0407022
0.0397941
0.0388855
0.0379721
0.0370081
0.0360005
0.034898
0.0337604
0.0325437
0.0312306
0.0298318
0.0283137
0.0266757
0.0249093
0.0230174
0.0210464
0.0190442
0.017088
0.0152805
0.013733
0.0125047
0.0116063
0.0109918
0.0105992
0.0103533
0.0102075
0.0101209
0.0100705
0.0100417
0.0100251
0.0100159
0.010011
0.0100083
0.010008
0.0100075
0.0100053
0.0100071
0.0100067
0.0100055
0.0100054
0.0100036
0.0100031
0.00999995
0.0100018
)
;

boundaryField
{
    inlet
    {
        type            fixedValue;
        value           uniform 0.2;
    }
    outlet
    {
        type            zeroGradient;
    }
    yzfaces
    {
        type            empty;
    }
}


// ************************************************************************* //
