/*--------------------------------*- C++ -*----------------------------------*\
| =========                 |                                                 |
| \\      /  F ield         | foam-extend: Open Source CFD                    |
|  \\    /   O peration     | Version:     5.0                                |
|   \\  /    A nd           | Web:         http://www.foam-extend.org         |
|    \\/     M anipulation  |                                                 |
\*---------------------------------------------------------------------------*/
FoamFile
{
    version     2.0;
    format      ascii;
    class       volScalarField;
    location    "4";
    object      Cl.water;
}
// * * * * * * * * * * * * * * * * * * * * * * * * * * * * * * * * * * * * * //

dimensions      [0 0 0 0 0 0 0];

internalField   nonuniform List<scalar> 
100
(
0.0055858
0.00724965
0.00830311
0.00926861
0.0100729
0.010606
0.0110553
0.0115192
0.0119065
0.0122678
0.0125674
0.0128756
0.013093
0.013299
0.0135192
0.0137529
0.013936
0.0141068
0.0142786
0.0144568
0.0146221
0.0147781
0.0148909
0.0150302
0.0151796
0.0153159
0.0154269
0.01556
0.0156797
0.01579
0.0158833
0.0159762
0.0160791
0.0161774
0.0162795
0.0163789
0.0164733
0.01656
0.0166633
0.0167492
0.0168519
0.0169291
0.0170119
0.017092
0.0171853
0.0172708
0.0173599
0.0174448
0.0175262
0.0176276
0.0177075
0.017805
0.0179047
0.018005
0.0180937
0.0181977
0.0183003
0.0193505
0.0195019
0.0196286
0.019735
0.0198386
0.0199801
0.0201218
0.0202832
0.0204298
0.0205974
0.020803
0.0209965
0.0212104
0.0214428
0.0216838
0.0219044
0.0221598
0.0223783
0.0225509
0.0226784
0.0227872
0.0228763
0.0229206
0.0229551
0.0229625
0.0229817
0.0229647
0.0229808
0.0229671
0.0229772
0.022973
0.0229649
0.0229554
0.0229923
0.0229847
0.0229946
0.0230151
0.0230157
0.0230238
0.0230088
0.0229709
0.0229874
0.0229853
)
;

boundaryField
{
    inlet
    {
        type            fixedValue;
        value           uniform 0;
    }
    outlet
    {
        type            zeroGradient;
    }
    yzfaces
    {
        type            empty;
    }
}


// ************************************************************************* //
