/*--------------------------------*- C++ -*----------------------------------*\
| =========                 |                                                 |
| \\      /  F ield         | foam-extend: Open Source CFD                    |
|  \\    /   O peration     | Version:     5.0                                |
|   \\  /    A nd           | Web:         http://www.foam-extend.org         |
|    \\/     M anipulation  |                                                 |
\*---------------------------------------------------------------------------*/
FoamFile
{
    version     2.0;
    format      ascii;
    class       volScalarField;
    location    "4";
    object      CO2.water;
}
// * * * * * * * * * * * * * * * * * * * * * * * * * * * * * * * * * * * * * //

dimensions      [0 0 0 0 0 0 0];

internalField   nonuniform List<scalar> 
100
(
0.00127753
0.00165858
0.00189932
0.00212008
0.00230362
0.00242544
0.00252896
0.0026343
0.00272286
0.00280512
0.00287438
0.00294533
0.00299409
0.00304126
0.00309129
0.00314483
0.00318717
0.00322636
0.00326642
0.00330593
0.00334353
0.00337801
0.00340527
0.00343798
0.0034728
0.00350347
0.00352958
0.00355951
0.00358706
0.00361184
0.00363339
0.00365417
0.00367721
0.00370074
0.00372434
0.00374674
0.00376798
0.00378784
0.00381014
0.00383046
0.00385393
0.003872
0.003891
0.00390955
0.00392964
0.00395024
0.00396968
0.0039895
0.00400808
0.0040306
0.00405054
0.00407316
0.00409521
0.00411744
0.00413856
0.00416084
0.00418388
0.000178952
3.89486e-05
8.70892e-06
1.98184e-06
4.51489e-07
9.98424e-08
2.00725e-08
2.95292e-09
0
0
0
0
0
0
0
0
0
0
0
2.97322e-14
4.51634e-14
3.66821e-14
2.48046e-14
1.53918e-14
9.04329e-15
5.12858e-15
2.83663e-15
1.54057e-15
8.21608e-16
4.32798e-16
2.25117e-16
1.15886e-16
5.91461e-17
2.99946e-17
1.50901e-17
7.54603e-18
3.74694e-18
1.84653e-18
9.00511e-19
4.35246e-19
2.07338e-19
9.71167e-20
5.13182e-20
)
;

boundaryField
{
    inlet
    {
        type            fixedValue;
        value           uniform 0;
    }
    outlet
    {
        type            zeroGradient;
    }
    yzfaces
    {
        type            empty;
    }
}


// ************************************************************************* //
