/*--------------------------------*- C++ -*----------------------------------*\
| =========                 |                                                 |
| \\      /  F ield         | foam-extend: Open Source CFD                    |
|  \\    /   O peration     | Version:     5.0                                |
|   \\  /    A nd           | Web:         http://www.foam-extend.org         |
|    \\/     M anipulation  |                                                 |
\*---------------------------------------------------------------------------*/
FoamFile
{
    version     2.0;
    format      ascii;
    class       volScalarField;
    location    "4";
    object      H2O.gas;
}
// * * * * * * * * * * * * * * * * * * * * * * * * * * * * * * * * * * * * * //

dimensions      [0 0 0 0 0 0 0];

internalField   nonuniform List<scalar> 
100
(
0.000295453
0.000265356
0.000247737
0.0002324
0.000220044
0.000209823
0.000201066
0.000193532
0.000186032
0.000180821
0.000175506
0.000170912
0.000167062
0.000163367
0.000159855
0.000156215
0.000153287
0.00014999
0.000146462
0.000144222
0.000141138
0.000138711
0.000136185
0.000133938
0.000131451
0.000129395
0.000127365
0.000125279
0.000123544
0.000121807
0.000119783
0.000117918
0.000116318
0.000114711
0.000113168
0.000111556
0.000110026
0.000108448
0.000106882
0.000105453
0.000103932
0.000102499
0.000101027
9.95342e-05
9.79636e-05
9.66593e-05
9.52642e-05
9.38296e-05
9.22148e-05
9.06913e-05
8.89708e-05
8.73525e-05
0.00431027
0.00653964
0.00879196
0.0110522
0.0132095
0.015241
0.0171614
0.0189047
0.0204835
0.0218118
0.0229353
0.0238276
0.0244096
0.0247758
0.0247932
0.0244812
0.0238976
0.0230017
0.0217714
0.020313
0.018664
0.0169408
0.0152529
0.0137578
0.0125476
0.011645
0.0110201
0.010608
0.0103657
0.0102115
0.0101191
0.0100697
0.0100305
0.0100194
0.0100096
0.0100056
0.0100023
0.0100052
0.0100062
0.0100022
0.00999494
0.00999225
0.00999411
0.00999365
0.00999565
0.00999403
0.00998954
0.00999602
)
;

boundaryField
{
    inlet
    {
        type            fixedValue;
        value           uniform 0;
    }
    outlet
    {
        type            zeroGradient;
    }
    yzfaces
    {
        type            empty;
    }
}


// ************************************************************************* //
