/*--------------------------------*- C++ -*----------------------------------*\
| =========                 |                                                 |
| \\      /  F ield         | foam-extend: Open Source CFD                    |
|  \\    /   O peration     | Version:     5.0                                |
|   \\  /    A nd           | Web:         http://www.foam-extend.org         |
|    \\/     M anipulation  |                                                 |
\*---------------------------------------------------------------------------*/
FoamFile
{
    version     2.0;
    format      ascii;
    class       volScalarField;
    location    "4";
    object      Ns;
}
// * * * * * * * * * * * * * * * * * * * * * * * * * * * * * * * * * * * * * //

dimensions      [0 -3 0 0 1 0 0];

internalField   nonuniform List<scalar> 
100
(
55.237
111.334
81.1575
88.125
51.3071
60.9032
52.6454
66.2163
72.8244
32.8673
65.8024
63.245
56.0851
65.1834
49.2642
37.9323
56.7057
70.9714
51.0704
53.863
52.2585
50.645
69.497
53.513
54.5733
63.8359
53.2585
64.6373
48.0446
52.8597
70.8151
47.1118
55.8682
55.3838
56.3871
43.8087
67.6558
60.4841
61.0506
58.4348
65.9736
59.4698
62.1121
73.1583
58.6591
54.9317
55.6135
53.2699
61.8071
53.3084
51.0921
48.7282
49.3618
49.7107
52.2389
52.3462
52.1083
2
2
2
2
2
2
2
2
2
2
2
2
2
2
2
2
2
2
2
2
2
2
2
2
2
2
2
2
2
2
2
2
2
2
2
2
2
2
2
2
2
2
2
)
;

boundaryField
{
    inlet
    {
        type            fixedValue;
        value           uniform 0;
    }
    outlet
    {
        type            zeroGradient;
    }
    yzfaces
    {
        type            empty;
    }
}


// ************************************************************************* //
