/*--------------------------------*- C++ -*----------------------------------*\
| =========                 |                                                 |
| \\      /  F ield         | foam-extend: Open Source CFD                    |
|  \\    /   O peration     | Version:     5.0                                |
|   \\  /    A nd           | Web:         http://www.foam-extend.org         |
|    \\/     M anipulation  |                                                 |
\*---------------------------------------------------------------------------*/
FoamFile
{
    version     2.0;
    format      ascii;
    class       volScalarField;
    location    "4";
    object      Ns;
}
// * * * * * * * * * * * * * * * * * * * * * * * * * * * * * * * * * * * * * //

dimensions      [0 -3 0 0 1 0 0];

internalField   nonuniform List<scalar> 
100
(
70.0827
109.621
103.535
111.067
140.36
106.319
108.654
137.583
56.1023
136.646
105.52
90.607
89.0316
123.158
103.458
114.546
103.619
100.39
114.912
122.221
94.1153
110.696
88.8191
114.58
98.8501
114.7
87.0154
117.547
112.251
126.818
104.655
111.839
124.102
113.775
116.092
120.904
107.366
114.69
118.47
122.944
125.297
123.557
119.181
113.502
107.413
112.811
120.894
105.862
116.062
133.455
113.408
114.513
172.329
175.884
170.503
177.458
176.177
179.787
172.64
169.743
174.928
171.345
170.229
170.289
168.58
172.164
169.492
169.009
177.955
175.45
177.881
174.748
171.205
175.31
171.575
172.476
175.802
179.269
173.472
170.829
173.006
172.605
168.769
174.403
168.928
177.986
175.999
172.809
175
176.533
170.964
171.944
166.776
171.25
176.22
172.489
173.575
175.752
167.529
172.872
)
;

boundaryField
{
    inlet
    {
        type            fixedValue;
        value           uniform 0;
    }
    outlet
    {
        type            zeroGradient;
    }
    yzfaces
    {
        type            empty;
    }
}


// ************************************************************************* //
