/*--------------------------------*- C++ -*----------------------------------*\
| =========                 |                                                 |
| \\      /  F ield         | foam-extend: Open Source CFD                    |
|  \\    /   O peration     | Version:     5.0                                |
|   \\  /    A nd           | Web:         http://www.foam-extend.org         |
|    \\/     M anipulation  |                                                 |
\*---------------------------------------------------------------------------*/
FoamFile
{
    version     2.0;
    format      ascii;
    class       surfaceScalarField;
    location    "4";
    object      phi;
}
// * * * * * * * * * * * * * * * * * * * * * * * * * * * * * * * * * * * * * //

dimensions      [0 3 -1 0 0 0 0];

internalField   nonuniform List<scalar> 
99
(
1.23283e-06
1.22914e-06
1.22523e-06
1.22649e-06
1.23145e-06
1.22921e-06
1.22863e-06
1.23153e-06
1.2318e-06
1.22469e-06
1.22728e-06
1.22915e-06
1.22809e-06
1.22903e-06
1.23396e-06
1.2414e-06
1.24515e-06
1.24083e-06
1.24119e-06
1.23859e-06
1.24269e-06
1.23933e-06
1.23798e-06
1.23711e-06
1.23581e-06
1.23956e-06
1.23348e-06
1.23355e-06
1.23178e-06
1.23583e-06
1.23381e-06
1.23302e-06
1.2329e-06
1.23438e-06
1.23447e-06
1.23867e-06
1.2365e-06
1.2333e-06
1.23459e-06
1.23357e-06
1.24076e-06
1.2379e-06
1.23795e-06
1.23545e-06
1.23472e-06
1.23689e-06
1.23579e-06
1.23865e-06
1.23354e-06
1.23763e-06
1.23411e-06
1.23563e-06
1.23614e-06
1.23617e-06
1.2347e-06
1.23254e-06
1.23412e-06
1.23503e-06
1.23631e-06
1.23646e-06
1.23421e-06
1.23098e-06
1.23146e-06
1.23138e-06
1.23095e-06
1.23227e-06
1.23293e-06
1.23347e-06
1.23356e-06
1.23314e-06
1.23645e-06
1.2365e-06
1.2366e-06
1.23703e-06
1.23652e-06
1.23596e-06
1.23687e-06
1.23658e-06
1.23577e-06
1.23652e-06
1.2344e-06
1.23169e-06
1.23257e-06
1.233e-06
1.23153e-06
1.23141e-06
1.23097e-06
1.2293e-06
1.23075e-06
1.23164e-06
1.23351e-06
1.23412e-06
1.23478e-06
1.23532e-06
1.23593e-06
1.23486e-06
1.23423e-06
1.23461e-06
1.235e-06
)
;

boundaryField
{
    inlet
    {
        type            calculated;
        value           uniform -1.225e-06;
    }
    outlet
    {
        type            calculated;
        value           uniform 1.23715e-06;
    }
    yzfaces
    {
        type            empty;
    }
}


// ************************************************************************* //
