/*--------------------------------*- C++ -*----------------------------------*\
| =========                 |                                                 |
| \\      /  F ield         | foam-extend: Open Source CFD                    |
|  \\    /   O peration     | Version:     5.0                                |
|   \\  /    A nd           | Web:         http://www.foam-extend.org         |
|    \\/     M anipulation  |                                                 |
\*---------------------------------------------------------------------------*/
FoamFile
{
    version     2.0;
    format      ascii;
    class       volVectorField;
    location    "4";
    object      U.gas;
}
// * * * * * * * * * * * * * * * * * * * * * * * * * * * * * * * * * * * * * //

dimensions      [0 1 -1 0 0 0 0];

internalField   nonuniform List<vector> 
100
(
(0.00660851 0 0)
(0.00727762 0 0)
(0.0077285 0 0)
(0.00820824 0 0)
(0.00867176 0 0)
(0.00898625 0 0)
(0.00925296 0 0)
(0.00956227 0 0)
(0.00983136 0 0)
(0.0100526 0 0)
(0.0102442 0 0)
(0.0104915 0 0)
(0.0106391 0 0)
(0.010792 0 0)
(0.0109867 0 0)
(0.0112266 0 0)
(0.0114115 0 0)
(0.0115396 0 0)
(0.0116591 0 0)
(0.0117834 0 0)
(0.0119163 0 0)
(0.0120334 0 0)
(0.012092 0 0)
(0.0121995 0 0)
(0.0123081 0 0)
(0.0124127 0 0)
(0.0124758 0 0)
(0.0125479 0 0)
(0.0126191 0 0)
(0.0126994 0 0)
(0.0127664 0 0)
(0.012809 0 0)
(0.0128742 0 0)
(0.0129479 0 0)
(0.0130182 0 0)
(0.0130918 0 0)
(0.0131511 0 0)
(0.0131645 0 0)
(0.0132106 0 0)
(0.0132467 0 0)
(0.0133376 0 0)
(0.0133734 0 0)
(0.0133923 0 0)
(0.0134034 0 0)
(0.013419 0 0)
(0.0134525 0 0)
(0.0134736 0 0)
(0.0135027 0 0)
(0.013496 0 0)
(0.0135179 0 0)
(0.0135096 0 0)
(0.0135131 0 0)
(0.0135125 0 0)
(0.0135022 0 0)
(0.0134665 0 0)
(0.0134246 0 0)
(0.0133895 0 0)
(0.0133613 0 0)
(0.0133165 0 0)
(0.0132606 0 0)
(0.0131783 0 0)
(0.0130615 0 0)
(0.0129478 0 0)
(0.0128143 0 0)
(0.01266 0 0)
(0.0124798 0 0)
(0.0122604 0 0)
(0.0119934 0 0)
(0.0116624 0 0)
(0.0112548 0 0)
(0.0107739 0 0)
(0.010197 0 0)
(0.0095121 0 0)
(0.00875216 0 0)
(0.00794995 0 0)
(0.00715801 0 0)
(0.00645303 0 0)
(0.00588023 0 0)
(0.00545272 0 0)
(0.00516097 0 0)
(0.0049725 0 0)
(0.00484599 0 0)
(0.00477317 0 0)
(0.00473461 0 0)
(0.00470915 0 0)
(0.00469288 0 0)
(0.00468352 0 0)
(0.00467491 0 0)
(0.00467241 0 0)
(0.00467579 0 0)
(0.00468161 0 0)
(0.00468628 0 0)
(0.00468779 0 0)
(0.00469082 0 0)
(0.00469249 0 0)
(0.00469065 0 0)
(0.00468632 0 0)
(0.00468593 0 0)
(0.00468774 0 0)
(0.00469098 0 0)
)
;

boundaryField
{
    inlet
    {
        type            fixedValue;
        value           uniform (0.005 0 0);
    }
    outlet
    {
        type            zeroGradient;
    }
    yzfaces
    {
        type            empty;
    }
}


// ************************************************************************* //
