/*--------------------------------*- C++ -*----------------------------------*\
| =========                 |                                                 |
| \\      /  F ield         | foam-extend: Open Source CFD                    |
|  \\    /   O peration     | Version:     5.0                                |
|   \\  /    A nd           | Web:         http://www.foam-extend.org         |
|    \\/     M anipulation  |                                                 |
\*---------------------------------------------------------------------------*/
FoamFile
{
    version     2.0;
    format      ascii;
    class       volScalarField;
    location    "9";
    object      alpha.gas;
}
// * * * * * * * * * * * * * * * * * * * * * * * * * * * * * * * * * * * * * //

dimensions      [0 0 0 0 0 0 0];

internalField   nonuniform List<scalar> 
100
(
0.169519
0.157112
0.148316
0.141603
0.135505
0.130869
0.126635
0.123295
0.119411
0.115862
0.11262
0.11015
0.10813
0.106218
0.104223
0.102723
0.101636
0.100053
0.0982152
0.0966896
0.0956699
0.0948034
0.0932106
0.091524
0.09009
0.0879829
0.0865039
0.0858423
0.084987
0.084105
0.0832787
0.0830187
0.0823376
0.0813496
0.0801645
0.0793742
0.0786172
0.077797
0.0768659
0.0760144
0.0753614
0.0746196
0.0741914
0.0736754
0.0731403
0.0723509
0.071641
0.0709947
0.0703869
0.0698116
0.0692315
0.0687064
0.068154
0.0673915
0.0665461
0.0658596
0.0653103
0.0647242
0.0640727
0.0633483
0.062684
0.062005
0.0612827
0.0605174
0.0596015
0.0586992
0.0575636
0.0564203
0.0550711
0.0533376
0.0508601
0.0475714
0.0419261
0.0308424
0.0304369
0.0300902
0.0300271
0.0300683
0.0301554
0.0302593
0.0303434
0.0303695
0.0303596
0.0303513
0.0303357
0.0302916
0.0302485
0.0302191
0.0302151
0.030222
0.0302497
0.0302963
0.0303553
0.0304372
0.0305433
0.0306646
0.0307909
0.0309274
0.0310513
0.0312042
)
;

boundaryField
{
    inlet
    {
        type            fixedValue;
        value           uniform 0.2;
    }
    outlet
    {
        type            zeroGradient;
    }
    yzfaces
    {
        type            empty;
    }
}


// ************************************************************************* //
