/*--------------------------------*- C++ -*----------------------------------*\
| =========                 |                                                 |
| \\      /  F ield         | foam-extend: Open Source CFD                    |
|  \\    /   O peration     | Version:     5.0                                |
|   \\  /    A nd           | Web:         http://www.foam-extend.org         |
|    \\/     M anipulation  |                                                 |
\*---------------------------------------------------------------------------*/
FoamFile
{
    version     2.0;
    format      ascii;
    class       volScalarField;
    location    "9";
    object      Cl.water;
}
// * * * * * * * * * * * * * * * * * * * * * * * * * * * * * * * * * * * * * //

dimensions      [0 0 0 0 0 0 0];

internalField   nonuniform List<scalar> 
100
(
0.00348528
0.00491242
0.00592447
0.00665731
0.00730514
0.00786893
0.00832874
0.00871808
0.00905964
0.00941997
0.00983217
0.01018
0.0104556
0.0107207
0.0109603
0.0111636
0.011294
0.0114434
0.0116197
0.0118004
0.0119543
0.0120399
0.0121506
0.0123138
0.0124869
0.0126574
0.0129138
0.0130743
0.0131729
0.0132808
0.0133694
0.0134195
0.0135043
0.0135869
0.0137035
0.0138245
0.0139207
0.0139994
0.014108
0.0142099
0.0143026
0.0143971
0.0144463
0.0144902
0.0145417
0.0146089
0.0147015
0.0147911
0.0148693
0.0149379
0.015006
0.0150758
0.0151186
0.0151979
0.0153148
0.0153827
0.0154601
0.0155095
0.0155866
0.0156737
0.0157459
0.0158316
0.0159048
0.0160083
0.0161121
0.0162175
0.0163509
0.0164792
0.0166378
0.0168327
0.0171204
0.0174812
0.0181133
0.0192454
0.0194955
0.0195149
0.0195204
0.0195149
0.0195085
0.019493
0.0194848
0.0194835
0.0194922
0.0194832
0.0194783
0.0194891
0.019498
0.0195021
0.0194961
0.0194882
0.0194904
0.0194852
0.0194817
0.0194709
0.0194573
0.0194442
0.0194221
0.019405
0.0194059
0.0193686
)
;

boundaryField
{
    inlet
    {
        type            fixedValue;
        value           uniform 0;
    }
    outlet
    {
        type            zeroGradient;
    }
    yzfaces
    {
        type            empty;
    }
}


// ************************************************************************* //
