/*--------------------------------*- C++ -*----------------------------------*\
| =========                 |                                                 |
| \\      /  F ield         | foam-extend: Open Source CFD                    |
|  \\    /   O peration     | Version:     5.0                                |
|   \\  /    A nd           | Web:         http://www.foam-extend.org         |
|    \\/     M anipulation  |                                                 |
\*---------------------------------------------------------------------------*/
FoamFile
{
    version     2.0;
    format      ascii;
    class       volScalarField;
    location    "9";
    object      CO2.gas;
}
// * * * * * * * * * * * * * * * * * * * * * * * * * * * * * * * * * * * * * //

dimensions      [0 0 0 0 0 0 0];

internalField   nonuniform List<scalar> 
100
(
0.168825
0.156482
0.147785
0.140307
0.133387
0.129488
0.125004
0.121866
0.116804
0.112799
0.11018
0.10853
0.107088
0.105619
0.103729
0.102524
0.101438
0.0996191
0.0974407
0.0959537
0.0952177
0.0943224
0.0921823
0.0903588
0.0890244
0.0864487
0.0855724
0.0854623
0.084634
0.0837819
0.0829167
0.082857
0.0821773
0.080966
0.0796885
0.0790599
0.0783585
0.0774901
0.0765657
0.0757163
0.0751645
0.0744743
0.0740469
0.0734645
0.0728809
0.0719815
0.071319
0.0707409
0.0701653
0.0696166
0.0690638
0.0685726
0.0679328
0.0671355
0.0663836
0.0656403
0.0651832
0.0645238
0.0638743
0.0631492
0.0624858
0.0618238
0.0610794
0.0603826
0.0594767
0.0585785
0.0574515
0.0563104
0.0549638
0.0532338
0.0507611
0.0474788
0.0418445
0.0307824
0.0303324
0.0300174
0.0299541
0.0299913
0.0300675
0.0301641
0.0302291
0.0302274
0.0301748
0.0301377
0.0300852
0.0299723
0.0298537
0.029735
0.0296384
0.0295335
0.0294164
0.0293032
0.0291702
0.0290338
0.028893
0.0287324
0.0285527
0.0283345
0.0280498
0.0277919
)
;

boundaryField
{
    inlet
    {
        type            fixedValue;
        value           uniform 0.2;
    }
    outlet
    {
        type            zeroGradient;
    }
    yzfaces
    {
        type            empty;
    }
}


// ************************************************************************* //
