/*--------------------------------*- C++ -*----------------------------------*\
| =========                 |                                                 |
| \\      /  F ield         | foam-extend: Open Source CFD                    |
|  \\    /   O peration     | Version:     5.0                                |
|   \\  /    A nd           | Web:         http://www.foam-extend.org         |
|    \\/     M anipulation  |                                                 |
\*---------------------------------------------------------------------------*/
FoamFile
{
    version     2.0;
    format      ascii;
    class       volScalarField;
    location    "9";
    object      CO2.water;
}
// * * * * * * * * * * * * * * * * * * * * * * * * * * * * * * * * * * * * * //

dimensions      [0 0 0 0 0 0 0];

internalField   nonuniform List<scalar> 
100
(
0.000797309
0.00112287
0.00135495
0.0015231
0.00167124
0.00179989
0.00190483
0.00199433
0.00207366
0.00215462
0.00224858
0.00232872
0.00239255
0.00245157
0.00250595
0.00255289
0.00258272
0.00261909
0.0026569
0.00269737
0.00273333
0.00275274
0.00277754
0.00281605
0.002856
0.00289417
0.00295247
0.00298911
0.00301274
0.00303741
0.00305762
0.00306959
0.00308884
0.00310705
0.00313521
0.00316124
0.00318382
0.00320191
0.00322748
0.00324993
0.0032717
0.00329269
0.00330426
0.00331507
0.00332643
0.00334147
0.00336194
0.00338252
0.00339994
0.00341624
0.00343301
0.00344802
0.00345829
0.00347668
0.00350358
0.00351815
0.00353696
0.00354757
0.00356577
0.00358501
0.0036023
0.00362124
0.00363794
0.00366225
0.00368754
0.00371143
0.00374096
0.00377054
0.00380634
0.00385107
0.00391703
0.0039991
0.00414349
0.00440233
0.00160138
0.000533106
0.000174372
5.66344e-05
1.83299e-05
5.94524e-06
1.93784e-06
6.35712e-07
2.10061e-07
6.97461e-08
2.31965e-08
7.70738e-09
2.55323e-09
8.42372e-10
2.76182e-10
8.98962e-11
2.90459e-11
9.32142e-12
2.97092e-12
9.40459e-13
2.95964e-13
9.25884e-14
2.88043e-14
8.92309e-15
2.75359e-15
8.49666e-16
)
;

boundaryField
{
    inlet
    {
        type            fixedValue;
        value           uniform 0;
    }
    outlet
    {
        type            zeroGradient;
    }
    yzfaces
    {
        type            empty;
    }
}


// ************************************************************************* //
