/*--------------------------------*- C++ -*----------------------------------*\
| =========                 |                                                 |
| \\      /  F ield         | foam-extend: Open Source CFD                    |
|  \\    /   O peration     | Version:     5.0                                |
|   \\  /    A nd           | Web:         http://www.foam-extend.org         |
|    \\/     M anipulation  |                                                 |
\*---------------------------------------------------------------------------*/
FoamFile
{
    version     2.0;
    format      ascii;
    class       volScalarField;
    location    "9";
    object      H2O.gas;
}
// * * * * * * * * * * * * * * * * * * * * * * * * * * * * * * * * * * * * * //

dimensions      [0 0 0 0 0 0 0];

internalField   nonuniform List<scalar> 
100
(
8.60164e-06
0.000140551
0.000258317
0.000254549
0.000238968
0.000221642
0.000201427
0.000182377
0.000160791
0.000142336
0.000127024
0.000114791
0.000105327
9.81855e-05
9.44532e-05
9.85051e-05
0.000197934
0.000138723
0.000137932
0.000142115
0.000144593
0.000144111
0.000140233
0.000136717
0.00013463
0.000131802
0.000132603
0.00013475
0.000136559
0.000142384
0.000148063
0.000161676
0.00016035
0.000156911
0.000154295
0.000153031
0.000151601
0.000149662
0.000147844
0.000146376
0.000145561
0.00014532
0.000144486
0.000143219
0.000142056
0.000140452
0.000139058
0.000137907
0.000136768
0.000135796
0.000134728
0.000133804
0.000132569
0.000131058
0.00012961
0.000128153
0.00012719
0.000126316
0.000125048
0.000123656
0.00012237
0.000120969
0.000119318
0.000117905
0.000115995
0.000114204
0.000112103
0.000109877
0.000107249
0.000103874
9.90486e-05
9.2644e-05
8.16499e-05
6.00648e-05
6.13987e-05
6.44365e-05
6.96423e-05
7.72632e-05
8.77684e-05
0.000101941
0.000120541
0.000144529
0.000174933
0.000213298
0.000260917
0.000318848
0.000389239
0.000473718
0.00057492
0.000694139
0.000834015
0.000996603
0.00118449
0.00140008
0.00164697
0.00192646
0.00224171
0.00259534
0.00298609
0.00342553
)
;

boundaryField
{
    inlet
    {
        type            fixedValue;
        value           uniform 0;
    }
    outlet
    {
        type            zeroGradient;
    }
    yzfaces
    {
        type            empty;
    }
}


// ************************************************************************* //
