/*--------------------------------*- C++ -*----------------------------------*\
| =========                 |                                                 |
| \\      /  F ield         | foam-extend: Open Source CFD                    |
|  \\    /   O peration     | Version:     5.0                                |
|   \\  /    A nd           | Web:         http://www.foam-extend.org         |
|    \\/     M anipulation  |                                                 |
\*---------------------------------------------------------------------------*/
FoamFile
{
    version     2.0;
    format      ascii;
    class       volScalarField;
    location    "9";
    object      H2O.water;
}
// * * * * * * * * * * * * * * * * * * * * * * * * * * * * * * * * * * * * * //

dimensions      [0 0 0 0 0 0 0];

internalField   nonuniform List<scalar> 
100
(
0.0225878
0.0318117
0.0383854
0.0431307
0.0473214
0.0509841
0.053975
0.0564963
0.0587409
0.061026
0.0636779
0.0659374
0.0677728
0.0694544
0.0709907
0.0723055
0.0731678
0.0741444
0.0752374
0.0763929
0.0773727
0.0780022
0.0787064
0.0798195
0.0809444
0.0820254
0.0836734
0.0846998
0.0853605
0.0860486
0.086625
0.0869608
0.087506
0.0880427
0.0888075
0.0895624
0.0901892
0.0907502
0.0914416
0.0920688
0.0926765
0.093281
0.0936088
0.0939051
0.0942398
0.0946822
0.0952675
0.0958338
0.0963165
0.0967861
0.0972533
0.0976815
0.0979811
0.0984858
0.0992507
0.0996715
0.100201
0.100544
0.101024
0.101556
0.102053
0.102575
0.103077
0.103758
0.104451
0.105127
0.10598
0.106819
0.107833
0.1091
0.110969
0.113293
0.117384
0.124717
0.128945
0.130336
0.130768
0.130849
0.130816
0.130739
0.130681
0.130665
0.130691
0.130689
0.130688
0.130728
0.130765
0.13079
0.130792
0.130778
0.130768
0.13073
0.13069
0.130625
0.130538
0.130451
0.130344
0.130248
0.130148
0.130037
)
;

boundaryField
{
    inlet
    {
        type            fixedValue;
        value           uniform 0;
    }
    outlet
    {
        type            zeroGradient;
    }
    yzfaces
    {
        type            empty;
    }
}


// ************************************************************************* //
