/*--------------------------------*- C++ -*----------------------------------*\
| =========                 |                                                 |
| \\      /  F ield         | foam-extend: Open Source CFD                    |
|  \\    /   O peration     | Version:     5.0                                |
|   \\  /    A nd           | Web:         http://www.foam-extend.org         |
|    \\/     M anipulation  |                                                 |
\*---------------------------------------------------------------------------*/
FoamFile
{
    version     2.0;
    format      ascii;
    class       volScalarField;
    location    "9";
    object      Na.water;
}
// * * * * * * * * * * * * * * * * * * * * * * * * * * * * * * * * * * * * * //

dimensions      [0 0 0 0 0 0 0];

internalField   nonuniform List<scalar> 
100
(
0.00348673
0.00490716
0.00592351
0.00665623
0.00730311
0.00786649
0.00832858
0.00872126
0.0090637
0.00941562
0.00982611
0.0101763
0.0104527
0.0107128
0.0109532
0.0111604
0.0112903
0.0114453
0.0116111
0.0117853
0.0119344
0.012028
0.0121373
0.0123078
0.0124869
0.0126546
0.012908
0.0130683
0.0131738
0.013279
0.0133694
0.0134223
0.0135057
0.0135832
0.0137084
0.0138325
0.0139237
0.0140044
0.0141128
0.0142096
0.014303
0.0143955
0.0144474
0.0144983
0.0145483
0.0146127
0.0147003
0.0147873
0.0148713
0.0149377
0.015014
0.0150751
0.0151166
0.0152022
0.0153189
0.0153824
0.0154685
0.0155202
0.0155954
0.0156742
0.015749
0.0158333
0.0159073
0.0160155
0.0161266
0.016229
0.0163615
0.0164919
0.0166463
0.0168426
0.0171317
0.0174884
0.018119
0.0192503
0.0195014
0.0195181
0.0195222
0.0195127
0.0194993
0.0194806
0.0194704
0.0194713
0.0194834
0.0194804
0.0194728
0.0194877
0.0194962
0.0195058
0.0195006
0.0194959
0.0194951
0.0194855
0.0194817
0.0194771
0.019466
0.0194552
0.0194346
0.0194226
0.0194173
0.0193812
)
;

boundaryField
{
    inlet
    {
        type            fixedValue;
        value           uniform 0;
    }
    outlet
    {
        type            zeroGradient;
    }
    yzfaces
    {
        type            empty;
    }
}


// ************************************************************************* //
