/*--------------------------------*- C++ -*----------------------------------*\
| =========                 |                                                 |
| \\      /  F ield         | foam-extend: Open Source CFD                    |
|  \\    /   O peration     | Version:     5.0                                |
|   \\  /    A nd           | Web:         http://www.foam-extend.org         |
|    \\/     M anipulation  |                                                 |
\*---------------------------------------------------------------------------*/
FoamFile
{
    version     2.0;
    format      ascii;
    class       volScalarField;
    location    "9";
    object      Ns;
}
// * * * * * * * * * * * * * * * * * * * * * * * * * * * * * * * * * * * * * //

dimensions      [0 -3 0 0 1 0 0];

internalField   nonuniform List<scalar> 
100
(
0.260716
1.12624
1.88694
0.154055
2.17047
1.68219
0.722852
0.828337
0.575921
0.43987
1.40942
0.398535
1.36421
0.276006
0.234983
1.32967
1.06823
0.0556425
0.279965
0.442416
0.961287
0.32451
0.62267
0.70764
1.22207
0.0771632
1.00305
0.403425
0.0493225
2.15556
0.524786
4.03813
2.12626
0.0560744
0.26372
0.187501
0.3731
0.0626415
0.829043
0.0282702
0.208388
0.52236
0.0677303
0.158444
0.0125677
0.652664
0.575306
0.275229
0.495834
0.172726
0.259695
0.487254
0.753714
0.463016
0.109607
0.281429
0.843195
0.0377927
0.158237
0.522593
1.62625
0.497388
0.336029
0.03182
0.189125
0.105295
0.100687
0.723503
0.21352
1.33372
0.0783168
6.14806
11.6122
57.0094
176.458
177.807
173.493
172.536
177.109
174.795
175.759
176.395
174.115
174.62
178.797
173.285
171.535
172.239
172.835
174.784
169.978
168.988
173.879
173.247
170.746
172.723
173.808
171.728
168.197
171.837
)
;

boundaryField
{
    inlet
    {
        type            fixedValue;
        value           uniform 0;
    }
    outlet
    {
        type            zeroGradient;
    }
    yzfaces
    {
        type            empty;
    }
}


// ************************************************************************* //
