/*--------------------------------*- C++ -*----------------------------------*\
| =========                 |                                                 |
| \\      /  F ield         | foam-extend: Open Source CFD                    |
|  \\    /   O peration     | Version:     5.0                                |
|   \\  /    A nd           | Web:         http://www.foam-extend.org         |
|    \\/     M anipulation  |                                                 |
\*---------------------------------------------------------------------------*/
FoamFile
{
    version     2.0;
    format      ascii;
    class       surfaceScalarField;
    location    "9";
    object      phi;
}
// * * * * * * * * * * * * * * * * * * * * * * * * * * * * * * * * * * * * * //

dimensions      [0 3 -1 0 0 0 0];

internalField   nonuniform List<scalar> 
99
(
1.22496e-06
1.22744e-06
1.23995e-06
1.24413e-06
1.23183e-06
1.22178e-06
1.22707e-06
1.21747e-06
1.21208e-06
1.21316e-06
1.22219e-06
1.22311e-06
1.21887e-06
1.2198e-06
1.21429e-06
1.21506e-06
1.2102e-06
1.21031e-06
1.21106e-06
1.21054e-06
1.2154e-06
1.21099e-06
1.20664e-06
1.20994e-06
1.20891e-06
1.2149e-06
1.22166e-06
1.22067e-06
1.22344e-06
1.22513e-06
1.22822e-06
1.22357e-06
1.22214e-06
1.22095e-06
1.22358e-06
1.22247e-06
1.22816e-06
1.22792e-06
1.2295e-06
1.22879e-06
1.2304e-06
1.23318e-06
1.22781e-06
1.23227e-06
1.23147e-06
1.23046e-06
1.23098e-06
1.22987e-06
1.23278e-06
1.23496e-06
1.23284e-06
1.23124e-06
1.23072e-06
1.23009e-06
1.23166e-06
1.23386e-06
1.23079e-06
1.23e-06
1.22879e-06
1.22884e-06
1.23005e-06
1.2303e-06
1.23061e-06
1.2279e-06
1.22478e-06
1.22689e-06
1.22799e-06
1.22773e-06
1.22769e-06
1.22684e-06
1.22644e-06
1.22295e-06
1.22017e-06
1.20996e-06
1.22053e-06
1.22242e-06
1.22263e-06
1.22255e-06
1.22304e-06
1.22313e-06
1.22129e-06
1.22043e-06
1.22331e-06
1.224e-06
1.22254e-06
1.22227e-06
1.2239e-06
1.22509e-06
1.22451e-06
1.22377e-06
1.22301e-06
1.22301e-06
1.22162e-06
1.2226e-06
1.22231e-06
1.22364e-06
1.22249e-06
1.22213e-06
1.22425e-06
)
;

boundaryField
{
    inlet
    {
        type            calculated;
        value           uniform -1.225e-06;
    }
    outlet
    {
        type            calculated;
        value           uniform 1.22232e-06;
    }
    yzfaces
    {
        type            empty;
    }
}


// ************************************************************************* //
