/*--------------------------------*- C++ -*----------------------------------*\
| =========                 |                                                 |
| \\      /  F ield         | foam-extend: Open Source CFD                    |
|  \\    /   O peration     | Version:     5.0                                |
|   \\  /    A nd           | Web:         http://www.foam-extend.org         |
|    \\/     M anipulation  |                                                 |
\*---------------------------------------------------------------------------*/
FoamFile
{
    version     2.0;
    format      ascii;
    class       surfaceScalarField;
    location    "9";
    object      phi.water;
}
// * * * * * * * * * * * * * * * * * * * * * * * * * * * * * * * * * * * * * //

dimensions      [0 3 -1 0 0 0 0];

internalField   nonuniform List<scalar> 
99
(
6.14701e-08
1.09907e-07
1.54943e-07
1.95688e-07
2.36371e-07
2.71134e-07
3.09446e-07
3.3766e-07
3.7992e-07
4.21677e-07
4.63487e-07
4.9555e-07
5.20922e-07
5.47965e-07
5.78152e-07
6.02259e-07
6.19166e-07
6.46681e-07
6.82845e-07
7.14725e-07
7.37035e-07
7.51961e-07
7.85658e-07
8.27917e-07
8.61935e-07
9.20046e-07
9.61901e-07
9.75435e-07
1.00203e-06
1.02769e-06
1.05642e-06
1.0573e-06
1.07552e-06
1.10775e-06
1.15015e-06
1.17329e-06
1.20443e-06
1.23265e-06
1.26938e-06
1.29949e-06
1.32583e-06
1.35069e-06
1.36551e-06
1.39535e-06
1.41606e-06
1.44766e-06
1.47908e-06
1.50375e-06
1.53448e-06
1.56259e-06
1.58662e-06
1.60731e-06
1.63377e-06
1.66965e-06
1.71391e-06
1.75388e-06
1.76982e-06
1.80728e-06
1.83829e-06
1.87669e-06
1.9155e-06
1.95403e-06
1.99626e-06
2.03542e-06
2.08504e-06
2.14355e-06
2.21056e-06
2.28494e-06
2.37361e-06
2.49113e-06
2.66382e-06
2.8974e-06
3.33866e-06
4.3904e-06
4.59203e-06
4.6363e-06
4.64399e-06
4.64008e-06
4.63203e-06
4.62097e-06
4.60509e-06
4.59937e-06
4.61233e-06
4.61425e-06
4.60928e-06
4.61516e-06
4.62646e-06
4.63404e-06
4.63122e-06
4.62709e-06
4.62247e-06
4.61734e-06
4.60691e-06
4.60248e-06
4.59123e-06
4.5836e-06
4.56594e-06
4.55187e-06
4.54681e-06
)
;

boundaryField
{
    inlet
    {
        type            fixedValue;
        value           uniform 0;
    }
    outlet
    {
        type            calculated;
        value           uniform 4.52115e-06;
    }
    yzfaces
    {
        type            empty;
    }
}


// ************************************************************************* //
