/*--------------------------------*- C++ -*----------------------------------*\
| =========                 |                                                 |
| \\      /  F ield         | foam-extend: Open Source CFD                    |
|  \\    /   O peration     | Version:     5.0                                |
|   \\  /    A nd           | Web:         http://www.foam-extend.org         |
|    \\/     M anipulation  |                                                 |
\*---------------------------------------------------------------------------*/
FoamFile
{
    version     2.0;
    format      ascii;
    class       volVectorField;
    location    "9";
    object      U.gas;
}
// * * * * * * * * * * * * * * * * * * * * * * * * * * * * * * * * * * * * * //

dimensions      [0 1 -1 0 0 0 0];

internalField   nonuniform List<vector> 
100
(
(0.00589351 0 0)
(0.0063518 0 0)
(0.00675258 0 0)
(0.0071015 0 0)
(0.00737517 0 0)
(0.00754419 0 0)
(0.00775734 0 0)
(0.00792998 0 0)
(0.00811064 0 0)
(0.00831152 0 0)
(0.00855194 0 0)
(0.00874656 0 0)
(0.00886845 0 0)
(0.00898772 0 0)
(0.00911194 0 0)
(0.00919761 0 0)
(0.00926075 0 0)
(0.00935934 0 0)
(0.00950377 0 0)
(0.00961697 0 0)
(0.00970654 0 0)
(0.00977426 0 0)
(0.00987346 0 0)
(0.0100051 0 0)
(0.0101261 0 0)
(0.0103313 0 0)
(0.0104999 0 0)
(0.0105653 0 0)
(0.0106486 0 0)
(0.0107441 0 0)
(0.0108355 0 0)
(0.0108368 0 0)
(0.0108759 0 0)
(0.0109608 0 0)
(0.0110743 0 0)
(0.0111405 0 0)
(0.011227 0 0)
(0.0113258 0 0)
(0.0114166 0 0)
(0.0114932 0 0)
(0.011549 0 0)
(0.0116183 0 0)
(0.0116483 0 0)
(0.0116986 0 0)
(0.0117613 0 0)
(0.0118322 0 0)
(0.0118888 0 0)
(0.0119396 0 0)
(0.0119999 0 0)
(0.0120725 0 0)
(0.0121227 0 0)
(0.0121402 0 0)
(0.012187 0 0)
(0.0122541 0 0)
(0.0123333 0 0)
(0.012401 0 0)
(0.0124202 0 0)
(0.0124698 0 0)
(0.0125098 0 0)
(0.0125682 0 0)
(0.012624 0 0)
(0.0126845 0 0)
(0.012744 0 0)
(0.0127896 0 0)
(0.0128353 0 0)
(0.0128927 0 0)
(0.0129865 0 0)
(0.0130796 0 0)
(0.0131768 0 0)
(0.013309 0 0)
(0.0134898 0 0)
(0.0136898 0 0)
(0.0140642 0 0)
(0.0146681 0 0)
(0.0122724 0 0)
(0.0118885 0 0)
(0.0118001 0 0)
(0.0117782 0 0)
(0.0117856 0 0)
(0.0118062 0 0)
(0.0118204 0 0)
(0.0118307 0 0)
(0.0118485 0 0)
(0.0118614 0 0)
(0.0118579 0 0)
(0.011848 0 0)
(0.0118434 0 0)
(0.0118475 0 0)
(0.011842 0 0)
(0.0118354 0 0)
(0.0118276 0 0)
(0.0118278 0 0)
(0.0118307 0 0)
(0.011839 0 0)
(0.0118562 0 0)
(0.0118795 0 0)
(0.0119029 0 0)
(0.0119187 0 0)
(0.0119542 0 0)
(0.0119724 0 0)
)
;

boundaryField
{
    inlet
    {
        type            fixedValue;
        value           uniform (0.005 0 0);
    }
    outlet
    {
        type            zeroGradient;
    }
    yzfaces
    {
        type            empty;
    }
}


// ************************************************************************* //
