/*--------------------------------*- C++ -*----------------------------------*\
| =========                 |                                                 |
| \\      /  F ield         | foam-extend: Open Source CFD                    |
|  \\    /   O peration     | Version:     5.0                                |
|   \\  /    A nd           | Web:         http://www.foam-extend.org         |
|    \\/     M anipulation  |                                                 |
\*---------------------------------------------------------------------------*/
FoamFile
{
    version     2.0;
    format      ascii;
    class       volVectorField;
    location    "9";
    object      U.water;
}
// * * * * * * * * * * * * * * * * * * * * * * * * * * * * * * * * * * * * * //

dimensions      [0 1 -1 0 0 0 0];

internalField   nonuniform List<vector> 
100
(
(3.00905e-05 0 0)
(7.07258e-05 0 0)
(0.000107972 0 0)
(0.00014246 0 0)
(0.000174096 0 0)
(0.000205095 0 0)
(0.000234187 0 0)
(0.000261363 0 0)
(0.000287279 0 0)
(0.000319746 0 0)
(0.000353643 0 0)
(0.000385657 0 0)
(0.000411215 0 0)
(0.000434124 0 0)
(0.000457645 0 0)
(0.000480797 0 0)
(0.000498744 0 0)
(0.000515588 0 0)
(0.00053936 0 0)
(0.000566704 0 0)
(0.00059 0 0)
(0.000605794 0 0)
(0.000622486 0 0)
(0.000651369 0 0)
(0.000682608 0 0)
(0.000717172 0 0)
(0.000759774 0 0)
(0.00078766 0 0)
(0.000805179 0 0)
(0.000826447 0 0)
(0.00084816 0 0)
(0.000863133 0 0)
(0.000870775 0 0)
(0.000889398 0 0)
(0.000917951 0 0)
(0.00094608 0 0)
(0.00096902 0 0)
(0.000993152 0 0)
(0.00101909 0 0)
(0.0010464 0 0)
(0.00107033 0 0)
(0.00109171 0 0)
(0.00110835 0 0)
(0.00112577 0 0)
(0.00114601 0 0)
(0.00116565 0 0)
(0.00119153 0 0)
(0.00121529 0 0)
(0.00123853 0 0)
(0.00126308 0 0)
(0.00128463 0 0)
(0.00130347 0 0)
(0.00132189 0 0)
(0.00134674 0 0)
(0.00137923 0 0)
(0.00141352 0 0)
(0.00143772 0 0)
(0.00145856 0 0)
(0.0014865 0 0)
(0.0015144 0 0)
(0.00154614 0 0)
(0.00157778 0 0)
(0.00161093 0 0)
(0.00164523 0 0)
(0.00168156 0 0)
(0.00172605 0 0)
(0.00177728 0 0)
(0.00183517 0 0)
(0.00190284 0 0)
(0.00198816 0 0)
(0.00210724 0 0)
(0.00227778 0 0)
(0.00255845 0 0)
(0.00310405 0 0)
(0.00364761 0 0)
(0.00376315 0 0)
(0.00378683 0 0)
(0.00378907 0 0)
(0.00378465 0 0)
(0.00377746 0 0)
(0.00376674 0 0)
(0.00375716 0 0)
(0.00375932 0 0)
(0.00376599 0 0)
(0.00376549 0 0)
(0.0037652 0 0)
(0.00377133 0 0)
(0.00377878 0 0)
(0.00378141 0 0)
(0.0037791 0 0)
(0.00377555 0 0)
(0.0037715 0 0)
(0.00376484 0 0)
(0.00375847 0 0)
(0.00375197 0 0)
(0.00374445 0 0)
(0.00373456 0 0)
(0.00372142 0 0)
(0.00371313 0 0)
(0.00370276 0 0)
)
;

boundaryField
{
    inlet
    {
        type            fixedValue;
        value           uniform (0 0 0);
    }
    outlet
    {
        type            zeroGradient;
    }
    yzfaces
    {
        type            empty;
    }
}


// ************************************************************************* //
