/*--------------------------------*- C++ -*----------------------------------*\
| =========                 |                                                 |
| \\      /  F ield         | foam-extend: Open Source CFD                    |
|  \\    /   O peration     | Version:     5.0                                |
|   \\  /    A nd           | Web:         http://www.foam-extend.org         |
|    \\/     M anipulation  |                                                 |
\*---------------------------------------------------------------------------*/
FoamFile
{
    version     2.0;
    format      ascii;
    class       volScalarField;
    location    "2";
    object      Cl.water;
}
// * * * * * * * * * * * * * * * * * * * * * * * * * * * * * * * * * * * * * //

dimensions      [0 0 0 0 0 0 0];

internalField   nonuniform List<scalar> 
100
(
0.0133483
0.0169528
0.0190364
0.0206089
0.0219878
0.0229247
0.0237728
0.0245833
0.0252333
0.0258269
0.0264193
0.0268566
0.0273282
0.0278222
0.0282535
0.0286347
0.0289144
0.029304
0.0296867
0.0300166
0.0302621
0.0305524
0.0309121
0.0312418
0.0314828
0.0317904
0.0320821
0.0324062
0.0327196
0.0340364
0.0344199
0.0347763
0.0351731
0.0355947
0.0360107
0.0364257
0.0369031
0.0373675
0.0378941
0.0383699
0.0388294
0.0391522
0.0394529
0.0396318
0.0397712
0.039835
0.0398908
0.0399361
0.0399578
0.0399839
0.0399559
0.0399928
0.0399623
0.0399609
0.0399559
0.0399647
0.0399975
0.0399802
0.0400133
0.0399815
0.0399982
0.0399895
0.0400036
0.039973
0.0400237
0.0400222
0.0400351
0.0400234
0.0399796
0.0400067
0.039952
0.0400041
0.0399738
0.0399579
0.0399901
0.0399624
0.03997
0.0399989
0.0400091
0.0400291
0.0400288
0.040016
0.0400374
0.0400234
0.0399957
0.0400177
0.0399969
0.0400096
0.0400102
0.0400028
0.0400158
0.0400154
0.0400023
0.0399954
0.0399814
0.04
0.0399795
0.0399937
0.0400103
0.0400394
)
;

boundaryField
{
    inlet
    {
        type            fixedValue;
        value           uniform 0;
    }
    outlet
    {
        type            zeroGradient;
    }
    yzfaces
    {
        type            empty;
    }
}


// ************************************************************************* //
