/*--------------------------------*- C++ -*----------------------------------*\
| =========                 |                                                 |
| \\      /  F ield         | foam-extend: Open Source CFD                    |
|  \\    /   O peration     | Version:     5.0                                |
|   \\  /    A nd           | Web:         http://www.foam-extend.org         |
|    \\/     M anipulation  |                                                 |
\*---------------------------------------------------------------------------*/
FoamFile
{
    version     2.0;
    format      ascii;
    class       volScalarField;
    location    "2";
    object      CO2.water;
}
// * * * * * * * * * * * * * * * * * * * * * * * * * * * * * * * * * * * * * //

dimensions      [0 0 0 0 0 0 0];

internalField   nonuniform List<scalar> 
100
(
0.00172969
0.00217305
0.00245603
0.00266068
0.00282367
0.00296381
0.00305965
0.00316966
0.00325121
0.00333218
0.00339887
0.00345857
0.00351939
0.00357403
0.00362854
0.00367519
0.00371899
0.00376334
0.00380826
0.00384861
0.00388861
0.00392876
0.00396662
0.00400659
0.00404522
0.00408585
0.00412476
0.004165
0.00420726
0.000176819
3.9443e-05
9.34496e-06
2.36733e-06
6.45723e-07
1.90331e-07
6.08969e-08
2.11312e-08
7.9184e-09
3.19714e-09
1.37672e-09
6.28443e-10
2.99383e-10
1.4754e-10
7.46557e-11
3.83865e-11
1.98905e-11
1.03297e-11
5.36632e-12
2.79154e-12
1.45385e-12
7.51455e-13
3.90626e-13
2.03073e-13
1.03834e-13
5.24268e-14
2.62043e-14
1.3068e-14
6.48828e-15
3.19248e-15
1.56105e-15
7.56192e-16
3.63115e-16
1.72313e-16
8.12831e-17
3.81095e-17
1.77067e-17
8.17784e-18
3.76594e-18
1.71658e-18
7.83107e-19
3.54165e-19
1.60021e-19
7.18869e-20
3.21858e-20
1.43656e-20
6.39118e-21
2.83284e-21
1.25401e-21
5.54932e-22
2.44261e-22
1.07123e-22
4.68995e-23
2.03935e-23
8.84232e-24
3.81824e-24
1.64193e-24
7.03522e-25
3.00298e-25
1.27198e-25
5.38187e-26
2.27244e-26
9.56347e-27
4.04043e-27
1.68808e-27
7.01422e-28
2.89414e-28
1.18615e-28
4.83092e-29
1.95413e-29
9.41774e-30
)
;

boundaryField
{
    inlet
    {
        type            fixedValue;
        value           uniform 0;
    }
    outlet
    {
        type            zeroGradient;
    }
    yzfaces
    {
        type            empty;
    }
}


// ************************************************************************* //
