/*--------------------------------*- C++ -*----------------------------------*\
| =========                 |                                                 |
| \\      /  F ield         | foam-extend: Open Source CFD                    |
|  \\    /   O peration     | Version:     5.0                                |
|   \\  /    A nd           | Web:         http://www.foam-extend.org         |
|    \\/     M anipulation  |                                                 |
\*---------------------------------------------------------------------------*/
FoamFile
{
    version     2.0;
    format      ascii;
    class       volScalarField;
    location    "2";
    object      Na.water;
}
// * * * * * * * * * * * * * * * * * * * * * * * * * * * * * * * * * * * * * //

dimensions      [0 0 0 0 0 0 0];

internalField   nonuniform List<scalar> 
100
(
0.0133473
0.0169656
0.0190316
0.0206036
0.021983
0.0229062
0.023749
0.0245621
0.0252138
0.0258185
0.0264197
0.0268555
0.0273108
0.0277924
0.0282321
0.0286026
0.0288988
0.0292902
0.0296999
0.0300382
0.0302819
0.030557
0.0309318
0.0312503
0.031498
0.0318042
0.0320833
0.032405
0.0327167
0.0340379
0.0344174
0.0347702
0.0351558
0.0355824
0.0360115
0.0364292
0.0368948
0.0373647
0.0378938
0.0383787
0.0388418
0.0391704
0.0394641
0.039651
0.0397873
0.0398604
0.0399223
0.0399616
0.039981
0.0399962
0.0399737
0.0400078
0.0399738
0.0399773
0.0399549
0.0399584
0.0399894
0.0399775
0.0400132
0.0399919
0.0400158
0.039996
0.0400001
0.0399629
0.0400094
0.0400209
0.0400482
0.0400311
0.0399697
0.0400084
0.0399592
0.0400164
0.039979
0.0399607
0.0400082
0.0399697
0.039976
0.0400126
0.0400224
0.0400312
0.0400288
0.0400175
0.0400207
0.0400055
0.0399658
0.0399881
0.0399816
0.0400024
0.0400178
0.0399968
0.0399962
0.0400123
0.0399991
0.0399992
0.0399808
0.0400053
0.0399921
0.0400063
0.0400089
0.0400075
)
;

boundaryField
{
    inlet
    {
        type            fixedValue;
        value           uniform 0;
    }
    outlet
    {
        type            zeroGradient;
    }
    yzfaces
    {
        type            empty;
    }
}


// ************************************************************************* //
