/*--------------------------------*- C++ -*----------------------------------*\
| =========                 |                                                 |
| \\      /  F ield         | foam-extend: Open Source CFD                    |
|  \\    /   O peration     | Version:     5.0                                |
|   \\  /    A nd           | Web:         http://www.foam-extend.org         |
|    \\/     M anipulation  |                                                 |
\*---------------------------------------------------------------------------*/
FoamFile
{
    version     2.0;
    format      ascii;
    class       volScalarField;
    location    "2";
    object      S.gas;
}
// * * * * * * * * * * * * * * * * * * * * * * * * * * * * * * * * * * * * * //

dimensions      [0 0 0 0 0 0 0];

internalField   nonuniform List<scalar> 
100
(
0.670717
0.586315
0.532443
0.493484
0.462455
0.435777
0.417531
0.396589
0.381065
0.365651
0.352955
0.34159
0.330011
0.319608
0.309232
0.300351
0.292013
0.283571
0.275018
0.267337
0.259723
0.252079
0.244872
0.237263
0.229909
0.222174
0.214767
0.207105
0.199062
0.190792
0.182419
0.173822
0.164877
0.155472
0.145428
0.134779
0.123595
0.112038
0.100358
0.0889877
0.078635
0.0698479
0.0629863
0.0580785
0.054815
0.0528001
0.0515885
0.0508902
0.0504898
0.0502761
0.0501465
0.0500675
0.0500389
0.0500114
0.050013
0.0500039
0.0500137
0.0500099
0.050004
0.0500179
0.0500029
0.050002
0.0500081
0.0500139
0.0500065
0.0500112
0.0500017
0.0500032
0.0500016
0.0500063
0.0499987
0.0499959
0.0499839
0.0499902
0.0499979
0.0500049
0.0500114
0.0500043
0.0500052
0.0499916
0.0500032
0.0500024
0.0499992
0.0499938
0.0499869
0.0499859
0.0499932
0.0499842
0.0499879
0.0499992
0.0499897
0.0499853
0.0499908
0.0499964
0.0499974
0.0500066
0.0500085
0.0500061
0.0500013
0.0499931
)
;

boundaryField
{
    inlet
    {
        type            calculated;
        value           uniform 1;
    }
    outlet
    {
        type            calculated;
        value           uniform 0.0499931;
    }
    yzfaces
    {
        type            empty;
    }
}


// ************************************************************************* //
