/*--------------------------------*- C++ -*----------------------------------*\
| =========                 |                                                 |
| \\      /  F ield         | foam-extend: Open Source CFD                    |
|  \\    /   O peration     | Version:     5.0                                |
|   \\  /    A nd           | Web:         http://www.foam-extend.org         |
|    \\/     M anipulation  |                                                 |
\*---------------------------------------------------------------------------*/
FoamFile
{
    version     2.0;
    format      ascii;
    class       volScalarField;
    location    "8";
    object      alpha.gas;
}
// * * * * * * * * * * * * * * * * * * * * * * * * * * * * * * * * * * * * * //

dimensions      [0 0 0 0 0 0 0];

internalField   nonuniform List<scalar> 
100
(
0.168335
0.153756
0.144814
0.137729
0.132295
0.12789
0.123911
0.120111
0.115846
0.112412
0.109456
0.106932
0.104766
0.102922
0.101384
0.0996415
0.0978653
0.096405
0.0951915
0.0937384
0.0920519
0.0905593
0.0885132
0.08721
0.0861371
0.0846151
0.0836302
0.0830367
0.0822391
0.0811914
0.0802781
0.0795058
0.0782477
0.0774067
0.0764986
0.0756737
0.074915
0.074283
0.07357
0.0728923
0.0719743
0.0713568
0.0706781
0.0701139
0.0694308
0.0687612
0.0680018
0.0671254
0.0664033
0.065582
0.0647374
0.0638917
0.06308
0.0622141
0.0615432
0.0606104
0.0597816
0.0588802
0.0575866
0.0564296
0.0548357
0.0528442
0.050136
0.0463202
0.0398356
0.0273181
0.0298543
0.0295541
0.0292804
0.0292045
0.0292943
0.0294658
0.0296739
0.02989
0.0300792
0.0302594
0.0304186
0.0305654
0.0307077
0.0308506
0.0309842
0.031133
0.0312776
0.0314383
0.0315819
0.0317179
0.0318671
0.0320284
0.0321593
0.0322818
0.0324399
0.0325697
0.0326851
0.0327996
0.0329066
0.0330042
0.033065
0.0331362
0.0331951
0.0332939
)
;

boundaryField
{
    inlet
    {
        type            fixedValue;
        value           uniform 0.2;
    }
    outlet
    {
        type            zeroGradient;
    }
    yzfaces
    {
        type            empty;
    }
}


// ************************************************************************* //
