/*--------------------------------*- C++ -*----------------------------------*\
| =========                 |                                                 |
| \\      /  F ield         | foam-extend: Open Source CFD                    |
|  \\    /   O peration     | Version:     5.0                                |
|   \\  /    A nd           | Web:         http://www.foam-extend.org         |
|    \\/     M anipulation  |                                                 |
\*---------------------------------------------------------------------------*/
FoamFile
{
    version     2.0;
    format      ascii;
    class       volScalarField;
    location    "8";
    object      Cl.water;
}
// * * * * * * * * * * * * * * * * * * * * * * * * * * * * * * * * * * * * * //

dimensions      [0 0 0 0 0 0 0];

internalField   nonuniform List<scalar> 
100
(
0.00362419
0.00527185
0.00625851
0.00700889
0.0076789
0.00822283
0.00868202
0.00907071
0.00948331
0.00991731
0.010285
0.0105818
0.0108592
0.0111137
0.0112848
0.0114599
0.0116645
0.0118554
0.011995
0.0121335
0.0122962
0.0124687
0.0126663
0.0128899
0.0130342
0.0131962
0.0133525
0.0134251
0.0134994
0.0136277
0.0137325
0.0138291
0.0139365
0.0140623
0.0141583
0.0142682
0.0143554
0.014425
0.0145011
0.0145759
0.0146993
0.0147578
0.0148329
0.0149076
0.0149769
0.0150608
0.0151408
0.0152377
0.0153283
0.0154118
0.0155158
0.0156195
0.0157152
0.0157993
0.0158836
0.0159954
0.016076
0.0161982
0.0163542
0.0164738
0.0166628
0.0168904
0.017202
0.0176231
0.0183317
0.0195605
0.0195849
0.0195719
0.0195997
0.019614
0.0195902
0.0195814
0.0195534
0.0195272
0.0195141
0.0194948
0.019481
0.0194625
0.0194433
0.0194259
0.0194155
0.0193927
0.0193817
0.0193522
0.0193455
0.0193209
0.0193062
0.0192843
0.0192687
0.019256
0.0192379
0.0192268
0.0192048
0.0191937
0.0191789
0.0191727
0.0191677
0.0191517
0.019149
0.0191455
)
;

boundaryField
{
    inlet
    {
        type            fixedValue;
        value           uniform 0;
    }
    outlet
    {
        type            zeroGradient;
    }
    yzfaces
    {
        type            empty;
    }
}


// ************************************************************************* //
