/*--------------------------------*- C++ -*----------------------------------*\
| =========                 |                                                 |
| \\      /  F ield         | foam-extend: Open Source CFD                    |
|  \\    /   O peration     | Version:     5.0                                |
|   \\  /    A nd           | Web:         http://www.foam-extend.org         |
|    \\/     M anipulation  |                                                 |
\*---------------------------------------------------------------------------*/
FoamFile
{
    version     2.0;
    format      ascii;
    class       volScalarField;
    location    "8";
    object      CO2.gas;
}
// * * * * * * * * * * * * * * * * * * * * * * * * * * * * * * * * * * * * * //

dimensions      [0 0 0 0 0 0 0];

internalField   nonuniform List<scalar> 
100
(
0.168007
0.152347
0.142831
0.134891
0.130528
0.126922
0.123053
0.118702
0.113619
0.110721
0.108099
0.105741
0.103888
0.102451
0.100898
0.0989024
0.0971525
0.0958643
0.0946446
0.0929523
0.0910648
0.0896596
0.0874114
0.0866486
0.0857061
0.084083
0.083393
0.0828485
0.0819455
0.0809644
0.0800342
0.0793071
0.0778467
0.0771885
0.076243
0.0754747
0.0747378
0.0740877
0.0733159
0.0726401
0.0718341
0.0711441
0.0704566
0.0699492
0.0692412
0.0685937
0.0677789
0.0668979
0.0661928
0.0653505
0.0645513
0.0637277
0.0629335
0.0620274
0.0613758
0.0604603
0.0595972
0.0587554
0.0574745
0.0562758
0.0547212
0.0527413
0.0500383
0.04623
0.0397581
0.0272649
0.0297237
0.0294825
0.029205
0.0291065
0.0291957
0.0293277
0.0295092
0.0296846
0.0298118
0.0299274
0.0299999
0.0300479
0.0300761
0.0300767
0.0300352
0.0299923
0.0298973
0.029805
0.0296305
0.0294298
0.0291873
0.0289146
0.0285597
0.0281409
0.0277088
0.0271917
0.0266173
0.0259826
0.025296
0.0245444
0.0237186
0.0228667
0.021952
0.0210293
)
;

boundaryField
{
    inlet
    {
        type            fixedValue;
        value           uniform 0.2;
    }
    outlet
    {
        type            zeroGradient;
    }
    yzfaces
    {
        type            empty;
    }
}


// ************************************************************************* //
