/*--------------------------------*- C++ -*----------------------------------*\
| =========                 |                                                 |
| \\      /  F ield         | foam-extend: Open Source CFD                    |
|  \\    /   O peration     | Version:     5.0                                |
|   \\  /    A nd           | Web:         http://www.foam-extend.org         |
|    \\/     M anipulation  |                                                 |
\*---------------------------------------------------------------------------*/
FoamFile
{
    version     2.0;
    format      ascii;
    class       volScalarField;
    location    "8";
    object      CO2.water;
}
// * * * * * * * * * * * * * * * * * * * * * * * * * * * * * * * * * * * * * //

dimensions      [0 0 0 0 0 0 0];

internalField   nonuniform List<scalar> 
100
(
0.00082909
0.00120517
0.00143138
0.00160381
0.00175647
0.00188107
0.00198541
0.0020753
0.0021696
0.00226829
0.00235171
0.00241963
0.00248383
0.00254103
0.00258079
0.00262012
0.00266769
0.00271055
0.00274165
0.00277319
0.00281097
0.00285131
0.00289608
0.00294844
0.00298119
0.00301633
0.00305307
0.0030716
0.00308827
0.0031171
0.00314006
0.00316201
0.00318725
0.00321539
0.00323889
0.00326326
0.00328386
0.00330017
0.00331502
0.00333328
0.00336233
0.00337514
0.00339349
0.00341116
0.00342647
0.00344545
0.00346247
0.00348456
0.00350435
0.00352453
0.00355011
0.00357374
0.00359556
0.00361523
0.00363342
0.00365872
0.00367787
0.00370599
0.00374038
0.00376811
0.00381221
0.00386412
0.00393513
0.0040325
0.00419398
0.00447485
0.00132446
0.000437725
0.000146128
4.77582e-05
1.52517e-05
4.79553e-06
1.49468e-06
4.64724e-07
1.44613e-07
4.51256e-08
1.41365e-08
4.44365e-09
1.40123e-09
4.42421e-10
1.39799e-10
4.41989e-11
1.39619e-11
4.40386e-12
1.38777e-12
4.37134e-13
1.37644e-13
4.3333e-14
1.36388e-14
4.30182e-15
1.35999e-15
4.3139e-16
1.37633e-16
4.43352e-17
1.45161e-17
4.91129e-18
1.76739e-18
7.03213e-19
3.19956e-19
1.66721e-19
)
;

boundaryField
{
    inlet
    {
        type            fixedValue;
        value           uniform 0;
    }
    outlet
    {
        type            zeroGradient;
    }
    yzfaces
    {
        type            empty;
    }
}


// ************************************************************************* //
