/*--------------------------------*- C++ -*----------------------------------*\
| =========                 |                                                 |
| \\      /  F ield         | foam-extend: Open Source CFD                    |
|  \\    /   O peration     | Version:     5.0                                |
|   \\  /    A nd           | Web:         http://www.foam-extend.org         |
|    \\/     M anipulation  |                                                 |
\*---------------------------------------------------------------------------*/
FoamFile
{
    version     2.0;
    format      ascii;
    class       volScalarField;
    location    "8";
    object      H2O.gas;
}
// * * * * * * * * * * * * * * * * * * * * * * * * * * * * * * * * * * * * * //

dimensions      [0 0 0 0 0 0 0];

internalField   nonuniform List<scalar> 
100
(
0.000327828
0.000223057
0.000171199
0.00012467
9.47647e-05
8.15915e-05
8.13657e-05
8.772e-05
9.60434e-05
0.000105208
0.000112119
0.000116079
0.000118217
0.000122811
0.000130971
0.000139576
0.000148066
0.000154456
0.000158784
0.000160252
0.000159644
0.000158629
0.000155455
0.000154343
0.000152452
0.000149417
0.000151952
0.000153957
0.000153832
0.000152408
0.000150363
0.000148376
0.000146965
0.000146527
0.000144986
0.000143867
0.000143424
0.000142843
0.000141799
0.000140677
0.000140168
0.00013864
0.000137434
0.000136325
0.000134879
0.000133605
0.000132004
0.000130405
0.000129054
0.000127524
0.000125917
0.000124286
0.000122808
0.000121183
0.000119919
0.00011806
0.000116305
0.000114663
0.000112148
0.000109869
0.000106827
0.000102913
9.76383e-05
9.02072e-05
7.75788e-05
5.32013e-05
6.3253e-05
7.00939e-05
7.98496e-05
9.37624e-05
0.000113024
0.000138421
0.000171607
0.000214004
0.000267198
0.000333563
0.000414923
0.00051391
0.000633282
0.000775362
0.000943388
0.00114174
0.00137205
0.00163875
0.00194221
0.00228851
0.00267894
0.00311765
0.0036018
0.0041384
0.00473037
0.0053714
0.00606682
0.00681524
0.00761587
0.00846049
0.00934238
0.0102768
0.0112417
0.0122589
)
;

boundaryField
{
    inlet
    {
        type            fixedValue;
        value           uniform 0;
    }
    outlet
    {
        type            zeroGradient;
    }
    yzfaces
    {
        type            empty;
    }
}


// ************************************************************************* //
