/*--------------------------------*- C++ -*----------------------------------*\
| =========                 |                                                 |
| \\      /  F ield         | foam-extend: Open Source CFD                    |
|  \\    /   O peration     | Version:     5.0                                |
|   \\  /    A nd           | Web:         http://www.foam-extend.org         |
|    \\/     M anipulation  |                                                 |
\*---------------------------------------------------------------------------*/
FoamFile
{
    version     2.0;
    format      ascii;
    class       volScalarField;
    location    "8";
    object      H2O.water;
}
// * * * * * * * * * * * * * * * * * * * * * * * * * * * * * * * * * * * * * //

dimensions      [0 0 0 0 0 0 0];

internalField   nonuniform List<scalar> 
100
(
0.0234879
0.0341428
0.040548
0.0454242
0.049738
0.0532842
0.0562637
0.0587904
0.06147
0.0642528
0.0666
0.0685516
0.0703473
0.071987
0.0731229
0.0742136
0.0755493
0.0767705
0.0776616
0.078527
0.0795973
0.0807729
0.082078
0.0835394
0.0844474
0.0854648
0.0865007
0.0869962
0.0874694
0.0883295
0.0889805
0.0895991
0.0902971
0.0911393
0.0917593
0.0924364
0.0930327
0.0934746
0.0939244
0.0944313
0.095254
0.0956209
0.0961008
0.0965981
0.0970794
0.0976004
0.0980766
0.0987236
0.099274
0.0998532
0.100549
0.101207
0.101836
0.102416
0.102941
0.103659
0.104218
0.104987
0.105964
0.10674
0.107999
0.109469
0.111481
0.11424
0.118814
0.126771
0.129774
0.13086
0.131368
0.131523
0.131478
0.131359
0.131197
0.131038
0.130896
0.130757
0.130639
0.130519
0.130404
0.130291
0.130194
0.130086
0.129979
0.129846
0.129743
0.129623
0.129524
0.129401
0.12929
0.129195
0.129094
0.12899
0.128886
0.128805
0.12872
0.128647
0.128593
0.12854
0.128501
0.128441
)
;

boundaryField
{
    inlet
    {
        type            fixedValue;
        value           uniform 0;
    }
    outlet
    {
        type            zeroGradient;
    }
    yzfaces
    {
        type            empty;
    }
}


// ************************************************************************* //
