/*--------------------------------*- C++ -*----------------------------------*\
| =========                 |                                                 |
| \\      /  F ield         | foam-extend: Open Source CFD                    |
|  \\    /   O peration     | Version:     5.0                                |
|   \\  /    A nd           | Web:         http://www.foam-extend.org         |
|    \\/     M anipulation  |                                                 |
\*---------------------------------------------------------------------------*/
FoamFile
{
    version     2.0;
    format      ascii;
    class       volScalarField;
    location    "8";
    object      Na.water;
}
// * * * * * * * * * * * * * * * * * * * * * * * * * * * * * * * * * * * * * //

dimensions      [0 0 0 0 0 0 0];

internalField   nonuniform List<scalar> 
100
(
0.00362571
0.00526696
0.00625791
0.0070081
0.00767644
0.00822244
0.0086807
0.00907472
0.00948262
0.00991415
0.0102782
0.010579
0.0108532
0.0111082
0.0112808
0.0114611
0.0116638
0.0118435
0.0119828
0.0121183
0.0122733
0.0124521
0.0126546
0.0128859
0.0130318
0.0131857
0.0133449
0.0134223
0.0135036
0.0136252
0.0137292
0.0138276
0.0139362
0.0140629
0.0141665
0.0142678
0.0143565
0.0144282
0.0144965
0.014573
0.0147023
0.0147558
0.0148408
0.0149166
0.0149835
0.0150675
0.0151418
0.0152365
0.0153263
0.0154154
0.0155217
0.015623
0.0157216
0.0158108
0.0158918
0.0160026
0.0160867
0.0162043
0.0163531
0.0164762
0.0166699
0.016899
0.0172083
0.0176387
0.0183422
0.0195694
0.0195903
0.0195761
0.0196029
0.0196184
0.0195939
0.0195841
0.0195543
0.0195292
0.0195115
0.019487
0.0194721
0.019456
0.0194348
0.0194195
0.0194092
0.0193894
0.0193799
0.0193535
0.0193473
0.0193267
0.0193102
0.019289
0.0192758
0.0192663
0.0192476
0.0192361
0.0192231
0.0192094
0.0191906
0.0191803
0.0191766
0.0191622
0.0191628
0.0191504
)
;

boundaryField
{
    inlet
    {
        type            fixedValue;
        value           uniform 0;
    }
    outlet
    {
        type            zeroGradient;
    }
    yzfaces
    {
        type            empty;
    }
}


// ************************************************************************* //
