/*--------------------------------*- C++ -*----------------------------------*\
| =========                 |                                                 |
| \\      /  F ield         | foam-extend: Open Source CFD                    |
|  \\    /   O peration     | Version:     5.0                                |
|   \\  /    A nd           | Web:         http://www.foam-extend.org         |
|    \\/     M anipulation  |                                                 |
\*---------------------------------------------------------------------------*/
FoamFile
{
    version     2.0;
    format      ascii;
    class       volScalarField;
    location    "8";
    object      Ns;
}
// * * * * * * * * * * * * * * * * * * * * * * * * * * * * * * * * * * * * * //

dimensions      [0 -3 0 0 1 0 0];

internalField   nonuniform List<scalar> 
100
(
3.62007
0.614462
2.40856
0.154055
2.17047
1.68219
0.722852
0.828337
0.575921
0.43987
1.40942
0.398535
1.36421
0.276006
0.601859
1.63943
0.00476475
0.0556425
0.279965
0.442416
0.961287
0.32451
0.62267
0.70764
1.22207
0.0771632
0.987493
0.118502
0.271493
1.3799
0.394843
0.796425
1.17951
0.0560744
0.26372
0.187501
0.256823
0.0626415
0.0692568
0.105354
0.291431
0.441955
0.140291
0.266424
0.0125677
0.117553
0.575306
0.275229
0.495834
0.0726278
0.26242
0.232554
0.0652341
0.496411
0.43248
0.245365
1.9097
0.0377927
0.0584921
1.71582
0.0890667
1.21438
1.38001
5.39621
17.8225
85.2205
172.638
170.94
174.925
177.175
179.895
173.245
175.811
175.476
179.653
177.528
173.001
171.647
177.792
175.298
174.3
177.398
174.452
175.599
177.872
174.715
171.972
172.311
173.546
174.733
170.898
168.741
173.253
173.582
171.726
173.056
172.47
171.625
168.161
171.591
)
;

boundaryField
{
    inlet
    {
        type            fixedValue;
        value           uniform 0;
    }
    outlet
    {
        type            zeroGradient;
    }
    yzfaces
    {
        type            empty;
    }
}


// ************************************************************************* //
