/*--------------------------------*- C++ -*----------------------------------*\
| =========                 |                                                 |
| \\      /  F ield         | foam-extend: Open Source CFD                    |
|  \\    /   O peration     | Version:     5.0                                |
|   \\  /    A nd           | Web:         http://www.foam-extend.org         |
|    \\/     M anipulation  |                                                 |
\*---------------------------------------------------------------------------*/
FoamFile
{
    version     2.0;
    format      ascii;
    class       surfaceScalarField;
    location    "8";
    object      phi;
}
// * * * * * * * * * * * * * * * * * * * * * * * * * * * * * * * * * * * * * //

dimensions      [0 3 -1 0 0 0 0];

internalField   nonuniform List<scalar> 
99
(
1.23129e-06
1.21513e-06
1.22795e-06
1.22871e-06
1.22712e-06
1.22518e-06
1.2194e-06
1.2191e-06
1.20646e-06
1.20391e-06
1.19754e-06
1.19845e-06
1.20112e-06
1.20457e-06
1.20766e-06
1.20905e-06
1.20288e-06
1.20976e-06
1.21691e-06
1.21474e-06
1.21137e-06
1.21249e-06
1.20798e-06
1.21029e-06
1.2108e-06
1.2086e-06
1.2034e-06
1.2066e-06
1.20202e-06
1.20232e-06
1.2036e-06
1.20244e-06
1.20741e-06
1.20588e-06
1.2053e-06
1.20417e-06
1.2036e-06
1.20293e-06
1.20238e-06
1.20163e-06
1.19956e-06
1.19907e-06
1.19795e-06
1.1968e-06
1.19633e-06
1.19611e-06
1.19441e-06
1.19177e-06
1.18903e-06
1.18671e-06
1.18967e-06
1.19095e-06
1.19118e-06
1.19228e-06
1.18847e-06
1.18851e-06
1.18735e-06
1.1851e-06
1.18406e-06
1.1844e-06
1.18521e-06
1.18334e-06
1.18498e-06
1.1823e-06
1.17908e-06
1.16386e-06
1.17818e-06
1.1792e-06
1.17734e-06
1.17764e-06
1.17466e-06
1.17471e-06
1.17342e-06
1.17248e-06
1.17246e-06
1.17253e-06
1.17339e-06
1.17358e-06
1.17342e-06
1.17267e-06
1.1746e-06
1.17376e-06
1.17552e-06
1.17416e-06
1.17487e-06
1.17362e-06
1.17423e-06
1.17224e-06
1.1715e-06
1.17221e-06
1.17298e-06
1.17399e-06
1.17436e-06
1.17513e-06
1.17494e-06
1.17451e-06
1.17619e-06
1.17456e-06
1.17485e-06
)
;

boundaryField
{
    inlet
    {
        type            calculated;
        value           uniform -1.225e-06;
    }
    outlet
    {
        type            calculated;
        value           uniform 1.17453e-06;
    }
    yzfaces
    {
        type            empty;
    }
}


// ************************************************************************* //
