/*--------------------------------*- C++ -*----------------------------------*\
| =========                 |                                                 |
| \\      /  F ield         | foam-extend: Open Source CFD                    |
|  \\    /   O peration     | Version:     5.0                                |
|   \\  /    A nd           | Web:         http://www.foam-extend.org         |
|    \\/     M anipulation  |                                                 |
\*---------------------------------------------------------------------------*/
FoamFile
{
    version     2.0;
    format      ascii;
    class       volVectorField;
    location    "8";
    object      U.gas;
}
// * * * * * * * * * * * * * * * * * * * * * * * * * * * * * * * * * * * * * //

dimensions      [0 1 -1 0 0 0 0];

internalField   nonuniform List<vector> 
100
(
(0.00593886 0 0)
(0.00647144 0 0)
(0.00684011 0 0)
(0.00720888 0 0)
(0.00747782 0 0)
(0.00769957 0 0)
(0.00789647 0 0)
(0.00809836 0 0)
(0.00831745 0 0)
(0.00847902 0 0)
(0.00863862 0 0)
(0.00878589 0 0)
(0.00894611 0 0)
(0.00909715 0 0)
(0.00923026 0 0)
(0.00937757 0 0)
(0.00949225 0 0)
(0.0096025 0 0)
(0.00974978 0 0)
(0.00988705 0 0)
(0.0100018 0 0)
(0.0101106 0 0)
(0.0102724 0 0)
(0.0103587 0 0)
(0.0104573 0 0)
(0.0105861 0 0)
(0.0106261 0 0)
(0.0106594 0 0)
(0.0107251 0 0)
(0.0108011 0 0)
(0.0108828 0 0)
(0.0109464 0 0)
(0.0110845 0 0)
(0.0111616 0 0)
(0.0112333 0 0)
(0.0112934 0 0)
(0.0113491 0 0)
(0.0113941 0 0)
(0.0114516 0 0)
(0.0115022 0 0)
(0.0115706 0 0)
(0.0116067 0 0)
(0.0116579 0 0)
(0.0116898 0 0)
(0.0117431 0 0)
(0.0117949 0 0)
(0.0118525 0 0)
(0.0119081 0 0)
(0.0119331 0 0)
(0.0119803 0 0)
(0.0120519 0 0)
(0.0121379 0 0)
(0.012206 0 0)
(0.0122816 0 0)
(0.0123046 0 0)
(0.0123688 0 0)
(0.0124151 0 0)
(0.0124643 0 0)
(0.0125531 0 0)
(0.012624 0 0)
(0.0127553 0 0)
(0.0128863 0 0)
(0.0130724 0 0)
(0.0133307 0 0)
(0.0137089 0 0)
(0.0142303 0 0)
(0.0110395 0 0)
(0.0113513 0 0)
(0.0112862 0 0)
(0.0112043 0 0)
(0.0111614 0 0)
(0.0111612 0 0)
(0.0111876 0 0)
(0.011215 0 0)
(0.0112552 0 0)
(0.0112932 0 0)
(0.011334 0 0)
(0.0113724 0 0)
(0.0114026 0 0)
(0.0114253 0 0)
(0.0114548 0 0)
(0.0114822 0 0)
(0.0115149 0 0)
(0.0115407 0 0)
(0.0115694 0 0)
(0.0115903 0 0)
(0.0116077 0 0)
(0.0116247 0 0)
(0.0116415 0 0)
(0.0116665 0 0)
(0.0116895 0 0)
(0.011725 0 0)
(0.011754 0 0)
(0.0117774 0 0)
(0.0117991 0 0)
(0.0118146 0 0)
(0.0118375 0 0)
(0.0118447 0 0)
(0.0118494 0 0)
(0.0118532 0 0)
)
;

boundaryField
{
    inlet
    {
        type            fixedValue;
        value           uniform (0.005 0 0);
    }
    outlet
    {
        type            zeroGradient;
    }
    yzfaces
    {
        type            empty;
    }
}


// ************************************************************************* //
