/*--------------------------------*- C++ -*----------------------------------*\
| =========                 |                                                 |
| \\      /  F ield         | foam-extend: Open Source CFD                    |
|  \\    /   O peration     | Version:     5.0                                |
|   \\  /    A nd           | Web:         http://www.foam-extend.org         |
|    \\/     M anipulation  |                                                 |
\*---------------------------------------------------------------------------*/
FoamFile
{
    version     2.0;
    format      ascii;
    class       volVectorField;
    location    "8";
    object      U.water;
}
// * * * * * * * * * * * * * * * * * * * * * * * * * * * * * * * * * * * * * //

dimensions      [0 1 -1 0 0 0 0];

internalField   nonuniform List<vector> 
100
(
(3.13109e-05 0 0)
(7.59437e-05 0 0)
(0.000120195 0 0)
(0.000158176 0 0)
(0.000193577 0 0)
(0.000225255 0 0)
(0.000254008 0 0)
(0.000282999 0 0)
(0.000314646 0 0)
(0.000350272 0 0)
(0.000382576 0 0)
(0.000413229 0 0)
(0.00044275 0 0)
(0.000469885 0 0)
(0.000494638 0 0)
(0.000518336 0 0)
(0.000543384 0 0)
(0.000569724 0 0)
(0.00059521 0 0)
(0.000618422 0 0)
(0.000644422 0 0)
(0.000673614 0 0)
(0.000705935 0 0)
(0.000741788 0 0)
(0.000767878 0 0)
(0.000795263 0 0)
(0.000823487 0 0)
(0.000842614 0 0)
(0.000858383 0 0)
(0.000878779 0 0)
(0.000905095 0 0)
(0.000927469 0 0)
(0.000954982 0 0)
(0.000987276 0 0)
(0.00101072 0 0)
(0.00103632 0 0)
(0.00105967 0 0)
(0.0010808 0 0)
(0.00110153 0 0)
(0.00112349 0 0)
(0.00114687 0 0)
(0.00117233 0 0)
(0.00119403 0 0)
(0.00121514 0 0)
(0.00123652 0 0)
(0.00126086 0 0)
(0.00128586 0 0)
(0.00131411 0 0)
(0.00134253 0 0)
(0.00136885 0 0)
(0.00140277 0 0)
(0.00144126 0 0)
(0.00147779 0 0)
(0.00151502 0 0)
(0.00154901 0 0)
(0.00158202 0 0)
(0.00162278 0 0)
(0.00166132 0 0)
(0.00170972 0 0)
(0.00177159 0 0)
(0.00184438 0 0)
(0.0019387 0 0)
(0.00206727 0 0)
(0.00225901 0 0)
(0.00257992 0 0)
(0.00317078 0 0)
(0.00368129 0 0)
(0.00367692 0 0)
(0.00369839 0 0)
(0.00371205 0 0)
(0.00370907 0 0)
(0.0036946 0 0)
(0.0036779 0 0)
(0.0036582 0 0)
(0.00364034 0 0)
(0.0036256 0 0)
(0.00361333 0 0)
(0.00360223 0 0)
(0.00359031 0 0)
(0.00357739 0 0)
(0.00356862 0 0)
(0.00355926 0 0)
(0.00354864 0 0)
(0.00353719 0 0)
(0.00352341 0 0)
(0.00351164 0 0)
(0.0034996 0 0)
(0.00348523 0 0)
(0.00346904 0 0)
(0.00345818 0 0)
(0.00344959 0 0)
(0.00344065 0 0)
(0.00343261 0 0)
(0.0034251 0 0)
(0.00341691 0 0)
(0.00340746 0 0)
(0.00340291 0 0)
(0.00339798 0 0)
(0.0033908 0 0)
(0.00338495 0 0)
)
;

boundaryField
{
    inlet
    {
        type            fixedValue;
        value           uniform (0 0 0);
    }
    outlet
    {
        type            zeroGradient;
    }
    yzfaces
    {
        type            empty;
    }
}


// ************************************************************************* //
