/*--------------------------------*- C++ -*----------------------------------*\
| =========                 |                                                 |
| \\      /  F ield         | foam-extend: Open Source CFD                    |
|  \\    /   O peration     | Version:     5.0                                |
|   \\  /    A nd           | Web:         http://www.foam-extend.org         |
|    \\/     M anipulation  |                                                 |
\*---------------------------------------------------------------------------*/
FoamFile
{
    version     2.0;
    format      ascii;
    class       volScalarField;
    location    "7";
    object      Cl.water;
}
// * * * * * * * * * * * * * * * * * * * * * * * * * * * * * * * * * * * * * //

dimensions      [0 0 0 0 0 0 0];

internalField   nonuniform List<scalar> 
100
(
0.00414062
0.00564233
0.00671461
0.00747703
0.00811538
0.00860142
0.00922
0.00968587
0.0101161
0.0104554
0.01074
0.0110108
0.0112683
0.0114576
0.0116822
0.011895
0.012061
0.0122649
0.012457
0.0126614
0.0129251
0.0130994
0.0132095
0.0133595
0.0134543
0.0135379
0.0136456
0.0137669
0.0138789
0.0139884
0.014097
0.0142032
0.0143015
0.0143687
0.0144537
0.0145613
0.0146725
0.0147983
0.0148943
0.0149911
0.0150981
0.0152026
0.0153096
0.0153807
0.0154652
0.0155413
0.0156104
0.0156822
0.015765
0.0158492
0.015946
0.0160347
0.0161406
0.0162479
0.0163504
0.0164643
0.0165893
0.0167647
0.0169166
0.0171586
0.0174121
0.0178438
0.0185134
0.0198375
0.0207042
0.0211214
0.0212731
0.0213062
0.0213041
0.0212925
0.0212561
0.0212245
0.0211963
0.0211814
0.0211643
0.0211527
0.0211394
0.0211236
0.0211235
0.0211223
0.0211414
0.0211385
0.0211245
0.021125
0.0211121
0.0211104
0.0211189
0.0211201
0.0211162
0.0211226
0.0211274
0.0211457
0.021158
0.0211584
0.0211682
0.0211776
0.0211838
0.0211861
0.0212071
0.0212268
)
;

boundaryField
{
    inlet
    {
        type            fixedValue;
        value           uniform 0;
    }
    outlet
    {
        type            zeroGradient;
    }
    yzfaces
    {
        type            empty;
    }
}


// ************************************************************************* //
