/*--------------------------------*- C++ -*----------------------------------*\
| =========                 |                                                 |
| \\      /  F ield         | foam-extend: Open Source CFD                    |
|  \\    /   O peration     | Version:     5.0                                |
|   \\  /    A nd           | Web:         http://www.foam-extend.org         |
|    \\/     M anipulation  |                                                 |
\*---------------------------------------------------------------------------*/
FoamFile
{
    version     2.0;
    format      ascii;
    class       volScalarField;
    location    "7";
    object      CO2.gas;
}
// * * * * * * * * * * * * * * * * * * * * * * * * * * * * * * * * * * * * * //

dimensions      [0 0 0 0 0 0 0];

internalField   nonuniform List<scalar> 
100
(
0.163473
0.150121
0.140475
0.13345
0.128955
0.124711
0.118877
0.113884
0.111225
0.108598
0.105433
0.102609
0.101026
0.098737
0.096145
0.094443
0.0929322
0.0909336
0.0898583
0.0877895
0.0862271
0.0854306
0.0844428
0.0833077
0.0826555
0.0818996
0.0806971
0.0793185
0.0784019
0.0772698
0.0765917
0.0757368
0.07516
0.074436
0.0734864
0.072711
0.0715369
0.0706925
0.0697543
0.0686368
0.0679446
0.067199
0.0663295
0.0657084
0.0651718
0.0644736
0.0636024
0.0627019
0.0620232
0.0614352
0.0608317
0.059907
0.0591218
0.0582762
0.0574145
0.0563141
0.055162
0.0539086
0.0522752
0.0503893
0.0481287
0.0444627
0.0385713
0.0265526
0.0237983
0.022827
0.0224072
0.0220675
0.0217241
0.0213394
0.0208657
0.0203183
0.0196989
0.0189885
0.0182047
0.0173595
0.0164498
0.0154935
0.0145082
0.0134992
0.0125033
0.0115133
0.0105337
0.00958505
0.00866376
0.00778397
0.00695869
0.00617294
0.00544223
0.00476571
0.00414131
0.00357619
0.00306182
0.00259994
0.00218792
0.00182551
0.00150817
0.00123065
0.000993389
0.000794067
)
;

boundaryField
{
    inlet
    {
        type            fixedValue;
        value           uniform 0.2;
    }
    outlet
    {
        type            zeroGradient;
    }
    yzfaces
    {
        type            empty;
    }
}


// ************************************************************************* //
