/*--------------------------------*- C++ -*----------------------------------*\
| =========                 |                                                 |
| \\      /  F ield         | foam-extend: Open Source CFD                    |
|  \\    /   O peration     | Version:     5.0                                |
|   \\  /    A nd           | Web:         http://www.foam-extend.org         |
|    \\/     M anipulation  |                                                 |
\*---------------------------------------------------------------------------*/
FoamFile
{
    version     2.0;
    format      ascii;
    class       volScalarField;
    location    "7";
    object      H2O.gas;
}
// * * * * * * * * * * * * * * * * * * * * * * * * * * * * * * * * * * * * * //

dimensions      [0 0 0 0 0 0 0];

internalField   nonuniform List<scalar> 
100
(
2.27801e-12
0.000225096
5.15919e-05
9.35845e-05
0.000251627
0.000243346
0.000213991
0.000184925
0.00015064
0.00011538
8.51226e-05
6.386e-05
5.20037e-05
4.68997e-05
4.71517e-05
5.1243e-05
5.7377e-05
6.40783e-05
7.13957e-05
7.75706e-05
8.61456e-05
9.7888e-05
0.000110646
0.000144697
0.000161283
0.000153443
0.000151712
0.00014914
0.000146881
0.000143737
0.000141608
0.000139277
0.000137914
0.000136743
0.000134995
0.000133384
0.000130879
0.000128986
0.000126947
0.000124437
0.00012274
0.000121385
0.000123867
0.000123643
0.000122583
0.000121301
0.000119955
0.000118804
0.000117901
0.000117343
0.000116689
0.000115417
0.000114261
0.000112925
0.000111517
0.000109622
0.000107406
0.000105072
0.000101945
9.82951e-05
9.39121e-05
8.67587e-05
7.5263e-05
5.18113e-05
0.00036161
0.000765645
0.00122519
0.00173835
0.0023106
0.00294685
0.00364363
0.00440447
0.00522637
0.00610292
0.00702875
0.00799832
0.00899308
0.0100095
0.0110368
0.0120597
0.0130932
0.0141019
0.0150761
0.0160316
0.0169378
0.0177959
0.0186243
0.0193887
0.020091
0.0207398
0.0213281
0.0218628
0.0223306
0.0227182
0.0230555
0.0233285
0.0235302
0.0236571
0.0237314
0.0237228
)
;

boundaryField
{
    inlet
    {
        type            fixedValue;
        value           uniform 0;
    }
    outlet
    {
        type            zeroGradient;
    }
    yzfaces
    {
        type            empty;
    }
}


// ************************************************************************* //
