/*--------------------------------*- C++ -*----------------------------------*\
| =========                 |                                                 |
| \\      /  F ield         | foam-extend: Open Source CFD                    |
|  \\    /   O peration     | Version:     5.0                                |
|   \\  /    A nd           | Web:         http://www.foam-extend.org         |
|    \\/     M anipulation  |                                                 |
\*---------------------------------------------------------------------------*/
FoamFile
{
    version     2.0;
    format      ascii;
    class       volScalarField;
    location    "7";
    object      Na.water;
}
// * * * * * * * * * * * * * * * * * * * * * * * * * * * * * * * * * * * * * //

dimensions      [0 0 0 0 0 0 0];

internalField   nonuniform List<scalar> 
100
(
0.00414123
0.00564294
0.00671373
0.00748133
0.00812289
0.00860599
0.00922534
0.00968743
0.0101125
0.0104511
0.0107366
0.0109984
0.0112536
0.0114579
0.0116888
0.0119015
0.012073
0.0122681
0.0124634
0.0126688
0.0129272
0.0131045
0.0132167
0.0133611
0.0134476
0.0135256
0.0136417
0.0137624
0.0138744
0.0139878
0.0140918
0.0142034
0.0143026
0.0143689
0.014451
0.0145537
0.0146601
0.014793
0.0148905
0.0149887
0.0151043
0.0152052
0.0153071
0.0153794
0.0154636
0.015541
0.0156132
0.0156935
0.0157802
0.0158637
0.0159478
0.0160275
0.0161336
0.0162351
0.0163369
0.0164562
0.0165789
0.0167586
0.0169142
0.0171609
0.0174192
0.0178453
0.01851
0.0198302
0.0206962
0.0211128
0.0212623
0.0212981
0.0212893
0.0212787
0.0212406
0.0212137
0.0211907
0.0211746
0.0211654
0.0211628
0.021145
0.0211371
0.0211361
0.0211319
0.0211511
0.0211489
0.0211293
0.0211267
0.0211177
0.0211187
0.0211364
0.0211372
0.0211339
0.02114
0.0211442
0.0211631
0.0211747
0.0211756
0.021186
0.0212009
0.021211
0.0212175
0.0212381
0.0212551
)
;

boundaryField
{
    inlet
    {
        type            fixedValue;
        value           uniform 0;
    }
    outlet
    {
        type            zeroGradient;
    }
    yzfaces
    {
        type            empty;
    }
}


// ************************************************************************* //
