/*--------------------------------*- C++ -*----------------------------------*\
| =========                 |                                                 |
| \\      /  F ield         | foam-extend: Open Source CFD                    |
|  \\    /   O peration     | Version:     5.0                                |
|   \\  /    A nd           | Web:         http://www.foam-extend.org         |
|    \\/     M anipulation  |                                                 |
\*---------------------------------------------------------------------------*/
FoamFile
{
    version     2.0;
    format      ascii;
    class       volScalarField;
    location    "7";
    object      Ns;
}
// * * * * * * * * * * * * * * * * * * * * * * * * * * * * * * * * * * * * * //

dimensions      [0 -3 0 0 1 0 0];

internalField   nonuniform List<scalar> 
100
(
0.739207
0.0956236
0.386413
1.56602
2.9198
6.66827
0.219684
0.703417
0.180875
0.663283
0.339323
0.390989
0.407106
0.553173
0.975576
0.467981
0.340787
0.521315
0.927578
0.785853
0.529943
0.149837
0.543406
0.0289784
1.95194
0.261002
0.130864
0.508975
0.14085
0.440252
0.42403
0.296423
0.0823887
0.391767
0.240091
0.102801
0.113579
1.35114
0.0412984
0.281826
0.462121
0.65122
0.436667
0.0751517
0.20086
0.342269
0.310197
0.0237061
1.14234
0.989807
0.388809
0.196882
0.465754
0.160719
0.206463
0.486147
0.888669
0.169703
1.64692
0.375508
4.64077
0.687637
3.27881
14.476
2
2
2
2
2
2
2
2
2
2
2
2
2
2
2
2
2
2
2
2
2
2
2
2
2
2
2
2
2
2
2
2
2
2
2
2
)
;

boundaryField
{
    inlet
    {
        type            fixedValue;
        value           uniform 0;
    }
    outlet
    {
        type            zeroGradient;
    }
    yzfaces
    {
        type            empty;
    }
}


// ************************************************************************* //
