/*--------------------------------*- C++ -*----------------------------------*\
| =========                 |                                                 |
| \\      /  F ield         | foam-extend: Open Source CFD                    |
|  \\    /   O peration     | Version:     5.0                                |
|   \\  /    A nd           | Web:         http://www.foam-extend.org         |
|    \\/     M anipulation  |                                                 |
\*---------------------------------------------------------------------------*/
FoamFile
{
    version     2.0;
    format      ascii;
    class       surfaceScalarField;
    location    "7";
    object      phi;
}
// * * * * * * * * * * * * * * * * * * * * * * * * * * * * * * * * * * * * * //

dimensions      [0 3 -1 0 0 0 0];

internalField   nonuniform List<scalar> 
99
(
1.21941e-06
1.22982e-06
1.23433e-06
1.23411e-06
1.23533e-06
1.22666e-06
1.21849e-06
1.21806e-06
1.2153e-06
1.2194e-06
1.22148e-06
1.21927e-06
1.21622e-06
1.21217e-06
1.21539e-06
1.21847e-06
1.22299e-06
1.23385e-06
1.23521e-06
1.23278e-06
1.24296e-06
1.24446e-06
1.24501e-06
1.25124e-06
1.24652e-06
1.24245e-06
1.24049e-06
1.24389e-06
1.24019e-06
1.24651e-06
1.24574e-06
1.24734e-06
1.25059e-06
1.25037e-06
1.24706e-06
1.244e-06
1.24443e-06
1.24089e-06
1.24078e-06
1.24398e-06
1.24404e-06
1.24496e-06
1.247e-06
1.24528e-06
1.24274e-06
1.24258e-06
1.24018e-06
1.24357e-06
1.24431e-06
1.24316e-06
1.24249e-06
1.23972e-06
1.24013e-06
1.24058e-06
1.23714e-06
1.24114e-06
1.24358e-06
1.24221e-06
1.246e-06
1.24546e-06
1.24269e-06
1.24483e-06
1.24354e-06
1.23999e-06
1.24172e-06
1.24571e-06
1.24682e-06
1.24883e-06
1.24873e-06
1.24824e-06
1.24752e-06
1.24876e-06
1.24816e-06
1.24871e-06
1.25003e-06
1.25052e-06
1.24943e-06
1.24975e-06
1.25005e-06
1.25027e-06
1.25146e-06
1.25031e-06
1.25129e-06
1.25049e-06
1.25002e-06
1.25069e-06
1.25093e-06
1.25054e-06
1.24876e-06
1.25015e-06
1.25014e-06
1.24964e-06
1.249e-06
1.24806e-06
1.24968e-06
1.24959e-06
1.24856e-06
1.24943e-06
1.24887e-06
)
;

boundaryField
{
    inlet
    {
        type            calculated;
        value           uniform -1.225e-06;
    }
    outlet
    {
        type            calculated;
        value           uniform 1.249e-06;
    }
    yzfaces
    {
        type            empty;
    }
}


// ************************************************************************* //
