/*--------------------------------*- C++ -*----------------------------------*\
| =========                 |                                                 |
| \\      /  F ield         | foam-extend: Open Source CFD                    |
|  \\    /   O peration     | Version:     5.0                                |
|   \\  /    A nd           | Web:         http://www.foam-extend.org         |
|    \\/     M anipulation  |                                                 |
\*---------------------------------------------------------------------------*/
FoamFile
{
    version     2.0;
    format      ascii;
    class       volVectorField;
    location    "7";
    object      U.water;
}
// * * * * * * * * * * * * * * * * * * * * * * * * * * * * * * * * * * * * * //

dimensions      [0 1 -1 0 0 0 0];

internalField   nonuniform List<vector> 
100
(
(3.79976e-05 0 0)
(8.93691e-05 0 0)
(0.000134799 0 0)
(0.000177263 0 0)
(0.000214335 0 0)
(0.000246548 0 0)
(0.000281129 0 0)
(0.000323279 0 0)
(0.000362224 0 0)
(0.000395787 0 0)
(0.00042955 0 0)
(0.000463924 0 0)
(0.000494681 0 0)
(0.000521145 0 0)
(0.000552616 0 0)
(0.000588417 0 0)
(0.000618771 0 0)
(0.000651611 0 0)
(0.00068686 0 0)
(0.00071769 0 0)
(0.000760444 0 0)
(0.000799474 0 0)
(0.000824477 0 0)
(0.000851564 0 0)
(0.000876898 0 0)
(0.000891948 0 0)
(0.000912655 0 0)
(0.000944197 0 0)
(0.000974712 0 0)
(0.00100421 0 0)
(0.00103448 0 0)
(0.00105932 0 0)
(0.0010874 0 0)
(0.00111038 0 0)
(0.00113257 0 0)
(0.00115806 0 0)
(0.00118822 0 0)
(0.00122319 0 0)
(0.00125507 0 0)
(0.00129183 0 0)
(0.00132946 0 0)
(0.00136135 0 0)
(0.00139609 0 0)
(0.00142877 0 0)
(0.00145202 0 0)
(0.00147695 0 0)
(0.00150705 0 0)
(0.00154307 0 0)
(0.00158146 0 0)
(0.00161316 0 0)
(0.00164321 0 0)
(0.00167681 0 0)
(0.00171737 0 0)
(0.00176135 0 0)
(0.00180395 0 0)
(0.00185502 0 0)
(0.00192047 0 0)
(0.00199094 0 0)
(0.00207767 0 0)
(0.00218544 0 0)
(0.00231635 0 0)
(0.0025076 0 0)
(0.00284354 0 0)
(0.00350164 0 0)
(0.00417642 0 0)
(0.00434519 0 0)
(0.0043832 0 0)
(0.00438337 0 0)
(0.00437254 0 0)
(0.00435388 0 0)
(0.00433301 0 0)
(0.00431589 0 0)
(0.00430063 0 0)
(0.004286 0 0)
(0.00427754 0 0)
(0.00427059 0 0)
(0.00426098 0 0)
(0.00425292 0 0)
(0.00424969 0 0)
(0.00424798 0 0)
(0.00424846 0 0)
(0.00424687 0 0)
(0.00424528 0 0)
(0.00424489 0 0)
(0.00424238 0 0)
(0.00424322 0 0)
(0.00424608 0 0)
(0.00424704 0 0)
(0.00424498 0 0)
(0.0042463 0 0)
(0.00425101 0 0)
(0.00425302 0 0)
(0.00425501 0 0)
(0.00425691 0 0)
(0.00426354 0 0)
(0.0042728 0 0)
(0.00427866 0 0)
(0.00428771 0 0)
(0.00429991 0 0)
(0.00431391 0 0)
)
;

boundaryField
{
    inlet
    {
        type            fixedValue;
        value           uniform (0 0 0);
    }
    outlet
    {
        type            zeroGradient;
    }
    yzfaces
    {
        type            empty;
    }
}


// ************************************************************************* //
