/*--------------------------------*- C++ -*----------------------------------*\
| =========                 |                                                 |
| \\      /  F ield         | foam-extend: Open Source CFD                    |
|  \\    /   O peration     | Version:     5.0                                |
|   \\  /    A nd           | Web:         http://www.foam-extend.org         |
|    \\/     M anipulation  |                                                 |
\*---------------------------------------------------------------------------*/
FoamFile
{
    version     2.0;
    format      ascii;
    class       volScalarField;
    location    "2";
    object      alpha.gas;
}
// * * * * * * * * * * * * * * * * * * * * * * * * * * * * * * * * * * * * * //

dimensions      [0 0 0 0 0 0 0];

internalField   nonuniform List<scalar> 
100
(
0.131804
0.113269
0.103829
0.0955386
0.0889801
0.0842301
0.080049
0.0759593
0.0725598
0.0691406
0.0661554
0.0634163
0.0603313
0.0573102
0.0538987
0.0498263
0.044206
0.0351892
0.0163908
0.0210088
0.0232014
0.024549
0.0254735
0.0261031
0.0264884
0.0266559
0.0266361
0.0264198
0.026004
0.0253977
0.024585
0.0235606
0.0223206
0.0208767
0.0192513
0.0175187
0.0157816
0.0141866
0.0128504
0.0118297
0.0111177
0.0106613
0.0103823
0.0102155
0.0101196
0.0100662
0.0100353
0.0100199
0.0100111
0.010006
0.0100038
0.0099989
0.00999858
0.00999729
0.00999617
0.0099968
0.00999677
0.00999663
0.00999628
0.0099952
0.00999826
0.00999899
0.00999845
0.0099983
0.00999996
0.00999965
0.00999905
0.0100005
0.0100024
0.010003
0.0100044
0.0100045
0.0100041
0.0100038
0.0100035
0.0100041
0.0100031
0.0100022
0.0100004
0.0100017
0.0100023
0.0100011
0.0100008
0.00999987
0.0100017
0.0100019
0.0100022
0.00999953
0.01
0.00999926
0.00999894
0.00999847
0.00999929
0.0100001
0.0099993
0.00999883
0.00999991
0.00999951
0.0100006
0.0100009
)
;

boundaryField
{
    inlet
    {
        type            fixedValue;
        value           uniform 0.2;
    }
    outlet
    {
        type            zeroGradient;
    }
    yzfaces
    {
        type            empty;
    }
}


// ************************************************************************* //
