/*--------------------------------*- C++ -*----------------------------------*\
| =========                 |                                                 |
| \\      /  F ield         | foam-extend: Open Source CFD                    |
|  \\    /   O peration     | Version:     5.0                                |
|   \\  /    A nd           | Web:         http://www.foam-extend.org         |
|    \\/     M anipulation  |                                                 |
\*---------------------------------------------------------------------------*/
FoamFile
{
    version     2.0;
    format      ascii;
    class       volScalarField;
    location    "2";
    object      Cl.water;
}
// * * * * * * * * * * * * * * * * * * * * * * * * * * * * * * * * * * * * * //

dimensions      [0 0 0 0 0 0 0];

internalField   nonuniform List<scalar> 
100
(
0.0138417
0.0175604
0.0197272
0.0213385
0.0226991
0.0236744
0.0245716
0.025397
0.0260631
0.0267918
0.0274121
0.0280245
0.028563
0.0292103
0.0298907
0.0307307
0.0318973
0.0337227
0.0375805
0.0373382
0.037089
0.0369
0.0367342
0.0366475
0.0365471
0.0365196
0.0365232
0.0365586
0.0366122
0.0367504
0.0369141
0.0371165
0.0373858
0.0377065
0.0380332
0.0383936
0.0387795
0.0391457
0.0394332
0.0396496
0.0398027
0.0398827
0.0399416
0.039953
0.0399568
0.0399715
0.0400037
0.0399613
0.0400101
0.0400134
0.0400068
0.040022
0.0399892
0.0400135
0.0399998
0.0400048
0.0400141
0.0400076
0.0399906
0.0400141
0.0399663
0.0399851
0.0399812
0.0400106
0.0399895
0.0399993
0.0399892
0.0400065
0.0399952
0.0400147
0.0400269
0.0400671
0.0400278
0.0400471
0.0400443
0.0400072
0.0399831
0.0399923
0.0399975
0.0399921
0.0399769
0.0399781
0.0399935
0.0399858
0.0399877
0.0399847
0.0399873
0.0400023
0.0400029
0.0400222
0.0400207
0.0399748
0.0399962
0.0400093
0.0400009
0.0400305
0.0400007
0.0399785
0.0399759
0.0399786
)
;

boundaryField
{
    inlet
    {
        type            fixedValue;
        value           uniform 0;
    }
    outlet
    {
        type            zeroGradient;
    }
    yzfaces
    {
        type            empty;
    }
}


// ************************************************************************* //
