/*--------------------------------*- C++ -*----------------------------------*\
| =========                 |                                                 |
| \\      /  F ield         | foam-extend: Open Source CFD                    |
|  \\    /   O peration     | Version:     5.0                                |
|   \\  /    A nd           | Web:         http://www.foam-extend.org         |
|    \\/     M anipulation  |                                                 |
\*---------------------------------------------------------------------------*/
FoamFile
{
    version     2.0;
    format      ascii;
    class       volScalarField;
    location    "2";
    object      H2O.gas;
}
// * * * * * * * * * * * * * * * * * * * * * * * * * * * * * * * * * * * * * //

dimensions      [0 0 0 0 0 0 0];

internalField   nonuniform List<scalar> 
100
(
0.000256684
0.000220588
0.000202205
0.000186059
0.000173286
0.000164036
0.000155893
0.000147929
0.000141308
0.000134649
0.000128836
0.000123501
0.000117493
0.00011161
0.000104966
9.70352e-05
8.60899e-05
6.853e-05
3.19205e-05
0.00163979
0.0030726
0.00461216
0.00628069
0.00806875
0.00991824
0.0117864
0.0136071
0.015297
0.0167687
0.0179842
0.0188385
0.0192835
0.0193015
0.0188713
0.0179982
0.0168002
0.0154135
0.0140286
0.0127898
0.0118118
0.0111164
0.0106622
0.0103845
0.0102158
0.0101178
0.0100654
0.010042
0.010014
0.0100164
0.0100116
0.0100076
0.0100052
0.00999891
0.0100042
0.0100004
0.00999981
0.0100018
0.0100004
0.00999598
0.00999961
0.00999055
0.00999607
0.00999473
0.0100025
0.00999915
0.010003
0.00999789
0.0100007
0.00999895
0.0100038
0.0100068
0.0100174
0.010009
0.0100136
0.0100135
0.0100067
0.0100015
0.0100022
0.0100003
0.0100006
0.00999675
0.00999424
0.00999819
0.00999632
0.00999743
0.00999905
0.00999896
0.00999967
0.00999992
0.0100044
0.0100028
0.00999316
0.00999818
0.0100021
0.0100007
0.0100044
0.00999374
0.00998766
0.0099896
0.00999052
)
;

boundaryField
{
    inlet
    {
        type            fixedValue;
        value           uniform 0;
    }
    outlet
    {
        type            zeroGradient;
    }
    yzfaces
    {
        type            empty;
    }
}


// ************************************************************************* //
