/*--------------------------------*- C++ -*----------------------------------*\
| =========                 |                                                 |
| \\      /  F ield         | foam-extend: Open Source CFD                    |
|  \\    /   O peration     | Version:     5.0                                |
|   \\  /    A nd           | Web:         http://www.foam-extend.org         |
|    \\/     M anipulation  |                                                 |
\*---------------------------------------------------------------------------*/
FoamFile
{
    version     2.0;
    format      ascii;
    class       volScalarField;
    location    "2";
    object      Na.water;
}
// * * * * * * * * * * * * * * * * * * * * * * * * * * * * * * * * * * * * * //

dimensions      [0 0 0 0 0 0 0];

internalField   nonuniform List<scalar> 
100
(
0.0138429
0.0175655
0.0197428
0.0213474
0.022715
0.023681
0.0245902
0.0254154
0.0260821
0.0268128
0.0274335
0.0280386
0.0286018
0.0292391
0.0299023
0.030747
0.0318989
0.0337272
0.0375906
0.0373529
0.0370997
0.0368984
0.0367378
0.0366449
0.0365516
0.0365167
0.0365253
0.0365607
0.0366238
0.036756
0.0369199
0.0371337
0.0374047
0.0377206
0.0380384
0.0383877
0.0387647
0.0391358
0.0394307
0.0396415
0.0397975
0.0398776
0.0399341
0.0399624
0.0399717
0.0399834
0.0400181
0.0399677
0.0400072
0.0399985
0.0400016
0.0400084
0.0399886
0.040024
0.0400151
0.0400067
0.0400101
0.0400063
0.0399911
0.0400105
0.0399702
0.0399799
0.0399814
0.0400092
0.0399878
0.0399918
0.0399715
0.0399762
0.0399645
0.0399855
0.0399945
0.040046
0.0400341
0.0400552
0.0400607
0.0400317
0.0400148
0.040012
0.0400103
0.040009
0.0399918
0.0399917
0.0399911
0.0399681
0.0399617
0.0399685
0.0399701
0.0399872
0.0399866
0.04001
0.0400042
0.0399656
0.0399992
0.0400194
0.0400188
0.0400251
0.0399812
0.0399581
0.0399558
0.0399627
)
;

boundaryField
{
    inlet
    {
        type            fixedValue;
        value           uniform 0;
    }
    outlet
    {
        type            zeroGradient;
    }
    yzfaces
    {
        type            empty;
    }
}


// ************************************************************************* //
