/*--------------------------------*- C++ -*----------------------------------*\
| =========                 |                                                 |
| \\      /  F ield         | foam-extend: Open Source CFD                    |
|  \\    /   O peration     | Version:     5.0                                |
|   \\  /    A nd           | Web:         http://www.foam-extend.org         |
|    \\/     M anipulation  |                                                 |
\*---------------------------------------------------------------------------*/
FoamFile
{
    version     2.0;
    format      ascii;
    class       surfaceScalarField;
    location    "2";
    object      phi;
}
// * * * * * * * * * * * * * * * * * * * * * * * * * * * * * * * * * * * * * //

dimensions      [0 3 -1 0 0 0 0];

internalField   nonuniform List<scalar> 
99
(
1.22824e-06
1.22895e-06
1.22837e-06
1.23448e-06
1.23736e-06
1.23263e-06
1.23349e-06
1.23684e-06
1.23457e-06
1.23498e-06
1.23387e-06
1.23344e-06
1.23215e-06
1.23603e-06
1.23545e-06
1.23269e-06
1.23464e-06
1.2343e-06
1.23519e-06
1.23447e-06
1.23473e-06
1.23295e-06
1.23226e-06
1.23145e-06
1.23095e-06
1.23131e-06
1.23043e-06
1.23078e-06
1.23114e-06
1.23234e-06
1.23293e-06
1.23392e-06
1.23442e-06
1.23273e-06
1.2324e-06
1.23206e-06
1.2327e-06
1.23191e-06
1.23223e-06
1.23224e-06
1.23227e-06
1.23357e-06
1.23474e-06
1.23508e-06
1.23636e-06
1.23656e-06
1.23425e-06
1.23501e-06
1.23418e-06
1.23287e-06
1.23283e-06
1.23281e-06
1.23325e-06
1.23219e-06
1.23317e-06
1.23468e-06
1.2345e-06
1.23392e-06
1.23376e-06
1.23332e-06
1.2342e-06
1.23521e-06
1.2351e-06
1.23609e-06
1.23629e-06
1.23763e-06
1.23857e-06
1.23849e-06
1.23931e-06
1.24129e-06
1.24127e-06
1.24069e-06
1.24058e-06
1.24156e-06
1.24223e-06
1.24118e-06
1.24107e-06
1.2421e-06
1.24282e-06
1.24172e-06
1.24062e-06
1.23995e-06
1.23798e-06
1.23776e-06
1.2376e-06
1.23833e-06
1.23743e-06
1.23851e-06
1.23779e-06
1.23693e-06
1.23653e-06
1.23626e-06
1.23626e-06
1.23577e-06
1.23516e-06
1.23435e-06
1.23259e-06
1.23319e-06
1.23469e-06
)
;

boundaryField
{
    inlet
    {
        type            calculated;
        value           uniform -1.225e-06;
    }
    outlet
    {
        type            calculated;
        value           uniform 1.2334e-06;
    }
    yzfaces
    {
        type            empty;
    }
}


// ************************************************************************* //
