/*--------------------------------*- C++ -*----------------------------------*\
| =========                 |                                                 |
| \\      /  F ield         | foam-extend: Open Source CFD                    |
|  \\    /   O peration     | Version:     5.0                                |
|   \\  /    A nd           | Web:         http://www.foam-extend.org         |
|    \\/     M anipulation  |                                                 |
\*---------------------------------------------------------------------------*/
FoamFile
{
    version     2.0;
    format      ascii;
    class       surfaceScalarField;
    location    "2";
    object      phi.water;
}
// * * * * * * * * * * * * * * * * * * * * * * * * * * * * * * * * * * * * * //

dimensions      [0 3 -1 0 0 0 0];

internalField   nonuniform List<scalar> 
99
(
2.36354e-07
4.28122e-07
5.68934e-07
7.25744e-07
8.8195e-07
1.01253e-06
1.13905e-06
1.2874e-06
1.42367e-06
1.57444e-06
1.71631e-06
1.85468e-06
2.03494e-06
2.21981e-06
2.4487e-06
2.74082e-06
3.17793e-06
3.92167e-06
5.96742e-06
5.58437e-06
5.3793e-06
5.23897e-06
5.1407e-06
5.07231e-06
5.03149e-06
5.0135e-06
5.0088e-06
5.03084e-06
5.07091e-06
5.13143e-06
5.20965e-06
5.3065e-06
5.41601e-06
5.53111e-06
5.66117e-06
5.78614e-06
5.90073e-06
5.98849e-06
6.06006e-06
6.10748e-06
6.13885e-06
6.16441e-06
6.18182e-06
6.19085e-06
6.20114e-06
6.20144e-06
6.19254e-06
6.19738e-06
6.19001e-06
6.18402e-06
6.18363e-06
6.18483e-06
6.18686e-06
6.18028e-06
6.1865e-06
6.19379e-06
6.19276e-06
6.19143e-06
6.19034e-06
6.19056e-06
6.19718e-06
6.20097e-06
6.19823e-06
6.20224e-06
6.20347e-06
6.21037e-06
6.21612e-06
6.21642e-06
6.22019e-06
6.22836e-06
6.22447e-06
6.2207e-06
6.22107e-06
6.22445e-06
6.22999e-06
6.22848e-06
6.22871e-06
6.23344e-06
6.23738e-06
6.23356e-06
6.22977e-06
6.22555e-06
6.21467e-06
6.21416e-06
6.21306e-06
6.2164e-06
6.21083e-06
6.21553e-06
6.21026e-06
6.20476e-06
6.20605e-06
6.20624e-06
6.20397e-06
6.20068e-06
6.1965e-06
6.19485e-06
6.19131e-06
6.19592e-06
6.20286e-06
)
;

boundaryField
{
    inlet
    {
        type            fixedValue;
        value           uniform 0;
    }
    outlet
    {
        type            calculated;
        value           uniform 6.19622e-06;
    }
    yzfaces
    {
        type            empty;
    }
}


// ************************************************************************* //
