/*--------------------------------*- C++ -*----------------------------------*\
| =========                 |                                                 |
| \\      /  F ield         | foam-extend: Open Source CFD                    |
|  \\    /   O peration     | Version:     5.0                                |
|   \\  /    A nd           | Web:         http://www.foam-extend.org         |
|    \\/     M anipulation  |                                                 |
\*---------------------------------------------------------------------------*/
FoamFile
{
    version     2.0;
    format      ascii;
    class       volScalarField;
    location    "2";
    object      S.gas;
}
// * * * * * * * * * * * * * * * * * * * * * * * * * * * * * * * * * * * * * //

dimensions      [0 0 0 0 0 0 0];

internalField   nonuniform List<scalar> 
100
(
0.660135
0.568158
0.519334
0.478464
0.44586
0.421481
0.401057
0.380707
0.363036
0.346138
0.331337
0.317672
0.302047
0.287294
0.269938
0.249339
0.221569
0.176448
0.0823932
0.105044
0.116007
0.122745
0.127367
0.130515
0.132442
0.13328
0.13318
0.132099
0.13002
0.126989
0.122925
0.117803
0.111603
0.104384
0.0962565
0.0875937
0.0789082
0.0709332
0.0642522
0.0591487
0.0555887
0.0533066
0.0519117
0.0510776
0.0505979
0.050331
0.0501764
0.0500996
0.0500555
0.0500302
0.0500192
0.0499945
0.0499929
0.0499864
0.0499808
0.049984
0.0499838
0.0499831
0.0499814
0.049976
0.0499913
0.0499949
0.0499922
0.0499915
0.0499998
0.0499982
0.0499953
0.0500023
0.050012
0.0500152
0.0500222
0.0500227
0.0500204
0.0500191
0.0500175
0.0500204
0.0500156
0.050011
0.0500019
0.0500083
0.0500114
0.0500053
0.0500039
0.0499994
0.0500084
0.0500094
0.050011
0.0499976
0.0500001
0.0499963
0.0499947
0.0499923
0.0499965
0.0500006
0.0499965
0.0499941
0.0499995
0.0499976
0.0500028
0.0500045
)
;

boundaryField
{
    inlet
    {
        type            calculated;
        value           uniform 1;
    }
    outlet
    {
        type            calculated;
        value           uniform 0.0500045;
    }
    yzfaces
    {
        type            empty;
    }
}


// ************************************************************************* //
