/*--------------------------------*- C++ -*----------------------------------*\
| =========                 |                                                 |
| \\      /  F ield         | foam-extend: Open Source CFD                    |
|  \\    /   O peration     | Version:     5.0                                |
|   \\  /    A nd           | Web:         http://www.foam-extend.org         |
|    \\/     M anipulation  |                                                 |
\*---------------------------------------------------------------------------*/
FoamFile
{
    version     2.0;
    format      ascii;
    class       volVectorField;
    location    "2";
    object      U.gas;
}
// * * * * * * * * * * * * * * * * * * * * * * * * * * * * * * * * * * * * * //

dimensions      [0 1 -1 0 0 0 0];

internalField   nonuniform List<vector> 
100
(
(0.00752793 0 0)
(0.00862055 0 0)
(0.00927896 0 0)
(0.00992886 0 0)
(0.0104999 0 0)
(0.0108989 0 0)
(0.0112368 0 0)
(0.0116321 0 0)
(0.0119507 0 0)
(0.0122489 0 0)
(0.012496 0 0)
(0.0127168 0 0)
(0.0129902 0 0)
(0.0132195 0 0)
(0.0135224 0 0)
(0.0138022 0 0)
(0.0141769 0 0)
(0.0147724 0 0)
(0.0174612 0 0)
(0.00766026 0 0)
(0.00929184 0 0)
(0.0100299 0 0)
(0.0104479 0 0)
(0.0107231 0 0)
(0.0109045 0 0)
(0.0110214 0 0)
(0.0110785 0 0)
(0.0110871 0 0)
(0.0110492 0 0)
(0.0109577 0 0)
(0.0108105 0 0)
(0.0105945 0 0)
(0.0102976 0 0)
(0.00989686 0 0)
(0.00939101 0 0)
(0.00878392 0 0)
(0.00809258 0 0)
(0.00735272 0 0)
(0.00663744 0 0)
(0.00602136 0 0)
(0.00554194 0 0)
(0.00520764 0 0)
(0.00499547 0 0)
(0.00486634 0 0)
(0.00479179 0 0)
(0.00474875 0 0)
(0.00471963 0 0)
(0.00470233 0 0)
(0.00469429 0 0)
(0.00468616 0 0)
(0.00468193 0 0)
(0.00468056 0 0)
(0.00467839 0 0)
(0.0046774 0 0)
(0.00467709 0 0)
(0.00468128 0 0)
(0.00468361 0 0)
(0.00468168 0 0)
(0.00468106 0 0)
(0.00468022 0 0)
(0.00467974 0 0)
(0.00468445 0 0)
(0.00468701 0 0)
(0.00468907 0 0)
(0.00469127 0 0)
(0.00469431 0 0)
(0.00469805 0 0)
(0.00469903 0 0)
(0.00470142 0 0)
(0.0047078 0 0)
(0.00471135 0 0)
(0.00471126 0 0)
(0.00471079 0 0)
(0.00471257 0 0)
(0.00471597 0 0)
(0.00471425 0 0)
(0.00471168 0 0)
(0.00471296 0 0)
(0.00471628 0 0)
(0.0047152 0 0)
(0.00471097 0 0)
(0.00470786 0 0)
(0.00470208 0 0)
(0.00469755 0 0)
(0.00469647 0 0)
(0.00469839 0 0)
(0.00469875 0 0)
(0.00469886 0 0)
(0.00469788 0 0)
(0.00469528 0 0)
(0.00469195 0 0)
(0.0046906 0 0)
(0.00469023 0 0)
(0.00468961 0 0)
(0.00468806 0 0)
(0.00468512 0 0)
(0.00468002 0 0)
(0.0046782 0 0)
(0.00468229 0 0)
(0.00468353 0 0)
)
;

boundaryField
{
    inlet
    {
        type            fixedValue;
        value           uniform (0.005 0 0);
    }
    outlet
    {
        type            zeroGradient;
    }
    yzfaces
    {
        type            empty;
    }
}


// ************************************************************************* //
