/*--------------------------------*- C++ -*----------------------------------*\
| =========                 |                                                 |
| \\      /  F ield         | foam-extend: Open Source CFD                    |
|  \\    /   O peration     | Version:     5.0                                |
|   \\  /    A nd           | Web:         http://www.foam-extend.org         |
|    \\/     M anipulation  |                                                 |
\*---------------------------------------------------------------------------*/
FoamFile
{
    version     2.0;
    format      ascii;
    class       volVectorField;
    location    "2";
    object      U.water;
}
// * * * * * * * * * * * * * * * * * * * * * * * * * * * * * * * * * * * * * //

dimensions      [0 1 -1 0 0 0 0];

internalField   nonuniform List<vector> 
100
(
(0.000109364 0 0)
(0.000270587 0 0)
(0.000407884 0 0)
(0.000528466 0 0)
(0.000655204 0 0)
(0.000772882 0 0)
(0.000878753 0 0)
(0.000989933 0 0)
(0.00110708 0 0)
(0.00122362 0 0)
(0.00134306 0 0)
(0.00145905 0 0)
(0.00158773 0 0)
(0.00173873 0 0)
(0.00190893 0 0)
(0.00212558 0 0)
(0.00243337 0 0)
(0.00295319 0 0)
(0.00392443 0 0)
(0.00473257 0 0)
(0.00448109 0 0)
(0.00433736 0 0)
(0.00424042 0 0)
(0.00417312 0 0)
(0.00412778 0 0)
(0.00410293 0 0)
(0.00409373 0 0)
(0.00409987 0 0)
(0.00412391 0 0)
(0.00416491 0 0)
(0.00422118 0 0)
(0.00429194 0 0)
(0.00437664 0 0)
(0.00446836 0 0)
(0.00456648 0 0)
(0.00466906 0 0)
(0.00476776 0 0)
(0.00485246 0 0)
(0.0049184 0 0)
(0.00496717 0 0)
(0.00499945 0 0)
(0.00502246 0 0)
(0.00503967 0 0)
(0.00504984 0 0)
(0.0050572 0 0)
(0.00506257 0 0)
(0.00505952 0 0)
(0.00505708 0 0)
(0.00505735 0 0)
(0.00505316 0 0)
(0.00505048 0 0)
(0.00505042 0 0)
(0.00505143 0 0)
(0.00505014 0 0)
(0.00504998 0 0)
(0.00505512 0 0)
(0.00505786 0 0)
(0.00505632 0 0)
(0.00505474 0 0)
(0.0050535 0 0)
(0.00505447 0 0)
(0.00505829 0 0)
(0.00506011 0 0)
(0.00506188 0 0)
(0.00506431 0 0)
(0.00506748 0 0)
(0.00507218 0 0)
(0.00507397 0 0)
(0.00507543 0 0)
(0.00508111 0 0)
(0.00508513 0 0)
(0.00508386 0 0)
(0.00508239 0 0)
(0.00508417 0 0)
(0.00508754 0 0)
(0.00508682 0 0)
(0.00508447 0 0)
(0.00508637 0 0)
(0.00508996 0 0)
(0.00508921 0 0)
(0.00508468 0 0)
(0.00508104 0 0)
(0.00507567 0 0)
(0.0050712 0 0)
(0.00507045 0 0)
(0.00507158 0 0)
(0.0050712 0 0)
(0.00507158 0 0)
(0.00507241 0 0)
(0.00506914 0 0)
(0.00506661 0 0)
(0.00506524 0 0)
(0.00506469 0 0)
(0.00506366 0 0)
(0.00506136 0 0)
(0.00505847 0 0)
(0.00505323 0 0)
(0.00505084 0 0)
(0.00505515 0 0)
(0.00505553 0 0)
)
;

boundaryField
{
    inlet
    {
        type            fixedValue;
        value           uniform (0 0 0);
    }
    outlet
    {
        type            zeroGradient;
    }
    yzfaces
    {
        type            empty;
    }
}


// ************************************************************************* //
