/*--------------------------------*- C++ -*----------------------------------*\
| =========                 |                                                 |
| \\      /  F ield         | foam-extend: Open Source CFD                    |
|  \\    /   O peration     | Version:     5.0                                |
|   \\  /    A nd           | Web:         http://www.foam-extend.org         |
|    \\/     M anipulation  |                                                 |
\*---------------------------------------------------------------------------*/
FoamFile
{
    version     2.0;
    format      ascii;
    class       volScalarField;
    location    "6";
    object      alpha.gas;
}
// * * * * * * * * * * * * * * * * * * * * * * * * * * * * * * * * * * * * * //

dimensions      [0 0 0 0 0 0 0];

internalField   nonuniform List<scalar> 
100
(
0.160379
0.14808
0.138763
0.131658
0.125786
0.120669
0.116673
0.112391
0.108662
0.105441
0.102372
0.0992871
0.0967992
0.0945699
0.0923872
0.0902922
0.0886924
0.0875661
0.0864691
0.0855908
0.0846467
0.0831926
0.0819971
0.0807754
0.0796384
0.0782349
0.07723
0.0761587
0.0752164
0.0743587
0.0733963
0.0724595
0.071404
0.0705723
0.0697723
0.0688588
0.0680132
0.0671887
0.0665038
0.0658681
0.0651728
0.0645315
0.0639039
0.0632804
0.0626277
0.0620681
0.0615431
0.0608816
0.0602334
0.0595997
0.059017
0.0584977
0.0579345
0.0573522
0.0568084
0.0562322
0.0557716
0.0552162
0.0547204
0.0542426
0.0537178
0.0532256
0.0528442
0.0523911
0.051919
0.0514613
0.0510208
0.050571
0.0500839
0.049609
0.0490912
0.0485968
0.0479991
0.0474394
0.046926
0.0464099
0.0458514
0.0452886
0.0447111
0.0441457
0.0435817
0.0429714
0.0423853
0.0418017
0.0411946
0.0405693
0.0399182
0.0392714
0.0386157
0.0379313
0.0372214
0.0364658
0.0356662
0.0348263
0.0339282
0.032994
0.03198
0.0308936
0.0296907
0.0284121
)
;

boundaryField
{
    inlet
    {
        type            fixedValue;
        value           uniform 0.2;
    }
    outlet
    {
        type            zeroGradient;
    }
    yzfaces
    {
        type            empty;
    }
}


// ************************************************************************* //
