/*--------------------------------*- C++ -*----------------------------------*\
| =========                 |                                                 |
| \\      /  F ield         | foam-extend: Open Source CFD                    |
|  \\    /   O peration     | Version:     5.0                                |
|   \\  /    A nd           | Web:         http://www.foam-extend.org         |
|    \\/     M anipulation  |                                                 |
\*---------------------------------------------------------------------------*/
FoamFile
{
    version     2.0;
    format      ascii;
    class       volScalarField;
    location    "6";
    object      Cl.water;
}
// * * * * * * * * * * * * * * * * * * * * * * * * * * * * * * * * * * * * * //

dimensions      [0 0 0 0 0 0 0];

internalField   nonuniform List<scalar> 
100
(
0.00804468
0.0110834
0.0131128
0.0145587
0.0157679
0.0165332
0.0174902
0.0179101
0.0185632
0.0190431
0.0197381
0.020174
0.0208562
0.0212178
0.0216131
0.0221196
0.0226518
0.0230799
0.0232928
0.0235442
0.0236743
0.0238294
0.0241535
0.0243367
0.0245615
0.0247725
0.0249705
0.0251124
0.0253183
0.0255546
0.0257388
0.0258929
0.0260531
0.0263276
0.0265631
0.0267317
0.0268784
0.0270703
0.0272579
0.0273919
0.0275423
0.0276809
0.027785
0.0279099
0.0280167
0.0281969
0.0283234
0.0284241
0.02856
0.0286867
0.0288506
0.0289891
0.0291449
0.0292923
0.0293734
0.0294701
0.0295621
0.0296173
0.029728
0.0298707
0.0299688
0.0300715
0.0302062
0.030211
0.0303325
0.0304727
0.0305089
0.0305855
0.0306739
0.0308079
0.030878
0.0309814
0.0310466
0.0311596
0.0313205
0.0314224
0.0315039
0.0316222
0.0317224
0.0318476
0.0319622
0.0320663
0.0321972
0.0323278
0.0324576
0.0325664
0.0336026
0.0338428
0.0339935
0.0341159
0.0342295
0.0343958
0.0345716
0.0347685
0.0349664
0.0351965
0.0353979
0.0356155
0.0358673
0.0361599
)
;

boundaryField
{
    inlet
    {
        type            fixedValue;
        value           uniform 0;
    }
    outlet
    {
        type            zeroGradient;
    }
    yzfaces
    {
        type            empty;
    }
}


// ************************************************************************* //
