/*--------------------------------*- C++ -*----------------------------------*\
| =========                 |                                                 |
| \\      /  F ield         | foam-extend: Open Source CFD                    |
|  \\    /   O peration     | Version:     5.0                                |
|   \\  /    A nd           | Web:         http://www.foam-extend.org         |
|    \\/     M anipulation  |                                                 |
\*---------------------------------------------------------------------------*/
FoamFile
{
    version     2.0;
    format      ascii;
    class       volScalarField;
    location    "6";
    object      CO2.gas;
}
// * * * * * * * * * * * * * * * * * * * * * * * * * * * * * * * * * * * * * //

dimensions      [0 0 0 0 0 0 0];

internalField   nonuniform List<scalar> 
100
(
0.160067
0.147792
0.138492
0.131402
0.125541
0.120434
0.116446
0.112172
0.10845
0.105235
0.102172
0.0990937
0.0966107
0.0943857
0.0922073
0.0901163
0.0885197
0.0873956
0.0863007
0.0854241
0.0844819
0.0830305
0.0818375
0.0806181
0.0794833
0.0780826
0.0770796
0.0760104
0.0750699
0.0742138
0.0732533
0.0723184
0.071265
0.0704348
0.0696364
0.0687247
0.0678807
0.0670579
0.0663742
0.0657398
0.0650459
0.0644059
0.0637794
0.0631572
0.0625057
0.0619472
0.0614232
0.060763
0.0601161
0.0594836
0.0589021
0.0583838
0.0578217
0.0572405
0.0566978
0.0561227
0.055663
0.0551087
0.0546138
0.0541369
0.0536132
0.053122
0.0527413
0.0522891
0.0518178
0.0513611
0.0509214
0.0504725
0.0499864
0.0495124
0.0489956
0.0485021
0.0479056
0.0473471
0.0468346
0.0463195
0.0457621
0.0452005
0.044624
0.0440597
0.0434968
0.0428878
0.0423028
0.0417203
0.0411144
0.0404902
0.0328045
0.0274573
0.0233303
0.0199042
0.0169699
0.0144092
0.0121343
0.010121
0.00834194
0.00678784
0.00542571
0.00425698
0.00326042
0.00243612
)
;

boundaryField
{
    inlet
    {
        type            fixedValue;
        value           uniform 0.2;
    }
    outlet
    {
        type            zeroGradient;
    }
    yzfaces
    {
        type            empty;
    }
}


// ************************************************************************* //
