/*--------------------------------*- C++ -*----------------------------------*\
| =========                 |                                                 |
| \\      /  F ield         | foam-extend: Open Source CFD                    |
|  \\    /   O peration     | Version:     5.0                                |
|   \\  /    A nd           | Web:         http://www.foam-extend.org         |
|    \\/     M anipulation  |                                                 |
\*---------------------------------------------------------------------------*/
FoamFile
{
    version     2.0;
    format      ascii;
    class       volScalarField;
    location    "6";
    object      CO2.water;
}
// * * * * * * * * * * * * * * * * * * * * * * * * * * * * * * * * * * * * * //

dimensions      [0 0 0 0 0 0 0];

internalField   nonuniform List<scalar> 
100
(
0.00104062
0.00136365
0.00160837
0.00179497
0.0019492
0.00208358
0.00218854
0.002301
0.00239895
0.00248356
0.00256416
0.00264518
0.00271052
0.00276907
0.0028264
0.00288143
0.00292344
0.00295302
0.00298184
0.0030049
0.0030297
0.00306789
0.00309929
0.00313138
0.00316124
0.0031981
0.0032245
0.00325264
0.00327739
0.00329991
0.00332519
0.00334979
0.00337751
0.00339936
0.00342037
0.00344436
0.00346657
0.00348823
0.00350622
0.00352291
0.00354117
0.00355802
0.0035745
0.00359088
0.00360802
0.00362272
0.00363651
0.00365388
0.00367091
0.00368755
0.00370285
0.00371649
0.00373128
0.00374658
0.00376086
0.003776
0.00378809
0.00380268
0.0038157
0.00382825
0.00384203
0.00385496
0.00386498
0.00387688
0.00388928
0.0039013
0.00391287
0.00392468
0.00393748
0.00394995
0.00396355
0.00397654
0.00399224
0.00400693
0.00402042
0.00403397
0.00404864
0.00406342
0.00407859
0.00409344
0.00410825
0.00412428
0.00413968
0.00415501
0.00417095
0.00418738
0.000479938
5.73348e-05
7.18116e-06
9.54246e-07
1.37412e-07
2.20028e-08
4.01333e-09
8.42291e-10
1.94851e-10
4.753e-11
1.17585e-11
2.88778e-12
7.16517e-13
1.94148e-13
)
;

boundaryField
{
    inlet
    {
        type            fixedValue;
        value           uniform 0;
    }
    outlet
    {
        type            zeroGradient;
    }
    yzfaces
    {
        type            empty;
    }
}


// ************************************************************************* //
