/*--------------------------------*- C++ -*----------------------------------*\
| =========                 |                                                 |
| \\      /  F ield         | foam-extend: Open Source CFD                    |
|  \\    /   O peration     | Version:     5.0                                |
|   \\  /    A nd           | Web:         http://www.foam-extend.org         |
|    \\/     M anipulation  |                                                 |
\*---------------------------------------------------------------------------*/
FoamFile
{
    version     2.0;
    format      ascii;
    class       volScalarField;
    location    "6";
    object      H2O.gas;
}
// * * * * * * * * * * * * * * * * * * * * * * * * * * * * * * * * * * * * * //

dimensions      [0 0 0 0 0 0 0];

internalField   nonuniform List<scalar> 
100
(
0.000312334
0.000288382
0.000270236
0.0002564
0.000244964
0.000235
0.000227218
0.000218879
0.000211616
0.000205343
0.000199366
0.000193359
0.000188514
0.000184172
0.000179921
0.000175841
0.000172726
0.000170532
0.000168396
0.000166686
0.000164847
0.000162015
0.000159687
0.000157308
0.000155093
0.00015236
0.000150403
0.000148317
0.000146482
0.000144811
0.000142937
0.000141113
0.000139057
0.000137437
0.00013588
0.000134101
0.000132454
0.000130848
0.000129514
0.000128276
0.000126922
0.000125673
0.000124451
0.000123237
0.000121966
0.000120876
0.000119853
0.000118565
0.000117303
0.000116069
0.000114934
0.000113923
0.000112826
0.000111692
0.000110633
0.000109511
0.000108614
0.000107532
0.000106566
0.000105636
0.000104614
0.000103655
0.000102913
0.00010203
0.000101111
0.000100219
9.93615e-05
9.84856e-05
9.7537e-05
9.6612e-05
9.56038e-05
9.46408e-05
9.34768e-05
9.23869e-05
9.1387e-05
9.0382e-05
8.92943e-05
8.81983e-05
8.70736e-05
8.59725e-05
8.48741e-05
8.36856e-05
8.25442e-05
8.14076e-05
8.02253e-05
7.90074e-05
0.00714676
0.0118499
0.0153205
0.0180363
0.0202305
0.0220415
0.0235208
0.0247049
0.0255874
0.0262367
0.026574
0.0266508
0.0264447
0.0260141
)
;

boundaryField
{
    inlet
    {
        type            fixedValue;
        value           uniform 0;
    }
    outlet
    {
        type            zeroGradient;
    }
    yzfaces
    {
        type            empty;
    }
}


// ************************************************************************* //
