/*--------------------------------*- C++ -*----------------------------------*\
| =========                 |                                                 |
| \\      /  F ield         | foam-extend: Open Source CFD                    |
|  \\    /   O peration     | Version:     5.0                                |
|   \\  /    A nd           | Web:         http://www.foam-extend.org         |
|    \\/     M anipulation  |                                                 |
\*---------------------------------------------------------------------------*/
FoamFile
{
    version     2.0;
    format      ascii;
    class       volScalarField;
    location    "6";
    object      H2O.water;
}
// * * * * * * * * * * * * * * * * * * * * * * * * * * * * * * * * * * * * * //

dimensions      [0 0 0 0 0 0 0];

internalField   nonuniform List<scalar> 
100
(
0.0224909
0.0283849
0.0333994
0.0374213
0.0407166
0.0441643
0.0461531
0.0494955
0.0518146
0.0539998
0.0556004
0.0577202
0.0587855
0.0602499
0.0615626
0.0625963
0.0630877
0.0633316
0.0639757
0.0643184
0.0649838
0.0660944
0.0665955
0.0674213
0.0680649
0.0690009
0.0695781
0.070332
0.0708479
0.0712196
0.0717866
0.0724074
0.0731034
0.073357
0.0736704
0.0742216
0.0747561
0.0751697
0.0754616
0.0758104
0.0761995
0.0765512
0.0769503
0.0773222
0.0777316
0.0779082
0.0781643
0.0786038
0.0789816
0.0793382
0.0795789
0.079803
0.0800285
0.0803002
0.0806706
0.0810452
0.0813147
0.0817308
0.0819938
0.0821731
0.0825069
0.0827916
0.0829011
0.0833233
0.0835294
0.0836967
0.0840593
0.0843399
0.0846269
0.0848262
0.0851945
0.0854603
0.0859148
0.0862273
0.0864093
0.0867132
0.0871165
0.0874258
0.0877775
0.0880823
0.0883985
0.0887712
0.0890692
0.0893703
0.0897235
0.0901146
0.0925297
0.0931248
0.0935172
0.0938638
0.0942066
0.0946488
0.0951212
0.0956308
0.0961476
0.0967808
0.0973311
0.0979523
0.0986569
0.0994872
)
;

boundaryField
{
    inlet
    {
        type            fixedValue;
        value           uniform 0;
    }
    outlet
    {
        type            zeroGradient;
    }
    yzfaces
    {
        type            empty;
    }
}


// ************************************************************************* //
