/*--------------------------------*- C++ -*----------------------------------*\
| =========                 |                                                 |
| \\      /  F ield         | foam-extend: Open Source CFD                    |
|  \\    /   O peration     | Version:     5.0                                |
|   \\  /    A nd           | Web:         http://www.foam-extend.org         |
|    \\/     M anipulation  |                                                 |
\*---------------------------------------------------------------------------*/
FoamFile
{
    version     2.0;
    format      ascii;
    class       volScalarField;
    location    "6";
    object      Na.water;
}
// * * * * * * * * * * * * * * * * * * * * * * * * * * * * * * * * * * * * * //

dimensions      [0 0 0 0 0 0 0];

internalField   nonuniform List<scalar> 
100
(
0.00804446
0.0110879
0.0131167
0.0145671
0.0157804
0.0165496
0.017495
0.0179021
0.0185612
0.019033
0.0197255
0.0201736
0.0208487
0.0211934
0.0216108
0.0221105
0.0226446
0.0230694
0.0232806
0.0235417
0.0236655
0.0238158
0.0241546
0.0243353
0.024574
0.0247936
0.0249969
0.0251443
0.0253401
0.0255672
0.0257531
0.0258904
0.0260619
0.0263437
0.0265739
0.0267435
0.0268859
0.027083
0.0272705
0.0274067
0.0275442
0.0276783
0.0277863
0.0278966
0.028016
0.0282041
0.0283327
0.0284366
0.0285541
0.0286878
0.0288505
0.0289937
0.0291608
0.0293087
0.0293867
0.0294765
0.0295636
0.029633
0.0297421
0.0298854
0.0299645
0.0300563
0.0301836
0.0301977
0.0303298
0.030468
0.0304981
0.0305789
0.0306778
0.0308069
0.0308727
0.030985
0.0310474
0.0311668
0.0313238
0.0314205
0.0314795
0.0315999
0.0317104
0.0318309
0.0319493
0.0320668
0.0322086
0.0323452
0.0324533
0.0325624
0.0336021
0.0338502
0.0340128
0.0341275
0.0342505
0.0344221
0.0345899
0.0347726
0.0349636
0.0351831
0.035395
0.0356162
0.0358679
0.0361714
)
;

boundaryField
{
    inlet
    {
        type            fixedValue;
        value           uniform 0;
    }
    outlet
    {
        type            zeroGradient;
    }
    yzfaces
    {
        type            empty;
    }
}


// ************************************************************************* //
