/*--------------------------------*- C++ -*----------------------------------*\
| =========                 |                                                 |
| \\      /  F ield         | foam-extend: Open Source CFD                    |
|  \\    /   O peration     | Version:     5.0                                |
|   \\  /    A nd           | Web:         http://www.foam-extend.org         |
|    \\/     M anipulation  |                                                 |
\*---------------------------------------------------------------------------*/
FoamFile
{
    version     2.0;
    format      ascii;
    class       surfaceScalarField;
    location    "6";
    object      phi;
}
// * * * * * * * * * * * * * * * * * * * * * * * * * * * * * * * * * * * * * //

dimensions      [0 3 -1 0 0 0 0];

internalField   nonuniform List<scalar> 
99
(
1.23102e-06
1.24018e-06
1.23891e-06
1.22994e-06
1.22656e-06
1.22913e-06
1.22119e-06
1.22079e-06
1.21973e-06
1.22046e-06
1.2205e-06
1.22726e-06
1.22062e-06
1.21989e-06
1.22384e-06
1.22533e-06
1.22842e-06
1.23757e-06
1.23949e-06
1.23307e-06
1.22923e-06
1.2334e-06
1.22891e-06
1.23042e-06
1.22611e-06
1.228e-06
1.22928e-06
1.23201e-06
1.23252e-06
1.22884e-06
1.23279e-06
1.23294e-06
1.23405e-06
1.23467e-06
1.23264e-06
1.23015e-06
1.22925e-06
1.2302e-06
1.22977e-06
1.229e-06
1.22829e-06
1.23038e-06
1.23057e-06
1.23214e-06
1.23247e-06
1.22961e-06
1.22878e-06
1.22915e-06
1.23313e-06
1.2298e-06
1.23329e-06
1.2339e-06
1.23167e-06
1.23186e-06
1.22954e-06
1.23043e-06
1.22709e-06
1.2253e-06
1.22429e-06
1.22412e-06
1.22399e-06
1.22667e-06
1.22338e-06
1.2238e-06
1.22472e-06
1.2236e-06
1.22216e-06
1.22204e-06
1.22139e-06
1.22106e-06
1.22649e-06
1.22261e-06
1.22599e-06
1.22633e-06
1.22479e-06
1.22097e-06
1.22155e-06
1.22218e-06
1.22115e-06
1.22261e-06
1.22055e-06
1.21953e-06
1.22001e-06
1.21876e-06
1.22039e-06
1.22009e-06
1.21964e-06
1.21996e-06
1.21947e-06
1.22e-06
1.21953e-06
1.22011e-06
1.22237e-06
1.22252e-06
1.2226e-06
1.22366e-06
1.22543e-06
1.2247e-06
1.22663e-06
)
;

boundaryField
{
    inlet
    {
        type            calculated;
        value           uniform -1.225e-06;
    }
    outlet
    {
        type            calculated;
        value           uniform 1.22548e-06;
    }
    yzfaces
    {
        type            empty;
    }
}


// ************************************************************************* //
