/*--------------------------------*- C++ -*----------------------------------*\
| =========                 |                                                 |
| \\      /  F ield         | foam-extend: Open Source CFD                    |
|  \\    /   O peration     | Version:     5.0                                |
|   \\  /    A nd           | Web:         http://www.foam-extend.org         |
|    \\/     M anipulation  |                                                 |
\*---------------------------------------------------------------------------*/
FoamFile
{
    version     2.0;
    format      ascii;
    class       surfaceScalarField;
    location    "6";
    object      phi.water;
}
// * * * * * * * * * * * * * * * * * * * * * * * * * * * * * * * * * * * * * //

dimensions      [0 3 -1 0 0 0 0];

internalField   nonuniform List<scalar> 
99
(
9.29952e-08
1.52075e-07
2.08874e-07
2.59679e-07
3.10035e-07
3.62048e-07
4.02909e-07
4.55103e-07
5.06649e-07
5.55937e-07
6.04548e-07
6.64464e-07
7.09674e-07
7.55487e-07
8.06998e-07
8.58961e-07
9.02724e-07
9.38698e-07
9.69194e-07
9.88344e-07
1.0097e-06
1.05829e-06
1.09168e-06
1.1306e-06
1.16365e-06
1.21679e-06
1.25183e-06
1.2952e-06
1.33089e-06
1.36088e-06
1.40264e-06
1.44088e-06
1.48954e-06
1.52574e-06
1.55729e-06
1.59706e-06
1.6364e-06
1.67918e-06
1.71186e-06
1.74342e-06
1.77908e-06
1.81506e-06
1.84768e-06
1.88424e-06
1.92142e-06
1.94982e-06
1.97557e-06
2.01749e-06
2.06244e-06
2.09656e-06
2.13959e-06
2.17132e-06
2.20332e-06
2.24108e-06
2.2721e-06
2.31335e-06
2.33731e-06
2.37275e-06
2.40489e-06
2.43782e-06
2.47666e-06
2.51811e-06
2.53889e-06
2.57289e-06
2.61138e-06
2.64255e-06
2.67304e-06
2.70695e-06
2.74438e-06
2.78089e-06
2.83477e-06
2.86522e-06
2.92282e-06
2.97048e-06
3.00836e-06
3.04258e-06
3.0941e-06
3.14341e-06
3.19217e-06
3.24748e-06
3.29125e-06
3.34479e-06
3.39924e-06
3.45053e-06
3.51179e-06
3.56769e-06
3.62781e-06
3.69033e-06
3.75384e-06
3.82454e-06
3.89464e-06
3.97011e-06
4.05688e-06
4.14111e-06
4.22948e-06
4.32762e-06
4.4368e-06
4.54409e-06
4.67033e-06
)
;

boundaryField
{
    inlet
    {
        type            fixedValue;
        value           uniform 0;
    }
    outlet
    {
        type            calculated;
        value           uniform 4.81245e-06;
    }
    yzfaces
    {
        type            empty;
    }
}


// ************************************************************************* //
