/*--------------------------------*- C++ -*----------------------------------*\
| =========                 |                                                 |
| \\      /  F ield         | foam-extend: Open Source CFD                    |
|  \\    /   O peration     | Version:     5.0                                |
|   \\  /    A nd           | Web:         http://www.foam-extend.org         |
|    \\/     M anipulation  |                                                 |
\*---------------------------------------------------------------------------*/
FoamFile
{
    version     2.0;
    format      ascii;
    class       volVectorField;
    location    "6";
    object      U.gas;
}
// * * * * * * * * * * * * * * * * * * * * * * * * * * * * * * * * * * * * * //

dimensions      [0 1 -1 0 0 0 0];

internalField   nonuniform List<vector> 
100
(
(0.00623971 0 0)
(0.0067761 0 0)
(0.00722699 0 0)
(0.00755444 0 0)
(0.00783373 0 0)
(0.00812623 0 0)
(0.00834855 0 0)
(0.00859541 0 0)
(0.00883736 0 0)
(0.00905695 0 0)
(0.00928047 0 0)
(0.00953775 0 0)
(0.00972377 0 0)
(0.00986643 0 0)
(0.0100537 0 0)
(0.0102464 0 0)
(0.0103914 0 0)
(0.0105301 0 0)
(0.0106705 0 0)
(0.0107223 0 0)
(0.0107602 0 0)
(0.0108979 0 0)
(0.0109938 0 0)
(0.0110882 0 0)
(0.011174 0 0)
(0.0112929 0 0)
(0.0113855 0 0)
(0.0115011 0 0)
(0.0115955 0 0)
(0.0116533 0 0)
(0.0117435 0 0)
(0.0118462 0 0)
(0.0119492 0 0)
(0.0120215 0 0)
(0.0120841 0 0)
(0.0121461 0 0)
(0.0121981 0 0)
(0.0122665 0 0)
(0.0123199 0 0)
(0.0123639 0 0)
(0.0124153 0 0)
(0.0124717 0 0)
(0.0125348 0 0)
(0.0125938 0 0)
(0.0126559 0 0)
(0.0126783 0 0)
(0.0126972 0 0)
(0.0127543 0 0)
(0.0128222 0 0)
(0.0128689 0 0)
(0.0129049 0 0)
(0.0129577 0 0)
(0.0129908 0 0)
(0.0130193 0 0)
(0.0130401 0 0)
(0.0130703 0 0)
(0.0130741 0 0)
(0.0130864 0 0)
(0.0130935 0 0)
(0.0131113 0 0)
(0.0131396 0 0)
(0.0131725 0 0)
(0.0131747 0 0)
(0.0131859 0 0)
(0.013214 0 0)
(0.0132288 0 0)
(0.0132298 0 0)
(0.0132378 0 0)
(0.0132523 0 0)
(0.0132584 0 0)
(0.013305 0 0)
(0.0133208 0 0)
(0.013342 0 0)
(0.0133657 0 0)
(0.0133585 0 0)
(0.0133335 0 0)
(0.0133208 0 0)
(0.0133266 0 0)
(0.0133235 0 0)
(0.0133144 0 0)
(0.0133006 0 0)
(0.0132788 0 0)
(0.0132558 0 0)
(0.0132313 0 0)
(0.0132126 0 0)
(0.0131951 0 0)
(0.0131605 0 0)
(0.0131194 0 0)
(0.0130759 0 0)
(0.0130304 0 0)
(0.012976 0 0)
(0.0129158 0 0)
(0.0128585 0 0)
(0.0127834 0 0)
(0.0126863 0 0)
(0.0125694 0 0)
(0.0124481 0 0)
(0.0122913 0 0)
(0.0121069 0 0)
(0.0118679 0 0)
)
;

boundaryField
{
    inlet
    {
        type            fixedValue;
        value           uniform (0.005 0 0);
    }
    outlet
    {
        type            zeroGradient;
    }
    yzfaces
    {
        type            empty;
    }
}


// ************************************************************************* //
