/*--------------------------------*- C++ -*----------------------------------*\
| =========                 |                                                 |
| \\      /  F ield         | foam-extend: Open Source CFD                    |
|  \\    /   O peration     | Version:     5.0                                |
|   \\  /    A nd           | Web:         http://www.foam-extend.org         |
|    \\/     M anipulation  |                                                 |
\*---------------------------------------------------------------------------*/
FoamFile
{
    version     2.0;
    format      ascii;
    class       volVectorField;
    location    "6";
    object      U.water;
}
// * * * * * * * * * * * * * * * * * * * * * * * * * * * * * * * * * * * * * //

dimensions      [0 1 -1 0 0 0 0];

internalField   nonuniform List<vector> 
100
(
(4.38336e-05 0 0)
(0.000101057 0 0)
(0.000147562 0 0)
(0.00019156 0 0)
(0.000232859 0 0)
(0.000273982 0 0)
(0.000312938 0 0)
(0.000350156 0 0)
(0.000392458 0 0)
(0.000433844 0 0)
(0.000473769 0 0)
(0.00051742 0 0)
(0.000560837 0 0)
(0.000598111 0 0)
(0.000637536 0 0)
(0.000678957 0 0)
(0.000717768 0 0)
(0.000751105 0 0)
(0.00077841 0 0)
(0.000799523 0 0)
(0.000816639 0 0)
(0.00084352 0 0)
(0.000877644 0 0)
(0.000907192 0 0)
(0.000937053 0 0)
(0.000970548 0 0)
(0.00100732 0 0)
(0.00103922 0 0)
(0.00107194 0 0)
(0.00109927 0 0)
(0.00112806 0 0)
(0.00116083 0 0)
(0.00119531 0 0)
(0.00123046 0 0)
(0.00125878 0 0)
(0.00128755 0 0)
(0.00131986 0 0)
(0.00135292 0 0)
(0.00138392 0 0)
(0.00141052 0 0)
(0.00143764 0 0)
(0.00146692 0 0)
(0.0014949 0 0)
(0.00152317 0 0)
(0.0015531 0 0)
(0.00158058 0 0)
(0.00160335 0 0)
(0.0016298 0 0)
(0.00166482 0 0)
(0.00169726 0 0)
(0.00172885 0 0)
(0.00175984 0 0)
(0.00178607 0 0)
(0.00181449 0 0)
(0.00184275 0 0)
(0.00187174 0 0)
(0.00189913 0 0)
(0.00192282 0 0)
(0.0019504 0 0)
(0.00197699 0 0)
(0.00200572 0 0)
(0.00203819 0 0)
(0.00206457 0 0)
(0.00208678 0 0)
(0.00211598 0 0)
(0.00214449 0 0)
(0.00216992 0 0)
(0.00219623 0 0)
(0.0022252 0 0)
(0.00225534 0 0)
(0.0022917 0 0)
(0.00232681 0 0)
(0.00236201 0 0)
(0.00240485 0 0)
(0.00244063 0 0)
(0.00247064 0 0)
(0.0025052 0 0)
(0.00254601 0 0)
(0.00258592 0 0)
(0.00262859 0 0)
(0.0026694 0 0)
(0.0027087 0 0)
(0.00275278 0 0)
(0.002796 0 0)
(0.00284173 0 0)
(0.00289028 0 0)
(0.0029389 0 0)
(0.00298975 0 0)
(0.00304087 0 0)
(0.00309402 0 0)
(0.00314994 0 0)
(0.00320903 0 0)
(0.00327576 0 0)
(0.00334626 0 0)
(0.0034177 0 0)
(0.00349542 0 0)
(0.00358018 0 0)
(0.0036683 0 0)
(0.00376422 0 0)
(0.0038678 0 0)
)
;

boundaryField
{
    inlet
    {
        type            fixedValue;
        value           uniform (0 0 0);
    }
    outlet
    {
        type            zeroGradient;
    }
    yzfaces
    {
        type            empty;
    }
}


// ************************************************************************* //
