/*--------------------------------*- C++ -*----------------------------------*\
| =========                 |                                                 |
| \\      /  F ield         | foam-extend: Open Source CFD                    |
|  \\    /   O peration     | Version:     5.0                                |
|   \\  /    A nd           | Web:         http://www.foam-extend.org         |
|    \\/     M anipulation  |                                                 |
\*---------------------------------------------------------------------------*/
FoamFile
{
    version     2.0;
    format      ascii;
    class       volScalarField;
    location    "2";
    object      alpha.gas;
}
// * * * * * * * * * * * * * * * * * * * * * * * * * * * * * * * * * * * * * //

dimensions      [0 0 0 0 0 0 0];

internalField   nonuniform List<scalar> 
100
(
0.134311
0.117374
0.106724
0.098672
0.0923513
0.0873238
0.0832334
0.0796075
0.0763016
0.0733547
0.070748
0.0683949
0.0661895
0.0639342
0.0620607
0.0600824
0.0582207
0.0565642
0.0549616
0.0533893
0.0518591
0.0503294
0.0488048
0.0473426
0.0457827
0.0442911
0.0427623
0.0412904
0.0397323
0.0381314
0.0365235
0.0347962
0.0330028
0.0311162
0.0291174
0.0269969
0.0247644
0.0224594
0.0201194
0.0178585
0.0157811
0.0140171
0.0126354
0.0116407
0.0109801
0.0105689
0.0103246
0.0101851
0.0101047
0.0100576
0.010034
0.0100187
0.0100101
0.0100062
0.0100035
0.0100021
0.0100005
0.0100019
0.0100006
0.0100003
0.00999918
0.0100003
0.00999962
0.00999823
0.0099984
0.00999732
0.00999702
0.00999718
0.0099964
0.00999762
0.00999776
0.00999958
0.00999901
0.00999856
0.00999789
0.00999924
0.0100002
0.0100008
0.00999985
0.0099997
0.00999932
0.0100003
0.00999993
0.0099991
0.00999987
0.00999858
0.00999821
0.00999953
0.0100002
0.0100009
0.0100014
0.0100011
0.0100008
0.0100005
0.00999833
0.0100014
0.0100038
0.0100012
0.0100011
0.0100032
)
;

boundaryField
{
    inlet
    {
        type            fixedValue;
        value           uniform 0.2;
    }
    outlet
    {
        type            zeroGradient;
    }
    yzfaces
    {
        type            empty;
    }
}


// ************************************************************************* //
