/*--------------------------------*- C++ -*----------------------------------*\
| =========                 |                                                 |
| \\      /  F ield         | foam-extend: Open Source CFD                    |
|  \\    /   O peration     | Version:     5.0                                |
|   \\  /    A nd           | Web:         http://www.foam-extend.org         |
|    \\/     M anipulation  |                                                 |
\*---------------------------------------------------------------------------*/
FoamFile
{
    version     2.0;
    format      ascii;
    class       volScalarField;
    location    "2";
    object      alpha.gas;
}
// * * * * * * * * * * * * * * * * * * * * * * * * * * * * * * * * * * * * * //

dimensions      [0 0 0 0 0 0 0];

internalField   nonuniform List<scalar> 
100
(
0.134437
0.116541
0.105883
0.0987806
0.0923346
0.0875181
0.0833264
0.0794693
0.0763682
0.07344
0.070906
0.068521
0.0662276
0.063924
0.0620187
0.0602103
0.0584766
0.0566989
0.0550622
0.0534405
0.0519051
0.0503845
0.0488578
0.0473503
0.045841
0.0443229
0.0428188
0.0412702
0.0397299
0.0381162
0.0364681
0.0347481
0.0329373
0.0310564
0.0290406
0.026907
0.0246691
0.0223609
0.0200281
0.0177588
0.0156924
0.0139339
0.0125649
0.0115929
0.0109513
0.0105507
0.0103138
0.0101764
0.0100969
0.0100538
0.010031
0.0100161
0.01001
0.0100066
0.0100035
0.010002
0.0100011
0.0100011
0.00999975
0.0100011
0.00999809
0.0100004
0.0100019
0.0100023
0.0100011
0.0100014
0.0100003
0.0100019
0.0100006
0.0100022
0.0100033
0.0100052
0.010003
0.0100035
0.010004
0.0100031
0.0100037
0.0100021
0.0100005
0.0100025
0.0100017
0.0100017
0.0100002
0.010001
0.0100002
0.00999858
0.00999945
0.00999741
0.0099969
0.00999736
0.00999635
0.00999872
0.00999995
0.0100012
0.0100014
0.0100003
0.0099987
0.00999888
0.00999661
0.00999856
)
;

boundaryField
{
    inlet
    {
        type            fixedValue;
        value           uniform 0.2;
    }
    outlet
    {
        type            zeroGradient;
    }
    yzfaces
    {
        type            empty;
    }
}


// ************************************************************************* //
