/*--------------------------------*- C++ -*----------------------------------*\
| =========                 |                                                 |
| \\      /  F ield         | foam-extend: Open Source CFD                    |
|  \\    /   O peration     | Version:     5.0                                |
|   \\  /    A nd           | Web:         http://www.foam-extend.org         |
|    \\/     M anipulation  |                                                 |
\*---------------------------------------------------------------------------*/
FoamFile
{
    version     2.0;
    format      ascii;
    class       volScalarField;
    location    "2";
    object      Cl.water;
}
// * * * * * * * * * * * * * * * * * * * * * * * * * * * * * * * * * * * * * //

dimensions      [0 0 0 0 0 0 0];

internalField   nonuniform List<scalar> 
100
(
0.00753509
0.00958344
0.0108023
0.0116313
0.0123496
0.0129226
0.0134016
0.013839
0.0141965
0.0145321
0.0148279
0.015102
0.0153658
0.0156206
0.0158454
0.0160515
0.0162516
0.0164477
0.0166367
0.0168286
0.0170088
0.0171827
0.0173535
0.0175299
0.0177024
0.0178724
0.0180536
0.0182275
0.018404
0.0185879
0.0187784
0.0189782
0.0191869
0.0194098
0.0196407
0.0198798
0.0201358
0.0204016
0.0206686
0.02093
0.0211686
0.0213641
0.0215173
0.0216224
0.0216995
0.0217395
0.0217735
0.0217872
0.0218053
0.021811
0.0218109
0.0218178
0.0218163
0.0218175
0.0218212
0.0218193
0.02182
0.0218215
0.0218189
0.0218178
0.0218218
0.0218261
0.0218224
0.0218226
0.021819
0.0218228
0.0218254
0.0218217
0.0218286
0.0218233
0.0218139
0.0218116
0.0218159
0.0218206
0.0218245
0.0218221
0.0218199
0.0218155
0.0218169
0.0218159
0.0218181
0.0218144
0.0218172
0.0218183
0.0218146
0.021817
0.0218081
0.0218088
0.0218019
0.0218003
0.0218054
0.0218075
0.0218132
0.0218143
0.0218106
0.0218142
0.0218155
0.0218241
0.0218265
0.0218193
)
;

boundaryField
{
    inlet
    {
        type            fixedValue;
        value           uniform 0;
    }
    outlet
    {
        type            zeroGradient;
    }
    yzfaces
    {
        type            empty;
    }
}


// ************************************************************************* //
