/*--------------------------------*- C++ -*----------------------------------*\
| =========                 |                                                 |
| \\      /  F ield         | foam-extend: Open Source CFD                    |
|  \\    /   O peration     | Version:     5.0                                |
|   \\  /    A nd           | Web:         http://www.foam-extend.org         |
|    \\/     M anipulation  |                                                 |
\*---------------------------------------------------------------------------*/
FoamFile
{
    version     2.0;
    format      ascii;
    class       volScalarField;
    location    "2";
    object      Cl.water;
}
// * * * * * * * * * * * * * * * * * * * * * * * * * * * * * * * * * * * * * //

dimensions      [0 0 0 0 0 0 0];

internalField   nonuniform List<scalar> 
100
(
0.00753977
0.00950184
0.0107202
0.0116419
0.0123563
0.0129244
0.0134061
0.0138227
0.0142012
0.0145335
0.0148338
0.0151054
0.0153658
0.0156136
0.0158415
0.0160603
0.0162772
0.0164754
0.0166619
0.016835
0.0170032
0.0171773
0.0173518
0.0175255
0.0177067
0.0179094
0.018094
0.0183725
0.0190355
0.0215753
0.0338797
0.0346541
0.0351194
0.0355244
0.0359506
0.0363914
0.0368771
0.0373511
0.0378225
0.0383381
0.0387697
0.0391401
0.0394286
0.0396197
0.039782
0.0398795
0.0399169
0.0399731
0.0399953
0.0399788
0.0399305
0.0399579
0.0399655
0.039975
0.0399985
0.0400024
0.040019
0.0400084
0.0400245
0.0400051
0.0399859
0.0399843
0.0399988
0.0400006
0.0400237
0.0399982
0.0399994
0.0399826
0.0399981
0.0399949
0.0400071
0.0400118
0.0400147
0.0400301
0.0400268
0.0400662
0.0400339
0.0400811
0.0400418
0.0400388
0.0400662
0.0400426
0.0400195
0.0400251
0.0400082
0.0399727
0.0399887
0.0399444
0.0399904
0.0399797
0.0400083
0.0399891
0.0400158
0.03998
0.0399571
0.0399647
0.0399537
0.0400122
0.0400069
0.0399934
)
;

boundaryField
{
    inlet
    {
        type            fixedValue;
        value           uniform 0;
    }
    outlet
    {
        type            zeroGradient;
    }
    yzfaces
    {
        type            empty;
    }
}


// ************************************************************************* //
