/*--------------------------------*- C++ -*----------------------------------*\
| =========                 |                                                 |
| \\      /  F ield         | foam-extend: Open Source CFD                    |
|  \\    /   O peration     | Version:     5.0                                |
|   \\  /    A nd           | Web:         http://www.foam-extend.org         |
|    \\/     M anipulation  |                                                 |
\*---------------------------------------------------------------------------*/
FoamFile
{
    version     2.0;
    format      ascii;
    class       volScalarField;
    location    "2";
    object      CO2.gas;
}
// * * * * * * * * * * * * * * * * * * * * * * * * * * * * * * * * * * * * * //

dimensions      [0 0 0 0 0 0 0];

internalField   nonuniform List<scalar> 
100
(
0.134175
0.116314
0.105677
0.0985882
0.0921548
0.0873476
0.0831641
0.0793145
0.0762194
0.0732969
0.0707679
0.0683875
0.0660986
0.0637995
0.0618979
0.060093
0.0583628
0.0565885
0.054955
0.0533364
0.051804
0.0502864
0.0487626
0.0472581
0.0457518
0.0442366
0.0427354
0.0411898
0.0396525
0.0380419
0.036397
0.0346804
0.0328732
0.0309959
0.0289841
0.0268546
0.0246211
0.0223173
0.0199891
0.0177243
0.0156618
0.0139068
0.0125405
0.0115704
0.01093
0.0105301
0.0102937
0.0101566
0.0100772
0.0100342
0.0100115
0.00999657
0.00999053
0.00998712
0.00998405
0.00998257
0.00998166
0.00998164
0.00998028
0.00998161
0.00997862
0.00998089
0.00998238
0.00998281
0.00998163
0.0099819
0.0099808
0.00998242
0.00998114
0.00998276
0.00998379
0.0099857
0.00998351
0.00998405
0.00998454
0.00998364
0.00998419
0.00998258
0.00998104
0.00998306
0.00998227
0.00998217
0.00998068
0.00998148
0.00998076
0.00997911
0.00997998
0.00997794
0.00997743
0.00997789
0.00997688
0.00997925
0.00998047
0.00998174
0.00998192
0.00998086
0.00997923
0.00997941
0.00997714
0.00997908
)
;

boundaryField
{
    inlet
    {
        type            fixedValue;
        value           uniform 0.2;
    }
    outlet
    {
        type            zeroGradient;
    }
    yzfaces
    {
        type            empty;
    }
}


// ************************************************************************* //
