/*--------------------------------*- C++ -*----------------------------------*\
| =========                 |                                                 |
| \\      /  F ield         | foam-extend: Open Source CFD                    |
|  \\    /   O peration     | Version:     5.0                                |
|   \\  /    A nd           | Web:         http://www.foam-extend.org         |
|    \\/     M anipulation  |                                                 |
\*---------------------------------------------------------------------------*/
FoamFile
{
    version     2.0;
    format      ascii;
    class       volScalarField;
    location    "2";
    object      CO2.water;
}
// * * * * * * * * * * * * * * * * * * * * * * * * * * * * * * * * * * * * * //

dimensions      [0 0 0 0 0 0 0];

internalField   nonuniform List<scalar> 
100
(
0.00172199
0.00219202
0.00247193
0.00265848
0.00282778
0.00295429
0.00306438
0.00316568
0.00324713
0.00332404
0.0033906
0.00345324
0.00351347
0.00357397
0.00362402
0.00367151
0.00371705
0.00376374
0.00380672
0.00384932
0.00388964
0.00392958
0.00396968
0.00400927
0.00404891
0.00408879
0.00412829
0.00416897
0.00420942
0.0042518
0.00429509
0.00434027
0.00438782
0.00443723
0.00449017
0.00454621
0.00460499
0.00466561
0.00472688
0.00478648
0.00484076
0.00488694
0.0049229
0.00494842
0.00496528
0.0049758
0.00498202
0.00498563
0.00498772
0.00498885
0.00498945
0.00498984
0.00499
0.00499009
0.00499017
0.00499021
0.00499023
0.00499023
0.00499027
0.00499023
0.00499031
0.00499025
0.00499021
0.0049902
0.00499023
0.00499023
0.00499026
0.00499021
0.00499025
0.0049902
0.00499018
0.00499013
0.00499018
0.00499017
0.00499016
0.00499018
0.00499017
0.00499021
0.00499025
0.0049902
0.00499022
0.00499022
0.00499026
0.00499024
0.00499026
0.0049903
0.00499028
0.00499033
0.00499034
0.00499033
0.00499036
0.0049903
0.00499026
0.00499023
0.00499023
0.00499025
0.0049903
0.00499029
0.00499035
0.0049903
)
;

boundaryField
{
    inlet
    {
        type            fixedValue;
        value           uniform 0;
    }
    outlet
    {
        type            zeroGradient;
    }
    yzfaces
    {
        type            empty;
    }
}


// ************************************************************************* //
