/*--------------------------------*- C++ -*----------------------------------*\
| =========                 |                                                 |
| \\      /  F ield         | foam-extend: Open Source CFD                    |
|  \\    /   O peration     | Version:     5.0                                |
|   \\  /    A nd           | Web:         http://www.foam-extend.org         |
|    \\/     M anipulation  |                                                 |
\*---------------------------------------------------------------------------*/
FoamFile
{
    version     2.0;
    format      ascii;
    class       volScalarField;
    location    "2";
    object      H2O.gas;
}
// * * * * * * * * * * * * * * * * * * * * * * * * * * * * * * * * * * * * * //

dimensions      [0 0 0 0 0 0 0];

internalField   nonuniform List<scalar> 
100
(
0.000261567
0.000228582
0.000207841
0.000192161
0.000179851
0.000170061
0.000162095
0.000155033
0.000148595
0.000142856
0.00013778
0.000133197
0.000128902
0.00012451
0.000120861
0.000117009
0.000113383
0.000110157
0.000107036
0.000103974
0.000100994
9.80151e-05
9.5046e-05
9.21984e-05
8.91604e-05
8.62556e-05
8.32783e-05
8.04119e-05
7.73775e-05
7.42598e-05
0.00885737
0.0122136
0.0149119
0.0169589
0.0183761
0.0191466
0.0192913
0.0188439
0.017886
0.0166043
0.0151348
0.0137184
0.0125104
0.011585
0.0109609
0.010562
0.0103186
0.0101848
0.0101081
0.0100594
0.0100241
0.0100128
0.0100072
0.0100053
0.0100039
0.0100029
0.0100041
0.0100015
0.0100034
0.0100011
0.00999465
0.00999381
0.00999502
0.00999283
0.00999965
0.00999338
0.00999322
0.00998911
0.00999448
0.00999817
0.010002
0.0100019
0.0100017
0.0100053
0.0100053
0.0100134
0.0100028
0.0100144
0.0100044
0.0100045
0.0100114
0.010008
0.0100004
0.0100035
0.0100019
0.00999194
0.00999748
0.00998668
0.00999778
0.0099928
0.010002
0.0099976
0.0100053
0.00999544
0.00998896
0.009991
0.00998938
0.0100026
0.010001
0.0100014
)
;

boundaryField
{
    inlet
    {
        type            fixedValue;
        value           uniform 0;
    }
    outlet
    {
        type            zeroGradient;
    }
    yzfaces
    {
        type            empty;
    }
}


// ************************************************************************* //
