/*--------------------------------*- C++ -*----------------------------------*\
| =========                 |                                                 |
| \\      /  F ield         | foam-extend: Open Source CFD                    |
|  \\    /   O peration     | Version:     5.0                                |
|   \\  /    A nd           | Web:         http://www.foam-extend.org         |
|    \\/     M anipulation  |                                                 |
\*---------------------------------------------------------------------------*/
FoamFile
{
    version     2.0;
    format      ascii;
    class       volScalarField;
    location    "2";
    object      Na.water;
}
// * * * * * * * * * * * * * * * * * * * * * * * * * * * * * * * * * * * * * //

dimensions      [0 0 0 0 0 0 0];

internalField   nonuniform List<scalar> 
100
(
0.00753257
0.00957733
0.0108008
0.0116297
0.0123543
0.0129339
0.0134103
0.0138449
0.0141993
0.0145323
0.0148247
0.0150974
0.0153629
0.0156235
0.0158459
0.0160564
0.0162593
0.0164547
0.0166518
0.0168312
0.0170098
0.0171782
0.0173549
0.0175349
0.0177056
0.0178763
0.0180497
0.0182276
0.0184063
0.0185877
0.0187791
0.018973
0.0191752
0.019395
0.0196247
0.0198722
0.0201292
0.0203954
0.020667
0.0209239
0.0211661
0.0213662
0.0215265
0.0216379
0.0217206
0.0217625
0.0217909
0.0217999
0.0218085
0.0218131
0.0218132
0.0218137
0.0218127
0.0218186
0.0218149
0.0218119
0.0218105
0.0218126
0.0218155
0.0218105
0.021817
0.0218171
0.0218106
0.0218127
0.0218149
0.0218159
0.021814
0.0218082
0.0218134
0.0218177
0.0218143
0.0218232
0.0218184
0.0218138
0.0218124
0.0218126
0.0218119
0.0218205
0.0218154
0.0218111
0.0218186
0.0218188
0.0218197
0.0218244
0.0218211
0.0218239
0.0218275
0.0218348
0.0218339
0.0218367
0.0218333
0.0218282
0.0218233
0.0218242
0.0218243
0.021823
0.021818
0.0218121
0.0218071
0.0218058
)
;

boundaryField
{
    inlet
    {
        type            fixedValue;
        value           uniform 0;
    }
    outlet
    {
        type            zeroGradient;
    }
    yzfaces
    {
        type            empty;
    }
}


// ************************************************************************* //
