/*--------------------------------*- C++ -*----------------------------------*\
| =========                 |                                                 |
| \\      /  F ield         | foam-extend: Open Source CFD                    |
|  \\    /   O peration     | Version:     5.0                                |
|   \\  /    A nd           | Web:         http://www.foam-extend.org         |
|    \\/     M anipulation  |                                                 |
\*---------------------------------------------------------------------------*/
FoamFile
{
    version     2.0;
    format      ascii;
    class       volScalarField;
    location    "2";
    object      Na.water;
}
// * * * * * * * * * * * * * * * * * * * * * * * * * * * * * * * * * * * * * //

dimensions      [0 0 0 0 0 0 0];

internalField   nonuniform List<scalar> 
100
(
0.00753669
0.00949649
0.0107116
0.0116375
0.0123671
0.0129347
0.0134197
0.0138343
0.0142118
0.0145462
0.0148497
0.0151197
0.0153675
0.0156247
0.0158458
0.0160694
0.0162701
0.0164642
0.0166492
0.0168386
0.0170215
0.0171989
0.0173708
0.0175376
0.0177093
0.0179009
0.0180844
0.018355
0.0190245
0.0215602
0.0338582
0.0346408
0.035125
0.0355295
0.0359602
0.0364119
0.0368816
0.0373548
0.037833
0.0383434
0.0387741
0.0391507
0.0394374
0.039624
0.039788
0.0398787
0.0399349
0.0399845
0.04003
0.0400256
0.0399845
0.0399916
0.0399893
0.0400111
0.0400176
0.0400251
0.0400413
0.04002
0.0400259
0.0400217
0.0399889
0.0399693
0.039987
0.0399851
0.0400085
0.0399661
0.0399726
0.0399526
0.0399919
0.0400007
0.0400181
0.0400098
0.0400304
0.0400307
0.0400361
0.0400705
0.0400201
0.0400647
0.0400228
0.0400244
0.040057
0.0400456
0.0400102
0.0400274
0.0400131
0.0399672
0.0399863
0.0399436
0.0399831
0.0399684
0.0400038
0.0399885
0.0400219
0.0399832
0.0399663
0.0399711
0.0399458
0.040004
0.0399944
0.0399787
)
;

boundaryField
{
    inlet
    {
        type            fixedValue;
        value           uniform 0;
    }
    outlet
    {
        type            zeroGradient;
    }
    yzfaces
    {
        type            empty;
    }
}


// ************************************************************************* //
