/*--------------------------------*- C++ -*----------------------------------*\
| =========                 |                                                 |
| \\      /  F ield         | foam-extend: Open Source CFD                    |
|  \\    /   O peration     | Version:     5.0                                |
|   \\  /    A nd           | Web:         http://www.foam-extend.org         |
|    \\/     M anipulation  |                                                 |
\*---------------------------------------------------------------------------*/
FoamFile
{
    version     2.0;
    format      ascii;
    class       surfaceScalarField;
    location    "2";
    object      phi;
}
// * * * * * * * * * * * * * * * * * * * * * * * * * * * * * * * * * * * * * //

dimensions      [0 3 -1 0 0 0 0];

internalField   nonuniform List<scalar> 
99
(
1.23497e-06
1.2188e-06
1.2186e-06
1.21124e-06
1.2132e-06
1.22643e-06
1.21807e-06
1.21563e-06
1.21291e-06
1.21539e-06
1.21557e-06
1.21435e-06
1.21314e-06
1.21565e-06
1.21392e-06
1.21317e-06
1.21932e-06
1.21835e-06
1.21791e-06
1.21688e-06
1.21704e-06
1.215e-06
1.21616e-06
1.21532e-06
1.21757e-06
1.21807e-06
1.22001e-06
1.21846e-06
1.21871e-06
1.22065e-06
1.21794e-06
1.21817e-06
1.21926e-06
1.21865e-06
1.2177e-06
1.21762e-06
1.21854e-06
1.21924e-06
1.21966e-06
1.21977e-06
1.22135e-06
1.22127e-06
1.22189e-06
1.22114e-06
1.22324e-06
1.22324e-06
1.22231e-06
1.22129e-06
1.22132e-06
1.22026e-06
1.21971e-06
1.22021e-06
1.22049e-06
1.22174e-06
1.22122e-06
1.22125e-06
1.21866e-06
1.2195e-06
1.21917e-06
1.21785e-06
1.21846e-06
1.21908e-06
1.21834e-06
1.21838e-06
1.21912e-06
1.21825e-06
1.21787e-06
1.21634e-06
1.21763e-06
1.21794e-06
1.21789e-06
1.21831e-06
1.21896e-06
1.22022e-06
1.22031e-06
1.21988e-06
1.22101e-06
1.22249e-06
1.22158e-06
1.21972e-06
1.21932e-06
1.218e-06
1.21772e-06
1.21624e-06
1.21696e-06
1.21835e-06
1.21696e-06
1.21789e-06
1.21816e-06
1.21729e-06
1.21607e-06
1.21665e-06
1.21631e-06
1.21742e-06
1.21519e-06
1.2159e-06
1.21665e-06
1.21849e-06
1.21616e-06
)
;

boundaryField
{
    inlet
    {
        type            calculated;
        value           uniform -1.225e-06;
    }
    outlet
    {
        type            calculated;
        value           uniform 1.21759e-06;
    }
    yzfaces
    {
        type            empty;
    }
}


// ************************************************************************* //
