/*--------------------------------*- C++ -*----------------------------------*\
| =========                 |                                                 |
| \\      /  F ield         | foam-extend: Open Source CFD                    |
|  \\    /   O peration     | Version:     5.0                                |
|   \\  /    A nd           | Web:         http://www.foam-extend.org         |
|    \\/     M anipulation  |                                                 |
\*---------------------------------------------------------------------------*/
FoamFile
{
    version     2.0;
    format      ascii;
    class       surfaceScalarField;
    location    "2";
    object      phi;
}
// * * * * * * * * * * * * * * * * * * * * * * * * * * * * * * * * * * * * * //

dimensions      [0 3 -1 0 0 0 0];

internalField   nonuniform List<scalar> 
99
(
1.22614e-06
1.22167e-06
1.22463e-06
1.22038e-06
1.22878e-06
1.21414e-06
1.20956e-06
1.20789e-06
1.20284e-06
1.20411e-06
1.20469e-06
1.20564e-06
1.20171e-06
1.20438e-06
1.20299e-06
1.19972e-06
1.1974e-06
1.19953e-06
1.19817e-06
1.19903e-06
1.19663e-06
1.19704e-06
1.19835e-06
1.19357e-06
1.19256e-06
1.19385e-06
1.19195e-06
1.19149e-06
1.19101e-06
1.19142e-06
1.1918e-06
1.19168e-06
1.19371e-06
1.19226e-06
1.19104e-06
1.19117e-06
1.19193e-06
1.19156e-06
1.19147e-06
1.19103e-06
1.1893e-06
1.18978e-06
1.19097e-06
1.19342e-06
1.19282e-06
1.19434e-06
1.1945e-06
1.19754e-06
1.19688e-06
1.19712e-06
1.19823e-06
1.19844e-06
1.19974e-06
1.19935e-06
1.19857e-06
1.19949e-06
1.20027e-06
1.20108e-06
1.20191e-06
1.20346e-06
1.20435e-06
1.20162e-06
1.20225e-06
1.20203e-06
1.20335e-06
1.20211e-06
1.20115e-06
1.20279e-06
1.2009e-06
1.19848e-06
1.20022e-06
1.20033e-06
1.19949e-06
1.20035e-06
1.19941e-06
1.19912e-06
1.20021e-06
1.19984e-06
1.2007e-06
1.20249e-06
1.2024e-06
1.20265e-06
1.20359e-06
1.20137e-06
1.20199e-06
1.20061e-06
1.20139e-06
1.20039e-06
1.2007e-06
1.20042e-06
1.20027e-06
1.20031e-06
1.20003e-06
1.19976e-06
1.20032e-06
1.20009e-06
1.20117e-06
1.20191e-06
1.20345e-06
)
;

boundaryField
{
    inlet
    {
        type            calculated;
        value           uniform -1.225e-06;
    }
    outlet
    {
        type            calculated;
        value           uniform 1.20517e-06;
    }
    yzfaces
    {
        type            empty;
    }
}


// ************************************************************************* //
