/*--------------------------------*- C++ -*----------------------------------*\
| =========                 |                                                 |
| \\      /  F ield         | foam-extend: Open Source CFD                    |
|  \\    /   O peration     | Version:     5.0                                |
|   \\  /    A nd           | Web:         http://www.foam-extend.org         |
|    \\/     M anipulation  |                                                 |
\*---------------------------------------------------------------------------*/
FoamFile
{
    version     2.0;
    format      ascii;
    class       volVectorField;
    location    "2";
    object      U.gas;
}
// * * * * * * * * * * * * * * * * * * * * * * * * * * * * * * * * * * * * * //

dimensions      [0 1 -1 0 0 0 0];

internalField   nonuniform List<vector> 
100
(
(0.00742544 0 0)
(0.00835936 0 0)
(0.00900046 0 0)
(0.00955877 0 0)
(0.0100283 0 0)
(0.0105009 0 0)
(0.010867 0 0)
(0.0111325 0 0)
(0.0113997 0 0)
(0.0116563 0 0)
(0.0118925 0 0)
(0.0120855 0 0)
(0.0122583 0 0)
(0.0124586 0 0)
(0.0125937 0 0)
(0.01274 0 0)
(0.0128962 0 0)
(0.0130199 0 0)
(0.0131056 0 0)
(0.013183 0 0)
(0.0132499 0 0)
(0.0133015 0 0)
(0.0133454 0 0)
(0.0133738 0 0)
(0.0134115 0 0)
(0.0134162 0 0)
(0.0134149 0 0)
(0.0133667 0 0)
(0.0133091 0 0)
(0.0132355 0 0)
(0.0131065 0 0)
(0.0129471 0 0)
(0.0127497 0 0)
(0.0124942 0 0)
(0.0121598 0 0)
(0.011748 0 0)
(0.0112453 0 0)
(0.0106293 0 0)
(0.00989982 0 0)
(0.00906309 0 0)
(0.00817731 0 0)
(0.00729857 0 0)
(0.00650935 0 0)
(0.00587163 0 0)
(0.00540849 0 0)
(0.00510134 0 0)
(0.00490659 0 0)
(0.00478877 0 0)
(0.00472138 0 0)
(0.00468135 0 0)
(0.00465606 0 0)
(0.00464523 0 0)
(0.00464049 0 0)
(0.00463953 0 0)
(0.0046383 0 0)
(0.00463573 0 0)
(0.00462998 0 0)
(0.0046263 0 0)
(0.00462834 0 0)
(0.00462453 0 0)
(0.00462278 0 0)
(0.00462478 0 0)
(0.00462499 0 0)
(0.00462296 0 0)
(0.00462407 0 0)
(0.00462438 0 0)
(0.00462108 0 0)
(0.00461737 0 0)
(0.00461727 0 0)
(0.0046199 0 0)
(0.00462111 0 0)
(0.00462134 0 0)
(0.00462362 0 0)
(0.00462734 0 0)
(0.00463049 0 0)
(0.00462983 0 0)
(0.00463181 0 0)
(0.00463711 0 0)
(0.00463811 0 0)
(0.00463181 0 0)
(0.00462734 0 0)
(0.0046244 0 0)
(0.00462208 0 0)
(0.00461863 0 0)
(0.00461604 0 0)
(0.00462005 0 0)
(0.00462056 0 0)
(0.00461968 0 0)
(0.00462166 0 0)
(0.00462066 0 0)
(0.00461782 0 0)
(0.00461681 0 0)
(0.00461657 0 0)
(0.00461814 0 0)
(0.00461616 0 0)
(0.00461212 0 0)
(0.0046163 0 0)
(0.0046227 0 0)
(0.00462066 0 0)
(0.00461982 0 0)
)
;

boundaryField
{
    inlet
    {
        type            fixedValue;
        value           uniform (0.005 0 0);
    }
    outlet
    {
        type            zeroGradient;
    }
    yzfaces
    {
        type            empty;
    }
}


// ************************************************************************* //
