/*--------------------------------*- C++ -*----------------------------------*\
| =========                 |                                                 |
| \\      /  F ield         | foam-extend: Open Source CFD                    |
|  \\    /   O peration     | Version:     5.0                                |
|   \\  /    A nd           | Web:         http://www.foam-extend.org         |
|    \\/     M anipulation  |                                                 |
\*---------------------------------------------------------------------------*/
FoamFile
{
    version     2.0;
    format      ascii;
    class       volVectorField;
    location    "2";
    object      U.gas;
}
// * * * * * * * * * * * * * * * * * * * * * * * * * * * * * * * * * * * * * //

dimensions      [0 1 -1 0 0 0 0];

internalField   nonuniform List<vector> 
100
(
(0.0073924 0 0)
(0.00839486 0 0)
(0.00909395 0 0)
(0.00960172 0 0)
(0.0101331 0 0)
(0.0104955 0 0)
(0.0107677 0 0)
(0.0110768 0 0)
(0.0113048 0 0)
(0.0115438 0 0)
(0.0117657 0 0)
(0.0119781 0 0)
(0.012157 0 0)
(0.0123444 0 0)
(0.0124835 0 0)
(0.0125899 0 0)
(0.0126801 0 0)
(0.0128038 0 0)
(0.0128978 0 0)
(0.0129816 0 0)
(0.013039 0 0)
(0.0130886 0 0)
(0.013147 0 0)
(0.0131596 0 0)
(0.0131464 0 0)
(0.013152 0 0)
(0.0131277 0 0)
(0.0130786 0 0)
(0.0130064 0 0)
(0.0129253 0 0)
(0.0128106 0 0)
(0.0126609 0 0)
(0.0124732 0 0)
(0.0122151 0 0)
(0.0118842 0 0)
(0.0114755 0 0)
(0.0109747 0 0)
(0.0103628 0 0)
(0.00963953 0 0)
(0.00881934 0 0)
(0.00793523 0 0)
(0.00707167 0 0)
(0.00630659 0 0)
(0.00569825 0 0)
(0.0052586 0 0)
(0.00496574 0 0)
(0.00478439 0 0)
(0.00468137 0 0)
(0.00462378 0 0)
(0.00458678 0 0)
(0.00456979 0 0)
(0.00456219 0 0)
(0.00455823 0 0)
(0.00455684 0 0)
(0.00455296 0 0)
(0.00455156 0 0)
(0.00455411 0 0)
(0.00455723 0 0)
(0.00456042 0 0)
(0.0045641 0 0)
(0.00456959 0 0)
(0.00456449 0 0)
(0.00456123 0 0)
(0.00456374 0 0)
(0.00456631 0 0)
(0.0045649 0 0)
(0.00456008 0 0)
(0.00456083 0 0)
(0.00456157 0 0)
(0.00455323 0 0)
(0.00455247 0 0)
(0.00455632 0 0)
(0.00455638 0 0)
(0.00455544 0 0)
(0.00455464 0 0)
(0.00455236 0 0)
(0.00455364 0 0)
(0.00455601 0 0)
(0.00455683 0 0)
(0.00456025 0 0)
(0.0045639 0 0)
(0.00456413 0 0)
(0.00456615 0 0)
(0.00456332 0 0)
(0.00456057 0 0)
(0.00455877 0 0)
(0.00455651 0 0)
(0.00455663 0 0)
(0.0045552 0 0)
(0.0045547 0 0)
(0.00455398 0 0)
(0.00455383 0 0)
(0.00455447 0 0)
(0.0045537 0 0)
(0.00455504 0 0)
(0.00455529 0 0)
(0.00455654 0 0)
(0.00455976 0 0)
(0.00456347 0 0)
(0.00456722 0 0)
)
;

boundaryField
{
    inlet
    {
        type            fixedValue;
        value           uniform (0.005 0 0);
    }
    outlet
    {
        type            zeroGradient;
    }
    yzfaces
    {
        type            empty;
    }
}


// ************************************************************************* //
