/*--------------------------------*- C++ -*----------------------------------*\
| =========                 |                                                 |
| \\      /  F ield         | foam-extend: Open Source CFD                    |
|  \\    /   O peration     | Version:     5.0                                |
|   \\  /    A nd           | Web:         http://www.foam-extend.org         |
|    \\/     M anipulation  |                                                 |
\*---------------------------------------------------------------------------*/
FoamFile
{
    version     2.0;
    format      ascii;
    class       volVectorField;
    location    "2";
    object      U.water;
}
// * * * * * * * * * * * * * * * * * * * * * * * * * * * * * * * * * * * * * //

dimensions      [0 1 -1 0 0 0 0];

internalField   nonuniform List<vector> 
100
(
(0.000102797 0 0)
(0.000246529 0 0)
(0.000367663 0 0)
(0.000479507 0 0)
(0.000589362 0 0)
(0.000699253 0 0)
(0.000798644 0 0)
(0.000889711 0 0)
(0.000981608 0 0)
(0.00107465 0 0)
(0.00116716 0 0)
(0.00125543 0 0)
(0.00134104 0 0)
(0.00143178 0 0)
(0.00152302 0 0)
(0.00160952 0 0)
(0.00170707 0 0)
(0.00180221 0 0)
(0.00188973 0 0)
(0.00197774 0 0)
(0.0020677 0 0)
(0.00215951 0 0)
(0.00225527 0 0)
(0.00235358 0 0)
(0.00245758 0 0)
(0.00256838 0 0)
(0.00268055 0 0)
(0.00279366 0 0)
(0.00290742 0 0)
(0.00303314 0 0)
(0.00316039 0 0)
(0.00329181 0 0)
(0.00343774 0 0)
(0.00359002 0 0)
(0.00374742 0 0)
(0.00391235 0 0)
(0.00408519 0 0)
(0.00425979 0 0)
(0.00442678 0 0)
(0.00457794 0 0)
(0.00470815 0 0)
(0.00481057 0 0)
(0.00488331 0 0)
(0.00493102 0 0)
(0.00496414 0 0)
(0.00498676 0 0)
(0.00499551 0 0)
(0.00499757 0 0)
(0.00499893 0 0)
(0.00499877 0 0)
(0.00499661 0 0)
(0.00499704 0 0)
(0.00499895 0 0)
(0.00500228 0 0)
(0.00500391 0 0)
(0.00500301 0 0)
(0.00499781 0 0)
(0.00499425 0 0)
(0.00499524 0 0)
(0.00499187 0 0)
(0.00499043 0 0)
(0.00499297 0 0)
(0.00499271 0 0)
(0.00499131 0 0)
(0.00499292 0 0)
(0.00499262 0 0)
(0.00499012 0 0)
(0.00498622 0 0)
(0.00498571 0 0)
(0.00498901 0 0)
(0.0049895 0 0)
(0.00499028 0 0)
(0.00499245 0 0)
(0.00499637 0 0)
(0.0049991 0 0)
(0.00499841 0 0)
(0.00499981 0 0)
(0.00500513 0 0)
(0.00500632 0 0)
(0.00500069 0 0)
(0.00499606 0 0)
(0.00499253 0 0)
(0.00498922 0 0)
(0.00498561 0 0)
(0.00498413 0 0)
(0.00498844 0 0)
(0.0049884 0 0)
(0.00498746 0 0)
(0.00498993 0 0)
(0.0049887 0 0)
(0.00498436 0 0)
(0.00498303 0 0)
(0.00498358 0 0)
(0.00498515 0 0)
(0.00498283 0 0)
(0.00497979 0 0)
(0.00498271 0 0)
(0.00498794 0 0)
(0.004987 0 0)
(0.00498511 0 0)
)
;

boundaryField
{
    inlet
    {
        type            fixedValue;
        value           uniform (0 0 0);
    }
    outlet
    {
        type            zeroGradient;
    }
    yzfaces
    {
        type            empty;
    }
}


// ************************************************************************* //
