/*--------------------------------*- C++ -*----------------------------------*\
| =========                 |                                                 |
| \\      /  F ield         | foam-extend: Open Source CFD                    |
|  \\    /   O peration     | Version:     5.0                                |
|   \\  /    A nd           | Web:         http://www.foam-extend.org         |
|    \\/     M anipulation  |                                                 |
\*---------------------------------------------------------------------------*/
FoamFile
{
    version     2.0;
    format      ascii;
    class       volVectorField;
    location    "2";
    object      U.water;
}
// * * * * * * * * * * * * * * * * * * * * * * * * * * * * * * * * * * * * * //

dimensions      [0 1 -1 0 0 0 0];

internalField   nonuniform List<vector> 
100
(
(0.000101522 0 0)
(0.000248769 0 0)
(0.000378124 0 0)
(0.000489045 0 0)
(0.000594628 0 0)
(0.000698429 0 0)
(0.000788814 0 0)
(0.000883162 0 0)
(0.000975854 0 0)
(0.00106393 0 0)
(0.00115359 0 0)
(0.00124016 0 0)
(0.00132658 0 0)
(0.00141809 0 0)
(0.00151025 0 0)
(0.00159279 0 0)
(0.00167411 0 0)
(0.00176117 0 0)
(0.00185232 0 0)
(0.00194262 0 0)
(0.00203269 0 0)
(0.0021224 0 0)
(0.00221894 0 0)
(0.00231369 0 0)
(0.00240847 0 0)
(0.00251233 0 0)
(0.00261916 0 0)
(0.0027284 0 0)
(0.00284335 0 0)
(0.0029636 0 0)
(0.00309155 0 0)
(0.00322482 0 0)
(0.00336877 0 0)
(0.00351898 0 0)
(0.00367134 0 0)
(0.00383354 0 0)
(0.00400361 0 0)
(0.00417212 0 0)
(0.00433183 0 0)
(0.00447665 0 0)
(0.0045958 0 0)
(0.00468927 0 0)
(0.00476159 0 0)
(0.00481489 0 0)
(0.00484736 0 0)
(0.00486652 0 0)
(0.00488012 0 0)
(0.00489245 0 0)
(0.00490054 0 0)
(0.00490154 0 0)
(0.00490529 0 0)
(0.0049085 0 0)
(0.00491194 0 0)
(0.00491397 0 0)
(0.00491167 0 0)
(0.00491204 0 0)
(0.00491554 0 0)
(0.00491878 0 0)
(0.00492213 0 0)
(0.00492705 0 0)
(0.004932 0 0)
(0.00492834 0 0)
(0.00492402 0 0)
(0.00492475 0 0)
(0.00492696 0 0)
(0.00492722 0 0)
(0.00492274 0 0)
(0.00492417 0 0)
(0.0049236 0 0)
(0.00491477 0 0)
(0.00491335 0 0)
(0.00491713 0 0)
(0.00491556 0 0)
(0.00491564 0 0)
(0.00491551 0 0)
(0.00491298 0 0)
(0.00491464 0 0)
(0.00491607 0 0)
(0.00491707 0 0)
(0.00492258 0 0)
(0.00492605 0 0)
(0.00492638 0 0)
(0.00492881 0 0)
(0.00492623 0 0)
(0.00492294 0 0)
(0.0049214 0 0)
(0.00492023 0 0)
(0.00491974 0 0)
(0.00491834 0 0)
(0.00491844 0 0)
(0.00491755 0 0)
(0.00491732 0 0)
(0.00491677 0 0)
(0.00491563 0 0)
(0.00491618 0 0)
(0.00491688 0 0)
(0.00491864 0 0)
(0.00492238 0 0)
(0.00492706 0 0)
(0.00493387 0 0)
)
;

boundaryField
{
    inlet
    {
        type            fixedValue;
        value           uniform (0 0 0);
    }
    outlet
    {
        type            zeroGradient;
    }
    yzfaces
    {
        type            empty;
    }
}


// ************************************************************************* //
