/*--------------------------------*- C++ -*----------------------------------*\
| =========                 |                                                 |
| \\      /  F ield         | foam-extend: Open Source CFD                    |
|  \\    /   O peration     | Version:     5.0                                |
|   \\  /    A nd           | Web:         http://www.foam-extend.org         |
|    \\/     M anipulation  |                                                 |
\*---------------------------------------------------------------------------*/
FoamFile
{
    version     2.0;
    format      ascii;
    class       volScalarField;
    location    "8.73024";
    object      CO2.water;
}
// * * * * * * * * * * * * * * * * * * * * * * * * * * * * * * * * * * * * * //

dimensions      [0 0 0 0 0 0 0];

internalField   nonuniform List<scalar> 
100
(
6.10029e-05
1.38602e-05
2.60596e-06
4.42863e-07
7.05269e-08
1.07311e-08
1.57755e-09
2.25659e-10
3.15624e-11
4.33206e-12
5.8505e-13
7.79018e-14
1.02416e-14
1.33106e-15
1.71204e-16
2.1814e-17
2.75528e-18
3.4517e-19
4.2916e-20
5.29822e-21
6.49725e-22
7.91577e-23
9.58687e-24
1.15441e-24
1.38239e-25
1.6468e-26
1.95204e-27
2.30254e-28
2.70324e-29
3.16001e-30
3.67754e-31
4.26166e-32
4.91919e-33
5.65492e-34
6.47634e-35
7.38942e-36
8.39984e-37
9.51617e-38
1.07437e-38
1.20884e-39
1.35589e-40
1.51595e-41
1.68968e-42
1.87735e-43
2.07977e-44
2.29767e-45
2.53124e-46
2.78055e-47
3.04586e-48
3.32754e-49
3.62619e-50
3.94152e-51
4.27365e-52
4.62154e-53
4.98538e-54
5.36591e-55
5.76106e-56
6.17189e-57
6.59608e-58
7.03385e-59
7.48322e-60
7.94471e-61
8.4169e-62
8.89673e-63
9.38703e-64
9.88314e-65
1.03864e-65
1.08927e-66
1.14004e-67
1.19085e-68
1.24157e-69
1.29203e-70
1.34199e-71
1.39149e-72
1.4403e-73
1.48812e-74
1.53494e-75
1.58058e-76
1.62466e-77
1.66725e-78
1.70781e-79
1.74663e-80
1.78318e-81
1.81782e-82
1.85014e-83
1.88005e-84
1.90768e-85
1.93277e-86
1.95518e-87
1.9748e-88
1.99196e-89
2.0062e-90
2.01768e-91
2.02624e-92
2.03224e-93
2.0353e-94
2.03571e-95
2.0332e-96
2.02808e-97
2.02013e-98
)
;

boundaryField
{
    inlet
    {
        type            fixedValue;
        value           uniform 0;
    }
    outlet
    {
        type            zeroGradient;
    }
    yzfaces
    {
        type            empty;
    }
}


// ************************************************************************* //
