/*--------------------------------*- C++ -*----------------------------------*\
| =========                 |                                                 |
| \\      /  F ield         | foam-extend: Open Source CFD                    |
|  \\    /   O peration     | Version:     5.0                                |
|   \\  /    A nd           | Web:         http://www.foam-extend.org         |
|    \\/     M anipulation  |                                                 |
\*---------------------------------------------------------------------------*/
FoamFile
{
    version     2.0;
    format      ascii;
    class       volScalarField;
    location    "4";
    object      alpha.gas;
}
// * * * * * * * * * * * * * * * * * * * * * * * * * * * * * * * * * * * * * //

dimensions      [0 0 0 0 0 0 0];

internalField   nonuniform List<scalar> 
100
(
0.154163
0.126111
0.120517
0.109023
0.100833
0.101681
0.103268
0.0977884
0.0950197
0.0903123
0.0836277
0.078524
0.0812689
0.0817034
0.0791608
0.0813137
0.0767224
0.0736431
0.0719988
0.0700946
0.0678088
0.0693061
0.0685545
0.0677713
0.0659935
0.0633507
0.0614073
0.060027
0.0597678
0.0568602
0.0555408
0.0535571
0.0510294
0.0451766
0.0405428
0.0324296
0.0118531
0.0274969
0.0269376
0.0266778
0.026534
0.0264702
0.0264523
0.0264615
0.0264973
0.0265371
0.0265805
0.0266136
0.0266285
0.0266364
0.0266259
0.0265875
0.0265173
0.0263968
0.0262273
0.0260028
0.0257004
0.0253293
0.0248562
0.0242698
0.0235527
0.0226773
0.0216497
0.0204544
0.0191263
0.0176804
0.0162034
0.0147755
0.0134867
0.0124238
0.0116079
0.0110262
0.0106365
0.0103881
0.010232
0.0101399
0.0100844
0.0100502
0.0100294
0.0100173
0.0100096
0.0100029
0.0100024
0.010001
0.0100007
0.00999801
0.00999849
0.0100005
0.0100036
0.0100015
0.0100011
0.0100018
0.0100021
0.00999934
0.010003
0.0100023
0.010004
0.0100029
0.0100024
0.0100001
)
;

boundaryField
{
    inlet
    {
        type            fixedValue;
        value           uniform 0.2;
    }
    outlet
    {
        type            zeroGradient;
    }
    yzfaces
    {
        type            empty;
    }
}


// ************************************************************************* //
