/*--------------------------------*- C++ -*----------------------------------*\
| =========                 |                                                 |
| \\      /  F ield         | foam-extend: Open Source CFD                    |
|  \\    /   O peration     | Version:     5.0                                |
|   \\  /    A nd           | Web:         http://www.foam-extend.org         |
|    \\/     M anipulation  |                                                 |
\*---------------------------------------------------------------------------*/
FoamFile
{
    version     2.0;
    format      ascii;
    class       volScalarField;
    location    "4";
    object      CO2.gas;
}
// * * * * * * * * * * * * * * * * * * * * * * * * * * * * * * * * * * * * * //

dimensions      [0 0 0 0 0 0 0];

internalField   nonuniform List<scalar> 
100
(
0.153862
0.125865
0.120282
0.10881
0.100637
0.101483
0.103067
0.097598
0.0948347
0.0901364
0.0834649
0.0783711
0.0811106
0.0815443
0.0790066
0.0811554
0.076573
0.0734997
0.0718585
0.0699581
0.0676768
0.0691711
0.068421
0.0676393
0.065865
0.0632273
0.0612877
0.0599101
0.0596514
0.0567494
0.0554326
0.0534528
0.05093
0.0450886
0.0404638
0.0323664
0.01183
0.0264714
0.0252052
0.024142
0.0230805
0.0220127
0.0208928
0.0197232
0.0185037
0.0172361
0.0159466
0.014616
0.0132851
0.0119718
0.01067
0.00940422
0.00819394
0.00704131
0.0059745
0.00498802
0.00409045
0.00329151
0.00258847
0.00198428
0.00147643
0.00105983
0.000730351
0.000478688
0.00029586
0.000170682
9.10165e-05
4.45064e-05
2.00036e-05
8.36833e-06
3.35669e-06
1.34166e-06
5.48121e-07
2.29149e-07
9.90562e-08
4.08598e-08
1.63072e-08
6.33993e-09
2.41986e-09
9.11646e-10
3.38399e-10
1.23796e-10
4.47916e-11
1.60308e-11
5.65916e-12
1.97219e-12
6.81028e-13
2.34443e-13
8.10902e-14
2.86756e-14
1.03437e-14
3.78848e-15
1.40579e-15
5.25284e-16
1.97456e-16
7.45795e-17
2.81136e-17
1.06069e-17
4.0031e-18
1.85368e-18
)
;

boundaryField
{
    inlet
    {
        type            fixedValue;
        value           uniform 0.2;
    }
    outlet
    {
        type            zeroGradient;
    }
    yzfaces
    {
        type            empty;
    }
}


// ************************************************************************* //
