/*--------------------------------*- C++ -*----------------------------------*\
| =========                 |                                                 |
| \\      /  F ield         | foam-extend: Open Source CFD                    |
|  \\    /   O peration     | Version:     5.0                                |
|   \\  /    A nd           | Web:         http://www.foam-extend.org         |
|    \\/     M anipulation  |                                                 |
\*---------------------------------------------------------------------------*/
FoamFile
{
    version     2.0;
    format      ascii;
    class       volScalarField;
    location    "4";
    object      CO2.water;
}
// * * * * * * * * * * * * * * * * * * * * * * * * * * * * * * * * * * * * * //

dimensions      [0 0 0 0 0 0 0];

internalField   nonuniform List<scalar> 
100
(
0.0012039
0.00194066
0.00208759
0.00238948
0.00260456
0.00258231
0.00254061
0.00268454
0.00275726
0.0028809
0.00305646
0.00319051
0.00311842
0.00310701
0.00317379
0.00311724
0.00323783
0.00331871
0.00336189
0.00341191
0.00347194
0.00343262
0.00345236
0.00347293
0.00351962
0.00358903
0.00364007
0.00367633
0.00368313
0.0037595
0.00379415
0.00384626
0.00391264
0.00406637
0.00418807
0.00440116
0.00494159
0.000787601
0.000294419
0.000107582
3.91609e-05
1.44514e-05
5.43944e-06
2.09507e-06
8.22639e-07
3.26914e-07
1.30626e-07
5.21162e-08
2.06957e-08
8.14098e-09
3.17422e-09
1.21343e-09
4.52118e-10
1.65741e-10
6.05883e-11
2.21448e-11
7.94157e-12
2.79543e-12
9.73469e-13
3.36753e-13
1.16122e-13
4.02563e-14
1.41481e-14
5.12772e-15
1.91194e-15
7.25862e-16
2.81095e-16
1.10092e-16
4.36146e-17
1.73802e-17
6.94538e-18
2.77044e-18
1.10425e-18
4.38727e-19
1.73914e-19
6.86228e-20
2.69971e-20
1.0567e-20
4.12587e-21
1.60919e-21
6.24663e-22
2.41116e-22
9.28762e-23
3.57056e-23
1.36867e-23
5.22838e-24
1.99214e-24
7.57446e-25
2.87466e-25
1.08977e-25
4.12555e-26
1.55828e-26
5.8816e-27
2.21328e-27
8.32185e-28
3.12978e-28
1.17196e-28
4.38815e-29
1.64342e-29
7.55078e-30
)
;

boundaryField
{
    inlet
    {
        type            fixedValue;
        value           uniform 0;
    }
    outlet
    {
        type            zeroGradient;
    }
    yzfaces
    {
        type            empty;
    }
}


// ************************************************************************* //
