/*--------------------------------*- C++ -*----------------------------------*\
| =========                 |                                                 |
| \\      /  F ield         | foam-extend: Open Source CFD                    |
|  \\    /   O peration     | Version:     5.0                                |
|   \\  /    A nd           | Web:         http://www.foam-extend.org         |
|    \\/     M anipulation  |                                                 |
\*---------------------------------------------------------------------------*/
FoamFile
{
    version     2.0;
    format      ascii;
    class       volScalarField;
    location    "4";
    object      H2O.gas;
}
// * * * * * * * * * * * * * * * * * * * * * * * * * * * * * * * * * * * * * //

dimensions      [0 0 0 0 0 0 0];

internalField   nonuniform List<scalar> 
100
(
0.000300227
0.000245597
0.000234703
0.000212318
0.00019637
0.00019802
0.000201112
0.00019044
0.000185048
0.000175881
0.000162863
0.000152923
0.000158269
0.000159115
0.000154163
0.000158356
0.000149415
0.000143418
0.000140215
0.000136507
0.000132056
0.000134972
0.000133508
0.000131983
0.00012852
0.000123374
0.000119589
0.000116901
0.000116396
0.000110734
0.000108164
0.000104301
9.93783e-05
8.79801e-05
7.89559e-05
6.31557e-05
2.30835e-05
0.000998203
0.00169546
0.00251065
0.00342993
0.00445011
0.00555831
0.00674205
0.00799251
0.00929614
0.0106388
0.0119895
0.0133459
0.0146887
0.0159793
0.0171971
0.0183282
0.019347
0.0202718
0.0210383
0.0216377
0.022078
0.0223022
0.0223147
0.0221
0.0216303
0.0209385
0.0199938
0.0188401
0.0175277
0.01613
0.0147431
0.013486
0.0124198
0.0115983
0.0110244
0.0106332
0.010378
0.0102244
0.0101345
0.0100816
0.0100518
0.0100287
0.0100179
0.010013
0.0100083
0.0100062
0.0100031
0.0100022
0.00999937
0.00999758
0.0099953
0.00999986
0.0100018
0.0100041
0.0100001
0.00999916
0.00999952
0.00998939
0.00999135
0.00999254
0.0100031
0.0100016
0.0099966
)
;

boundaryField
{
    inlet
    {
        type            fixedValue;
        value           uniform 0;
    }
    outlet
    {
        type            zeroGradient;
    }
    yzfaces
    {
        type            empty;
    }
}


// ************************************************************************* //
