/*--------------------------------*- C++ -*----------------------------------*\
| =========                 |                                                 |
| \\      /  F ield         | foam-extend: Open Source CFD                    |
|  \\    /   O peration     | Version:     5.0                                |
|   \\  /    A nd           | Web:         http://www.foam-extend.org         |
|    \\/     M anipulation  |                                                 |
\*---------------------------------------------------------------------------*/
FoamFile
{
    version     2.0;
    format      ascii;
    class       surfaceScalarField;
    location    "4";
    object      phi;
}
// * * * * * * * * * * * * * * * * * * * * * * * * * * * * * * * * * * * * * //

dimensions      [0 3 -1 0 0 0 0];

internalField   nonuniform List<scalar> 
99
(
1.22228e-06
1.22793e-06
1.22118e-06
1.22365e-06
1.22178e-06
1.22462e-06
1.22438e-06
1.22112e-06
1.2227e-06
1.21942e-06
1.22442e-06
1.21847e-06
1.21904e-06
1.21818e-06
1.21726e-06
1.22132e-06
1.22083e-06
1.22048e-06
1.21779e-06
1.2169e-06
1.21434e-06
1.2152e-06
1.21264e-06
1.21626e-06
1.21607e-06
1.21487e-06
1.21443e-06
1.21237e-06
1.21266e-06
1.2135e-06
1.21234e-06
1.20939e-06
1.21114e-06
1.21033e-06
1.2094e-06
1.21001e-06
1.21008e-06
1.21146e-06
1.21229e-06
1.21198e-06
1.21392e-06
1.21331e-06
1.21312e-06
1.21216e-06
1.21105e-06
1.21165e-06
1.21055e-06
1.21215e-06
1.2143e-06
1.21477e-06
1.21394e-06
1.21481e-06
1.21429e-06
1.21569e-06
1.21712e-06
1.21667e-06
1.21839e-06
1.21829e-06
1.21797e-06
1.21679e-06
1.21454e-06
1.21293e-06
1.21104e-06
1.21111e-06
1.21106e-06
1.21235e-06
1.21124e-06
1.20952e-06
1.20901e-06
1.20873e-06
1.2093e-06
1.20953e-06
1.2093e-06
1.2105e-06
1.20899e-06
1.20937e-06
1.20806e-06
1.2078e-06
1.20637e-06
1.20767e-06
1.20758e-06
1.20672e-06
1.20617e-06
1.20644e-06
1.20657e-06
1.20811e-06
1.20804e-06
1.20969e-06
1.21006e-06
1.20933e-06
1.2099e-06
1.20893e-06
1.20945e-06
1.20963e-06
1.20861e-06
1.2079e-06
1.20807e-06
1.20902e-06
1.20936e-06
)
;

boundaryField
{
    inlet
    {
        type            calculated;
        value           uniform -1.225e-06;
    }
    outlet
    {
        type            calculated;
        value           uniform 1.20987e-06;
    }
    yzfaces
    {
        type            empty;
    }
}


// ************************************************************************* //
