/*--------------------------------*- C++ -*----------------------------------*\
| =========                 |                                                 |
| \\      /  F ield         | foam-extend: Open Source CFD                    |
|  \\    /   O peration     | Version:     5.0                                |
|   \\  /    A nd           | Web:         http://www.foam-extend.org         |
|    \\/     M anipulation  |                                                 |
\*---------------------------------------------------------------------------*/
FoamFile
{
    version     2.0;
    format      ascii;
    class       volVectorField;
    location    "4";
    object      U.gas;
}
// * * * * * * * * * * * * * * * * * * * * * * * * * * * * * * * * * * * * * //

dimensions      [0 1 -1 0 0 0 0];

internalField   nonuniform List<vector> 
100
(
(0.00647417 0 0)
(0.00783838 0 0)
(0.00814572 0 0)
(0.00891514 0 0)
(0.00939826 0 0)
(0.00928938 0 0)
(0.00925881 0 0)
(0.00947843 0 0)
(0.00990944 0 0)
(0.0103405 0 0)
(0.0109303 0 0)
(0.0111146 0 0)
(0.0109173 0 0)
(0.0108889 0 0)
(0.0110909 0 0)
(0.0110154 0 0)
(0.0114538 0 0)
(0.011497 0 0)
(0.0117191 0 0)
(0.012056 0 0)
(0.0118849 0 0)
(0.0119072 0 0)
(0.0119413 0 0)
(0.0121399 0 0)
(0.0121938 0 0)
(0.012533 0 0)
(0.0126455 0 0)
(0.0126007 0 0)
(0.0127095 0 0)
(0.012971 0 0)
(0.0129246 0 0)
(0.013137 0 0)
(0.0133802 0 0)
(0.0137699 0 0)
(0.0138152 0 0)
(0.0144006 0 0)
(0.012413 0 0)
(0.0115305 0 0)
(0.0111617 0 0)
(0.0109989 0 0)
(0.0109309 0 0)
(0.0108957 0 0)
(0.0108732 0 0)
(0.0108593 0 0)
(0.0108517 0 0)
(0.0108586 0 0)
(0.010866 0 0)
(0.0108805 0 0)
(0.0109062 0 0)
(0.0109228 0 0)
(0.0109255 0 0)
(0.0109264 0 0)
(0.0109199 0 0)
(0.0109073 0 0)
(0.0108916 0 0)
(0.0108553 0 0)
(0.010808 0 0)
(0.0107383 0 0)
(0.0106388 0 0)
(0.0105046 0 0)
(0.0103243 0 0)
(0.0100976 0 0)
(0.00981127 0 0)
(0.00946767 0 0)
(0.00905384 0 0)
(0.00856978 0 0)
(0.00800609 0 0)
(0.00739122 0 0)
(0.00677015 0 0)
(0.00619373 0 0)
(0.00571004 0 0)
(0.00533501 0 0)
(0.00506607 0 0)
(0.00488571 0 0)
(0.00477008 0 0)
(0.00469601 0 0)
(0.00465091 0 0)
(0.00462288 0 0)
(0.00460411 0 0)
(0.0045941 0 0)
(0.00459115 0 0)
(0.00458594 0 0)
(0.00457945 0 0)
(0.00457796 0 0)
(0.0045786 0 0)
(0.00458275 0 0)
(0.00458502 0 0)
(0.00458761 0 0)
(0.00459122 0 0)
(0.00459139 0 0)
(0.00458977 0 0)
(0.00458863 0 0)
(0.00458823 0 0)
(0.00458989 0 0)
(0.0045869 0 0)
(0.00458542 0 0)
(0.0045851 0 0)
(0.00458811 0 0)
(0.00458977 0 0)
(0.00459077 0 0)
)
;

boundaryField
{
    inlet
    {
        type            fixedValue;
        value           uniform (0.005 0 0);
    }
    outlet
    {
        type            zeroGradient;
    }
    yzfaces
    {
        type            empty;
    }
}


// ************************************************************************* //
