/*--------------------------------*- C++ -*----------------------------------*\
| =========                 |                                                 |
| \\      /  F ield         | foam-extend: Open Source CFD                    |
|  \\    /   O peration     | Version:     5.0                                |
|   \\  /    A nd           | Web:         http://www.foam-extend.org         |
|    \\/     M anipulation  |                                                 |
\*---------------------------------------------------------------------------*/
FoamFile
{
    version     2.0;
    format      ascii;
    class       volVectorField;
    location    "4";
    object      U.water;
}
// * * * * * * * * * * * * * * * * * * * * * * * * * * * * * * * * * * * * * //

dimensions      [0 1 -1 0 0 0 0];

internalField   nonuniform List<vector> 
100
(
(5.50321e-05 0 0)
(0.000164265 0 0)
(0.000273658 0 0)
(0.000346363 0 0)
(0.000455319 0 0)
(0.000512788 0 0)
(0.000504315 0 0)
(0.000511501 0 0)
(0.000566353 0 0)
(0.000656632 0 0)
(0.000773821 0 0)
(0.000891139 0 0)
(0.000928644 0 0)
(0.000909073 0 0)
(0.000917607 0 0)
(0.000945423 0 0)
(0.00097699 0 0)
(0.00105482 0 0)
(0.00110543 0 0)
(0.00119593 0 0)
(0.00126908 0 0)
(0.00126886 0 0)
(0.00127888 0 0)
(0.00131223 0 0)
(0.00136466 0 0)
(0.00143121 0 0)
(0.00154246 0 0)
(0.00161248 0 0)
(0.00165511 0 0)
(0.00173936 0 0)
(0.00183426 0 0)
(0.00191064 0 0)
(0.00205707 0 0)
(0.00229603 0 0)
(0.00262337 0 0)
(0.00312867 0 0)
(0.00368138 0 0)
(0.00389172 0 0)
(0.00397902 0 0)
(0.00401607 0 0)
(0.00403609 0 0)
(0.00404711 0 0)
(0.00404937 0 0)
(0.00404842 0 0)
(0.00404332 0 0)
(0.00403951 0 0)
(0.00403548 0 0)
(0.00403312 0 0)
(0.00403741 0 0)
(0.00404072 0 0)
(0.00403988 0 0)
(0.00404136 0 0)
(0.00404595 0 0)
(0.00405469 0 0)
(0.00407041 0 0)
(0.00408694 0 0)
(0.00410862 0 0)
(0.00413676 0 0)
(0.00416772 0 0)
(0.00420436 0 0)
(0.0042461 0 0)
(0.00429623 0 0)
(0.00435639 0 0)
(0.00442771 0 0)
(0.00450853 0 0)
(0.0045943 0 0)
(0.00467633 0 0)
(0.00474482 0 0)
(0.00480314 0 0)
(0.00485073 0 0)
(0.00488698 0 0)
(0.00491313 0 0)
(0.0049291 0 0)
(0.00494125 0 0)
(0.00494676 0 0)
(0.00494822 0 0)
(0.00494854 0 0)
(0.00494658 0 0)
(0.00494391 0 0)
(0.00494415 0 0)
(0.00494689 0 0)
(0.0049451 0 0)
(0.00494242 0 0)
(0.0049419 0 0)
(0.00494271 0 0)
(0.00494607 0 0)
(0.00494911 0 0)
(0.00495237 0 0)
(0.00495654 0 0)
(0.00495576 0 0)
(0.00495549 0 0)
(0.00495471 0 0)
(0.00495376 0 0)
(0.00495515 0 0)
(0.00495351 0 0)
(0.00494987 0 0)
(0.00494873 0 0)
(0.00495099 0 0)
(0.00495367 0 0)
(0.00495544 0 0)
)
;

boundaryField
{
    inlet
    {
        type            fixedValue;
        value           uniform (0 0 0);
    }
    outlet
    {
        type            zeroGradient;
    }
    yzfaces
    {
        type            empty;
    }
}


// ************************************************************************* //
