/*--------------------------------*- C++ -*----------------------------------*\
| =========                 |                                                 |
| \\      /  F ield         | foam-extend: Open Source CFD                    |
|  \\    /   O peration     | Version:     5.0                                |
|   \\  /    A nd           | Web:         http://www.foam-extend.org         |
|    \\/     M anipulation  |                                                 |
\*---------------------------------------------------------------------------*/
FoamFile
{
    version     2.0;
    format      ascii;
    class       volScalarField;
    location    "40";
    object      alpha.water;
}
// * * * * * * * * * * * * * * * * * * * * * * * * * * * * * * * * * * * * * //

dimensions      [0 0 0 0 0 0 0];

internalField   nonuniform List<scalar> 
100
(
0.0107992
0.0256407
0.037495
0.0366562
0.0345931
0.0347362
0.0358587
0.0360241
0.0376593
0.0442655
0.0507712
0.0517971
0.0513281
0.0519924
0.0515279
0.0497193
0.0489161
0.049024
0.0478887
0.0469521
0.0460367
0.0454406
0.0445097
0.0456376
0.0453567
0.0459427
0.0472481
0.0489044
0.051667
0.0542314
0.0578249
0.0617527
0.0653804
0.0699113
0.0720091
0.0741787
0.0759313
0.0758472
0.0766964
0.0768723
0.0763868
0.0759334
0.0759705
0.0757646
0.0769059
0.0764967
0.0753449
0.0758782
0.0757912
0.0757794
0.0759254
0.0767967
0.0769689
0.0775073
0.076778
0.0764355
0.0775227
0.0771577
0.0771167
0.078366
0.0792173
0.0804641
0.0832007
0.0859841
0.0878469
0.089022
0.0903841
0.0907415
0.0917846
0.092473
0.0934376
0.0944076
0.0954367
0.0964985
0.097425
0.0980329
0.0987122
0.099739
0.100268
0.100742
0.101583
0.102234
0.102842
0.103229
0.103969
0.104407
0.104851
0.104903
0.105563
0.106283
0.106978
0.107691
0.108208
0.108789
0.10938
0.110112
0.1107
0.111171
0.111818
0.111403
)
;

boundaryField
{
    inlet
    {
        type            fixedValue;
        value           uniform 0;
    }
    outlet
    {
        type            zeroGradient;
    }
    yzfaces
    {
        type            empty;
    }
}


// ************************************************************************* //
