/*--------------------------------*- C++ -*----------------------------------*\
| =========                 |                                                 |
| \\      /  F ield         | foam-extend: Open Source CFD                    |
|  \\    /   O peration     | Version:     5.0                                |
|   \\  /    A nd           | Web:         http://www.foam-extend.org         |
|    \\/     M anipulation  |                                                 |
\*---------------------------------------------------------------------------*/
FoamFile
{
    version     2.0;
    format      ascii;
    class       volScalarField;
    location    "40";
    object      alpha.water;
}
// * * * * * * * * * * * * * * * * * * * * * * * * * * * * * * * * * * * * * //

dimensions      [0 0 0 0 0 0 0];

internalField   nonuniform List<scalar> 
100
(
0.0110677
0.0245478
0.0377516
0.0380662
0.0355281
0.0341426
0.035276
0.0362414
0.0383517
0.0436035
0.0509396
0.0529213
0.050753
0.0477175
0.0483708
0.0485981
0.0483291
0.049143
0.049659
0.0483306
0.0469526
0.0451453
0.0454296
0.0451394
0.0459152
0.0460218
0.0460135
0.0490783
0.0526929
0.0560502
0.0592947
0.0643149
0.0670714
0.069157
0.0727442
0.0746724
0.076547
0.0768031
0.0774364
0.076843
0.0761992
0.0769894
0.0774484
0.0771372
0.0771128
0.0770435
0.0772914
0.0777452
0.0770109
0.0761627
0.0751567
0.0744794
0.0749411
0.0752058
0.0755141
0.0754871
0.0759554
0.0760496
0.0765803
0.077273
0.0780961
0.0794976
0.0815084
0.0846902
0.0871139
0.0884724
0.0892083
0.0896944
0.0901334
0.0905146
0.0915189
0.0924063
0.0937494
0.0948616
0.0958777
0.097144
0.098249
0.0991292
0.100042
0.10086
0.1013
0.10208
0.102561
0.103346
0.103998
0.104243
0.104473
0.104823
0.105281
0.105708
0.106045
0.106479
0.106996
0.107522
0.107937
0.109022
0.109974
0.110828
0.111326
0.111614
)
;

boundaryField
{
    inlet
    {
        type            fixedValue;
        value           uniform 0;
    }
    outlet
    {
        type            zeroGradient;
    }
    yzfaces
    {
        type            empty;
    }
}


// ************************************************************************* //
