/*--------------------------------*- C++ -*----------------------------------*\
| =========                 |                                                 |
| \\      /  F ield         | foam-extend: Open Source CFD                    |
|  \\    /   O peration     | Version:     5.0                                |
|   \\  /    A nd           | Web:         http://www.foam-extend.org         |
|    \\/     M anipulation  |                                                 |
\*---------------------------------------------------------------------------*/
FoamFile
{
    version     2.0;
    format      ascii;
    class       volScalarField;
    location    "40";
    object      Cl.water;
}
// * * * * * * * * * * * * * * * * * * * * * * * * * * * * * * * * * * * * * //

dimensions      [0 0 0 0 0 0 0];

internalField   nonuniform List<scalar> 
100
(
0.00208007
0.0012802
0.0017222
0.00413877
0.00648657
0.00712233
0.00740006
0.00804062
0.00842956
0.00880465
0.00964794
0.0110766
0.0113408
0.0110395
0.0112165
0.0119658
0.0121939
0.0121111
0.0123218
0.0129295
0.0127885
0.01262
0.0130428
0.0127074
0.0131083
0.0131159
0.0133017
0.0135227
0.0134765
0.0135829
0.0135073
0.0136017
0.0135809
0.0139484
0.0148765
0.0155527
0.0158304
0.0162709
0.015924
0.0160347
0.0161973
0.016045
0.0159605
0.0158789
0.015676
0.0159722
0.0159915
0.0157775
0.0159457
0.0157153
0.0152414
0.0150983
0.0153402
0.0155802
0.0158813
0.0157738
0.0155674
0.0158165
0.0158953
0.0158585
0.0161666
0.0161123
0.016063
0.0162334
0.0164909
0.0166831
0.0167991
0.0170785
0.0171203
0.0172318
0.0173778
0.0174457
0.0176872
0.0178892
0.0179797
0.0181647
0.0182623
0.0185227
0.0187175
0.0188414
0.0187074
0.0188448
0.0189
0.0192611
0.019476
0.0196644
0.0197672
0.019913
0.0200683
0.0203452
0.0205599
0.020685
0.0209431
0.0211942
0.0213089
0.0214333
0.0215646
0.0216329
0.0215358
0.0221117
)
;

boundaryField
{
    inlet
    {
        type            fixedValue;
        value           uniform 0;
    }
    outlet
    {
        type            zeroGradient;
    }
    yzfaces
    {
        type            empty;
    }
}


// ************************************************************************* //
