/*--------------------------------*- C++ -*----------------------------------*\
| =========                 |                                                 |
| \\      /  F ield         | foam-extend: Open Source CFD                    |
|  \\    /   O peration     | Version:     5.0                                |
|   \\  /    A nd           | Web:         http://www.foam-extend.org         |
|    \\/     M anipulation  |                                                 |
\*---------------------------------------------------------------------------*/
FoamFile
{
    version     2.0;
    format      ascii;
    class       volScalarField;
    location    "40";
    object      Cl.water;
}
// * * * * * * * * * * * * * * * * * * * * * * * * * * * * * * * * * * * * * //

dimensions      [0 0 0 0 0 0 0];

internalField   nonuniform List<scalar> 
100
(
0.00196792
0.0013503
0.00164496
0.00394024
0.00634091
0.00731529
0.00753275
0.00810216
0.00819032
0.00858758
0.00931639
0.010677
0.0117749
0.0127824
0.0122999
0.0120335
0.0120455
0.0115051
0.0115098
0.0122509
0.0128605
0.0132131
0.0128344
0.0130864
0.0129502
0.0129744
0.0134707
0.0134871
0.0134288
0.0136132
0.0138589
0.0138007
0.0144251
0.0146696
0.0148213
0.0151952
0.0156033
0.0156877
0.0157848
0.0161495
0.0160715
0.0157907
0.0155978
0.0157575
0.0155902
0.0154809
0.0153468
0.0154137
0.0158677
0.0160085
0.0164589
0.0164106
0.0161404
0.0161039
0.015906
0.0161201
0.0158749
0.0160009
0.0159542
0.0160634
0.0159513
0.0160426
0.0162964
0.0164406
0.0167415
0.0170256
0.0171185
0.0172086
0.0171744
0.0173038
0.017345
0.0174179
0.0175175
0.0175938
0.0177826
0.0180043
0.0182735
0.0184479
0.0186674
0.0187691
0.018896
0.0190633
0.0192926
0.0194344
0.0195779
0.019812
0.0198193
0.019909
0.0198857
0.0201064
0.0202633
0.0203233
0.0203521
0.0204363
0.0205676
0.0206295
0.0207172
0.020952
0.0212618
0.0217228
)
;

boundaryField
{
    inlet
    {
        type            fixedValue;
        value           uniform 0;
    }
    outlet
    {
        type            zeroGradient;
    }
    yzfaces
    {
        type            empty;
    }
}


// ************************************************************************* //
