/*--------------------------------*- C++ -*----------------------------------*\
| =========                 |                                                 |
| \\      /  F ield         | foam-extend: Open Source CFD                    |
|  \\    /   O peration     | Version:     5.0                                |
|   \\  /    A nd           | Web:         http://www.foam-extend.org         |
|    \\/     M anipulation  |                                                 |
\*---------------------------------------------------------------------------*/
FoamFile
{
    version     2.0;
    format      ascii;
    class       volScalarField;
    location    "40";
    object      CO2.water;
}
// * * * * * * * * * * * * * * * * * * * * * * * * * * * * * * * * * * * * * //

dimensions      [0 0 0 0 0 0 0];

internalField   nonuniform List<scalar> 
100
(
0.000283636
0.000673441
0.000984789
0.000962759
0.000908573
0.000912331
0.000941812
0.000946158
0.000989105
0.00116261
0.00133348
0.00136043
0.00134811
0.00136556
0.00135336
0.00130585
0.00128476
0.00128759
0.00125777
0.00123317
0.00120913
0.00119348
0.00116903
0.00119865
0.00119127
0.00120666
0.00124095
0.00128445
0.00135701
0.00142436
0.00151874
0.00162191
0.00171719
0.00183619
0.00189129
0.00194827
0.0019943
0.00199209
0.0020144
0.00201902
0.00200626
0.00199436
0.00199533
0.00198992
0.0020199
0.00200915
0.0019789
0.00199291
0.00199062
0.00199031
0.00199415
0.00201703
0.00202155
0.00203569
0.00201654
0.00200754
0.0020361
0.00202651
0.00202543
0.00205825
0.0020806
0.00211335
0.00218523
0.00225833
0.00230726
0.00233812
0.0023739
0.00238328
0.00241068
0.00242876
0.0024541
0.00247957
0.0025066
0.00253449
0.00255882
0.00257479
0.00259263
0.0026196
0.00263349
0.00264595
0.00266802
0.00268512
0.00270109
0.00271126
0.00273069
0.00274221
0.00275387
0.00275522
0.00277255
0.00279148
0.00280973
0.00282844
0.00284204
0.00285729
0.00287283
0.00289204
0.00290749
0.00291986
0.00293684
0.00292594
)
;

boundaryField
{
    inlet
    {
        type            fixedValue;
        value           uniform 0;
    }
    outlet
    {
        type            zeroGradient;
    }
    yzfaces
    {
        type            empty;
    }
}


// ************************************************************************* //
