/*--------------------------------*- C++ -*----------------------------------*\
| =========                 |                                                 |
| \\      /  F ield         | foam-extend: Open Source CFD                    |
|  \\    /   O peration     | Version:     5.0                                |
|   \\  /    A nd           | Web:         http://www.foam-extend.org         |
|    \\/     M anipulation  |                                                 |
\*---------------------------------------------------------------------------*/
FoamFile
{
    version     2.0;
    format      ascii;
    class       volScalarField;
    location    "40";
    object      CO2.water;
}
// * * * * * * * * * * * * * * * * * * * * * * * * * * * * * * * * * * * * * //

dimensions      [0 0 0 0 0 0 0];

internalField   nonuniform List<scalar> 
100
(
0.000290689
0.000644736
0.000991528
0.000999792
0.00093313
0.00089674
0.000926507
0.000951863
0.00100729
0.00114522
0.00133791
0.00138995
0.001333
0.00125328
0.00127044
0.00127641
0.00126934
0.00129072
0.00130427
0.00126938
0.00123319
0.00118572
0.00119319
0.00118557
0.00120594
0.00120874
0.00120852
0.00128902
0.00138396
0.00147213
0.00155735
0.0016892
0.0017616
0.00181638
0.00191059
0.00196124
0.00201047
0.0020172
0.00203383
0.00201825
0.00200134
0.00202209
0.00203415
0.00202597
0.00202533
0.00202351
0.00203002
0.00204194
0.00202265
0.00200038
0.00197396
0.00195617
0.00196829
0.00197525
0.00198334
0.00198263
0.00199493
0.00199741
0.00201135
0.00202954
0.00205116
0.00208797
0.00214078
0.00222435
0.00228801
0.00232369
0.00234302
0.00235578
0.00236731
0.00237733
0.0024037
0.00242701
0.00246228
0.0024915
0.00251818
0.00255144
0.00258047
0.00260358
0.00262756
0.00264903
0.0026606
0.00268108
0.00269372
0.00271435
0.00273146
0.00273788
0.00274395
0.00275313
0.00276516
0.00277636
0.00278522
0.00279662
0.0028102
0.00282402
0.00283492
0.00286342
0.00288841
0.00291085
0.00292394
0.00293149
)
;

boundaryField
{
    inlet
    {
        type            fixedValue;
        value           uniform 0;
    }
    outlet
    {
        type            zeroGradient;
    }
    yzfaces
    {
        type            empty;
    }
}


// ************************************************************************* //
