/*--------------------------------*- C++ -*----------------------------------*\
| =========                 |                                                 |
| \\      /  F ield         | foam-extend: Open Source CFD                    |
|  \\    /   O peration     | Version:     5.0                                |
|   \\  /    A nd           | Web:         http://www.foam-extend.org         |
|    \\/     M anipulation  |                                                 |
\*---------------------------------------------------------------------------*/
FoamFile
{
    version     2.0;
    format      ascii;
    class       volScalarField;
    location    "40";
    object      CO2.gas;
}
// * * * * * * * * * * * * * * * * * * * * * * * * * * * * * * * * * * * * * //

dimensions      [0 0 0 0 0 0 0];

internalField   nonuniform List<scalar> 
100
(
0.188564
0.175111
0.161932
0.161618
0.164152
0.165534
0.164403
0.16344
0.161333
0.156092
0.14877
0.146792
0.148956
0.151986
0.151334
0.151107
0.151376
0.150563
0.150048
0.151374
0.152749
0.154553
0.154269
0.154559
0.153785
0.153678
0.153687
0.150628
0.14702
0.143669
0.140431
0.135421
0.13267
0.130588
0.127008
0.125083
0.123213
0.122957
0.122325
0.122917
0.12356
0.122771
0.122313
0.122624
0.122648
0.122717
0.12247
0.122017
0.12275
0.123596
0.1246
0.125276
0.124815
0.124551
0.124243
0.12427
0.123803
0.123709
0.123179
0.122488
0.121666
0.120268
0.118261
0.115085
0.112666
0.11131
0.110576
0.110091
0.109653
0.109272
0.10827
0.107384
0.106044
0.104934
0.103919
0.102656
0.101553
0.100674
0.0997632
0.0989473
0.0985076
0.0977296
0.097249
0.0964653
0.095815
0.0955709
0.0953406
0.0949917
0.0945344
0.0941089
0.0937723
0.0933388
0.0928227
0.0922978
0.0918834
0.0908006
0.0898511
0.0889981
0.0885009
0.0882138
)
;

boundaryField
{
    inlet
    {
        type            fixedValue;
        value           uniform 0.2;
    }
    outlet
    {
        type            zeroGradient;
    }
    yzfaces
    {
        type            empty;
    }
}


// ************************************************************************* //
