/*--------------------------------*- C++ -*----------------------------------*\
| =========                 |                                                 |
| \\      /  F ield         | foam-extend: Open Source CFD                    |
|  \\    /   O peration     | Version:     5.0                                |
|   \\  /    A nd           | Web:         http://www.foam-extend.org         |
|    \\/     M anipulation  |                                                 |
\*---------------------------------------------------------------------------*/
FoamFile
{
    version     2.0;
    format      ascii;
    class       volScalarField;
    location    "40";
    object      H2O.water;
}
// * * * * * * * * * * * * * * * * * * * * * * * * * * * * * * * * * * * * * //

dimensions      [0 0 0 0 0 0 0];

internalField   nonuniform List<scalar> 
100
(
0.0063555
0.0224067
0.0330655
0.0274127
0.0207074
0.0195773
0.0201123
0.0189955
0.0198034
0.0254837
0.0301391
0.0282823
0.0272965
0.0285405
0.027731
0.0244696
0.0232392
0.0235076
0.0219864
0.019856
0.0192431
0.0189998
0.0172446
0.0190265
0.017963
0.0185222
0.0194153
0.0205802
0.0233626
0.0256562
0.0293068
0.0329374
0.0365083
0.0401836
0.0403651
0.0411229
0.0422732
0.0413197
0.0428292
0.0427849
0.0419848
0.0418493
0.0420609
0.0420234
0.0435408
0.0425453
0.0413794
0.0423248
0.0419244
0.0423732
0.0434619
0.044607
0.0442718
0.044314
0.0429907
0.0428765
0.0443462
0.0434944
0.0432859
0.0445758
0.0447977
0.0461128
0.0488711
0.0512479
0.0525529
0.0533083
0.0544072
0.0542058
0.0551409
0.0555764
0.0562203
0.0570289
0.0575565
0.0581857
0.0589037
0.0591213
0.0596036
0.0600843
0.0602173
0.0604277
0.0615102
0.0618855
0.0623493
0.0620019
0.062291
0.0623281
0.0625652
0.0623317
0.0626575
0.0628054
0.0630408
0.0634864
0.0634854
0.0635643
0.0639122
0.064373
0.0646697
0.0649952
0.065825
0.0642712
)
;

boundaryField
{
    inlet
    {
        type            fixedValue;
        value           uniform 0;
    }
    outlet
    {
        type            zeroGradient;
    }
    yzfaces
    {
        type            empty;
    }
}


// ************************************************************************* //
