/*--------------------------------*- C++ -*----------------------------------*\
| =========                 |                                                 |
| \\      /  F ield         | foam-extend: Open Source CFD                    |
|  \\    /   O peration     | Version:     5.0                                |
|   \\  /    A nd           | Web:         http://www.foam-extend.org         |
|    \\/     M anipulation  |                                                 |
\*---------------------------------------------------------------------------*/
FoamFile
{
    version     2.0;
    format      ascii;
    class       volScalarField;
    location    "40";
    object      H2O.gas;
}
// * * * * * * * * * * * * * * * * * * * * * * * * * * * * * * * * * * * * * //

dimensions      [0 0 0 0 0 0 0];

internalField   nonuniform List<scalar> 
100
(
0.00036794
0.000341688
0.000315974
0.000315361
0.000320304
0.000323002
0.000320795
0.000318915
0.000314805
0.000304578
0.000290291
0.000286432
0.000290654
0.000296566
0.000295293
0.000294851
0.000295375
0.00029379
0.000292785
0.000295372
0.000298055
0.000301575
0.000301021
0.000301586
0.000300076
0.000299868
0.000299884
0.000293916
0.000286876
0.000280338
0.000274019
0.000264243
0.000258875
0.000254813
0.000247827
0.000244072
0.000240421
0.000239922
0.000238689
0.000239845
0.000241098
0.00023956
0.000238666
0.000239272
0.000239319
0.000239454
0.000238971
0.000238088
0.000239518
0.000241169
0.000243129
0.000244448
0.000243549
0.000243033
0.000242433
0.000242485
0.000241573
0.00024139
0.000240356
0.000239007
0.000237404
0.000234675
0.000230759
0.000224563
0.000219842
0.000217197
0.000215764
0.000214817
0.000213962
0.00021322
0.000211264
0.000209536
0.00020692
0.000204754
0.000202775
0.000200309
0.000198157
0.000196443
0.000194665
0.000193073
0.000192215
0.000190697
0.000189759
0.00018823
0.000186961
0.000186485
0.000186035
0.000185354
0.000184462
0.000183632
0.000182975
0.000182129
0.000181122
0.000180098
0.000179289
0.000177177
0.000175324
0.000173659
0.000172689
0.000172129
)
;

boundaryField
{
    inlet
    {
        type            fixedValue;
        value           uniform 0;
    }
    outlet
    {
        type            zeroGradient;
    }
    yzfaces
    {
        type            empty;
    }
}


// ************************************************************************* //
