/*--------------------------------*- C++ -*----------------------------------*\
| =========                 |                                                 |
| \\      /  F ield         | foam-extend: Open Source CFD                    |
|  \\    /   O peration     | Version:     5.0                                |
|   \\  /    A nd           | Web:         http://www.foam-extend.org         |
|    \\/     M anipulation  |                                                 |
\*---------------------------------------------------------------------------*/
FoamFile
{
    version     2.0;
    format      ascii;
    class       volScalarField;
    location    "40";
    object      H2O.water;
}
// * * * * * * * * * * * * * * * * * * * * * * * * * * * * * * * * * * * * * //

dimensions      [0 0 0 0 0 0 0];

internalField   nonuniform List<scalar> 
100
(
0.00684229
0.0212024
0.0334692
0.0291853
0.0219136
0.0186158
0.0192803
0.0190775
0.0209571
0.0252691
0.0309497
0.0301561
0.0258529
0.0208925
0.0224962
0.0232465
0.0229704
0.0248443
0.0253299
0.0225587
0.0200067
0.0175399
0.0185838
0.017789
0.0188143
0.0188711
0.0178654
0.0208121
0.0244562
0.0273497
0.0300068
0.035013
0.0364446
0.0379855
0.0411695
0.0423117
0.0433218
0.0434193
0.0438469
0.0425425
0.0420715
0.0433989
0.0442371
0.0436164
0.0439242
0.0440618
0.0445559
0.0448628
0.0432435
0.0421448
0.0402651
0.0397033
0.0406976
0.0410354
0.0417228
0.0412777
0.0422281
0.0420608
0.0426749
0.0431427
0.0441696
0.0453652
0.0468115
0.0496218
0.0513724
0.0521195
0.0526471
0.0529351
0.0534179
0.0535349
0.0544346
0.0551481
0.0562469
0.057167
0.0577821
0.0585898
0.0591391
0.0596443
0.0600925
0.0606928
0.0608687
0.0613012
0.0613059
0.0617899
0.062137
0.0619031
0.0620968
0.062264
0.0627575
0.0627291
0.0627522
0.0630568
0.0635148
0.0638648
0.0639886
0.0649177
0.0656678
0.0660258
0.0659078
0.065256
)
;

boundaryField
{
    inlet
    {
        type            fixedValue;
        value           uniform 0;
    }
    outlet
    {
        type            zeroGradient;
    }
    yzfaces
    {
        type            empty;
    }
}


// ************************************************************************* //
