/*--------------------------------*- C++ -*----------------------------------*\
| =========                 |                                                 |
| \\      /  F ield         | foam-extend: Open Source CFD                    |
|  \\    /   O peration     | Version:     5.0                                |
|   \\  /    A nd           | Web:         http://www.foam-extend.org         |
|    \\/     M anipulation  |                                                 |
\*---------------------------------------------------------------------------*/
FoamFile
{
    version     2.0;
    format      ascii;
    class       volScalarField;
    location    "40";
    object      H2O.gas;
}
// * * * * * * * * * * * * * * * * * * * * * * * * * * * * * * * * * * * * * //

dimensions      [0 0 0 0 0 0 0];

internalField   nonuniform List<scalar> 
100
(
0.000368463
0.00033956
0.000316474
0.000318107
0.000322125
0.000321846
0.00031966
0.000319338
0.000316154
0.000303288
0.000290619
0.000288621
0.000289534
0.00028824
0.000289145
0.000292667
0.000294231
0.000294021
0.000296232
0.000298056
0.000299839
0.000301
0.000302813
0.000300616
0.000301163
0.000300022
0.00029748
0.000294254
0.000288874
0.00028388
0.000276882
0.000269233
0.000262168
0.000253344
0.000249259
0.000245033
0.00024162
0.000241784
0.00024013
0.000239788
0.000240733
0.000241616
0.000241544
0.000241945
0.000239722
0.000240519
0.000242762
0.000241724
0.000241893
0.000241916
0.000241632
0.000239935
0.0002396
0.000238551
0.000239971
0.000240638
0.000238521
0.000239232
0.000239312
0.000236879
0.000235221
0.000232793
0.000227463
0.000222043
0.000218415
0.000216126
0.000213474
0.000212778
0.000210746
0.000209406
0.000207527
0.000205638
0.000203634
0.000201566
0.000199762
0.000198578
0.000197255
0.000195255
0.000194226
0.000193302
0.000191665
0.000190397
0.000189213
0.000188459
0.000187018
0.000186164
0.000185299
0.000185199
0.000183914
0.000182511
0.000181157
0.00017977
0.000178761
0.000177631
0.000176479
0.000175054
0.000173909
0.000172992
0.000171732
0.000172541
)
;

boundaryField
{
    inlet
    {
        type            fixedValue;
        value           uniform 0;
    }
    outlet
    {
        type            zeroGradient;
    }
    yzfaces
    {
        type            empty;
    }
}


// ************************************************************************* //
