/*--------------------------------*- C++ -*----------------------------------*\
| =========                 |                                                 |
| \\      /  F ield         | foam-extend: Open Source CFD                    |
|  \\    /   O peration     | Version:     5.0                                |
|   \\  /    A nd           | Web:         http://www.foam-extend.org         |
|    \\/     M anipulation  |                                                 |
\*---------------------------------------------------------------------------*/
FoamFile
{
    version     2.0;
    format      ascii;
    class       volScalarField;
    location    "40";
    object      Na.water;
}
// * * * * * * * * * * * * * * * * * * * * * * * * * * * * * * * * * * * * * //

dimensions      [0 0 0 0 0 0 0];

internalField   nonuniform List<scalar> 
100
(
0.00207997
0.0012804
0.00172257
0.004142
0.00649063
0.00712424
0.00740448
0.00804186
0.00843722
0.00881457
0.00965072
0.0110777
0.0113427
0.0110469
0.011227
0.011978
0.0121982
0.0121177
0.0123227
0.0129334
0.0127959
0.0126272
0.0130533
0.012705
0.0130942
0.0130979
0.0132901
0.0135171
0.013471
0.013568
0.013492
0.0135917
0.013574
0.0139431
0.0148763
0.0155548
0.0158334
0.0162645
0.0159289
0.0160337
0.0161984
0.0160448
0.0159537
0.0158724
0.0156691
0.0159701
0.0159952
0.015783
0.0159305
0.0157005
0.015228
0.0150744
0.0153353
0.0155773
0.0158894
0.0157777
0.015573
0.0158203
0.0159101
0.0158734
0.0161724
0.0161257
0.0160814
0.0162444
0.0164959
0.0166924
0.0168039
0.0170739
0.0171128
0.017236
0.0173853
0.0174535
0.0176864
0.0178891
0.0179828
0.0181721
0.0182536
0.0185123
0.0186995
0.018827
0.0186971
0.0188183
0.0188913
0.0192548
0.0194711
0.0196725
0.0197649
0.0199028
0.0200641
0.0203412
0.0205678
0.0206907
0.0209379
0.0211729
0.0212865
0.0214136
0.0215583
0.0216231
0.0215202
0.0220938
)
;

boundaryField
{
    inlet
    {
        type            fixedValue;
        value           uniform 0;
    }
    outlet
    {
        type            zeroGradient;
    }
    yzfaces
    {
        type            empty;
    }
}


// ************************************************************************* //
