/*--------------------------------*- C++ -*----------------------------------*\
| =========                 |                                                 |
| \\      /  F ield         | foam-extend: Open Source CFD                    |
|  \\    /   O peration     | Version:     5.0                                |
|   \\  /    A nd           | Web:         http://www.foam-extend.org         |
|    \\/     M anipulation  |                                                 |
\*---------------------------------------------------------------------------*/
FoamFile
{
    version     2.0;
    format      ascii;
    class       volScalarField;
    location    "40";
    object      Na.water;
}
// * * * * * * * * * * * * * * * * * * * * * * * * * * * * * * * * * * * * * //

dimensions      [0 0 0 0 0 0 0];

internalField   nonuniform List<scalar> 
100
(
0.00196684
0.0013503
0.00164588
0.00394087
0.0063405
0.00731476
0.00753638
0.00810991
0.00819699
0.00860156
0.00933567
0.0106982
0.0117923
0.0127894
0.0123043
0.0120417
0.0120439
0.0115029
0.011515
0.0122517
0.0128523
0.0132066
0.0128181
0.0130785
0.0129447
0.0129675
0.0134688
0.0134901
0.0134239
0.0136152
0.0138717
0.013812
0.0144401
0.0146856
0.0148428
0.0152043
0.0156114
0.0156789
0.0157709
0.0161328
0.0160548
0.0157777
0.0155793
0.0157373
0.0155731
0.0154772
0.0153587
0.0154267
0.015877
0.0160091
0.0164586
0.0164093
0.0161348
0.0160913
0.015902
0.0161067
0.0158575
0.0159905
0.0159398
0.0160375
0.015924
0.0160019
0.0162597
0.0164034
0.016712
0.0170036
0.0170997
0.0171949
0.0171738
0.0172987
0.0173356
0.0174133
0.0175227
0.0176093
0.0177949
0.0179985
0.018256
0.0184335
0.0186546
0.0187488
0.0188749
0.0190342
0.0192691
0.0194078
0.0195517
0.0197896
0.0198133
0.0198969
0.0198728
0.0200956
0.020244
0.0203022
0.0203191
0.020397
0.0205461
0.0206115
0.0207002
0.0209396
0.0212328
0.0217038
)
;

boundaryField
{
    inlet
    {
        type            fixedValue;
        value           uniform 0;
    }
    outlet
    {
        type            zeroGradient;
    }
    yzfaces
    {
        type            empty;
    }
}


// ************************************************************************* //
