/*--------------------------------*- C++ -*----------------------------------*\
| =========                 |                                                 |
| \\      /  F ield         | foam-extend: Open Source CFD                    |
|  \\    /   O peration     | Version:     5.0                                |
|   \\  /    A nd           | Web:         http://www.foam-extend.org         |
|    \\/     M anipulation  |                                                 |
\*---------------------------------------------------------------------------*/
FoamFile
{
    version     2.0;
    format      ascii;
    class       surfaceScalarField;
    location    "40";
    object      phi;
}
// * * * * * * * * * * * * * * * * * * * * * * * * * * * * * * * * * * * * * //

dimensions      [0 3 -1 0 0 0 0];

internalField   nonuniform List<scalar> 
99
(
1.22005e-06
1.23195e-06
1.23565e-06
1.23431e-06
1.23603e-06
1.22834e-06
1.23049e-06
1.23061e-06
1.21736e-06
1.22108e-06
1.22544e-06
1.21682e-06
1.21823e-06
1.22092e-06
1.21613e-06
1.21566e-06
1.22121e-06
1.22227e-06
1.22976e-06
1.22535e-06
1.23494e-06
1.22879e-06
1.22322e-06
1.22838e-06
1.2138e-06
1.22345e-06
1.2298e-06
1.21083e-06
1.21036e-06
1.20479e-06
1.18513e-06
1.18056e-06
1.175e-06
1.17688e-06
1.1567e-06
1.16453e-06
1.16104e-06
1.15971e-06
1.16522e-06
1.16846e-06
1.16753e-06
1.15945e-06
1.15935e-06
1.15594e-06
1.16939e-06
1.17642e-06
1.17268e-06
1.17885e-06
1.18263e-06
1.18729e-06
1.19021e-06
1.19647e-06
1.20463e-06
1.20242e-06
1.20638e-06
1.20305e-06
1.2075e-06
1.21585e-06
1.22098e-06
1.2258e-06
1.2169e-06
1.20571e-06
1.19739e-06
1.18346e-06
1.17604e-06
1.18007e-06
1.18458e-06
1.182e-06
1.18389e-06
1.18244e-06
1.17151e-06
1.17037e-06
1.17333e-06
1.17492e-06
1.17574e-06
1.17195e-06
1.17012e-06
1.17196e-06
1.17457e-06
1.17101e-06
1.17128e-06
1.17764e-06
1.17541e-06
1.16744e-06
1.17096e-06
1.17219e-06
1.17474e-06
1.17064e-06
1.17118e-06
1.17064e-06
1.1708e-06
1.17326e-06
1.16847e-06
1.16598e-06
1.1686e-06
1.17151e-06
1.16489e-06
1.1621e-06
1.16502e-06
)
;

boundaryField
{
    inlet
    {
        type            calculated;
        value           uniform -1.225e-06;
    }
    outlet
    {
        type            calculated;
        value           uniform 1.16048e-06;
    }
    yzfaces
    {
        type            empty;
    }
}


// ************************************************************************* //
