/*--------------------------------*- C++ -*----------------------------------*\
| =========                 |                                                 |
| \\      /  F ield         | foam-extend: Open Source CFD                    |
|  \\    /   O peration     | Version:     5.0                                |
|   \\  /    A nd           | Web:         http://www.foam-extend.org         |
|    \\/     M anipulation  |                                                 |
\*---------------------------------------------------------------------------*/
FoamFile
{
    version     2.0;
    format      ascii;
    class       surfaceScalarField;
    location    "40";
    object      phi;
}
// * * * * * * * * * * * * * * * * * * * * * * * * * * * * * * * * * * * * * //

dimensions      [0 3 -1 0 0 0 0];

internalField   nonuniform List<scalar> 
99
(
1.22216e-06
1.22663e-06
1.24675e-06
1.25101e-06
1.24065e-06
1.23829e-06
1.2366e-06
1.23562e-06
1.23245e-06
1.23577e-06
1.24636e-06
1.26115e-06
1.24601e-06
1.24235e-06
1.24771e-06
1.27045e-06
1.2755e-06
1.267e-06
1.28289e-06
1.27301e-06
1.26617e-06
1.26949e-06
1.26224e-06
1.26715e-06
1.26708e-06
1.25253e-06
1.23254e-06
1.21005e-06
1.2066e-06
1.19425e-06
1.18327e-06
1.18822e-06
1.18805e-06
1.18498e-06
1.19786e-06
1.20669e-06
1.21242e-06
1.20236e-06
1.19103e-06
1.18456e-06
1.16725e-06
1.1554e-06
1.14931e-06
1.13789e-06
1.12838e-06
1.12328e-06
1.11262e-06
1.09869e-06
1.08841e-06
1.07788e-06
1.06189e-06
1.04363e-06
1.02553e-06
1.01929e-06
1.00745e-06
9.92038e-07
9.78969e-07
9.72637e-07
9.64639e-07
9.38104e-07
9.30561e-07
9.23776e-07
9.12885e-07
9.07783e-07
9.06361e-07
9.10805e-07
9.0758e-07
9.06711e-07
9.11747e-07
9.09883e-07
9.16568e-07
9.16008e-07
9.20814e-07
9.15377e-07
9.168e-07
9.23459e-07
9.23451e-07
9.21608e-07
9.2169e-07
9.22424e-07
9.23932e-07
9.2589e-07
9.23102e-07
9.27807e-07
9.32193e-07
9.3927e-07
9.39236e-07
9.39138e-07
9.47144e-07
9.47592e-07
9.51087e-07
9.50199e-07
9.5627e-07
9.61228e-07
9.60829e-07
9.69212e-07
9.73619e-07
9.76114e-07
9.77907e-07
)
;

boundaryField
{
    inlet
    {
        type            calculated;
        value           uniform -1.225e-06;
    }
    outlet
    {
        type            calculated;
        value           uniform 9.63746e-07;
    }
    yzfaces
    {
        type            empty;
    }
}


// ************************************************************************* //
