/*--------------------------------*- C++ -*----------------------------------*\
| =========                 |                                                 |
| \\      /  F ield         | foam-extend: Open Source CFD                    |
|  \\    /   O peration     | Version:     5.0                                |
|   \\  /    A nd           | Web:         http://www.foam-extend.org         |
|    \\/     M anipulation  |                                                 |
\*---------------------------------------------------------------------------*/
FoamFile
{
    version     2.0;
    format      ascii;
    class       surfaceScalarField;
    location    "40";
    object      phi.water;
}
// * * * * * * * * * * * * * * * * * * * * * * * * * * * * * * * * * * * * * //

dimensions      [0 3 -1 0 0 0 0];

internalField   nonuniform List<scalar> 
99
(
1.23753e-08
4.77557e-08
1.006e-07
9.92914e-08
8.83745e-08
8.71332e-08
9.24193e-08
9.11484e-08
9.05614e-08
1.1714e-07
1.56298e-07
1.62758e-07
1.58578e-07
1.64157e-07
1.62484e-07
1.52741e-07
1.47561e-07
1.49772e-07
1.45371e-07
1.40367e-07
1.36293e-07
1.3339e-07
1.25813e-07
1.33544e-07
1.29642e-07
1.32267e-07
1.37918e-07
1.42198e-07
1.56278e-07
1.67335e-07
1.8418e-07
2.07837e-07
2.29022e-07
2.66865e-07
2.79971e-07
3.00132e-07
3.1863e-07
3.15593e-07
3.25931e-07
3.29986e-07
3.25956e-07
3.18122e-07
3.1899e-07
3.14083e-07
3.32096e-07
3.30539e-07
3.15745e-07
3.23036e-07
3.23467e-07
3.24671e-07
3.24797e-07
3.36341e-07
3.38555e-07
3.46622e-07
3.39478e-07
3.33478e-07
3.48753e-07
3.4578e-07
3.43941e-07
3.58456e-07
3.6292e-07
3.70018e-07
3.95482e-07
4.25717e-07
4.48594e-07
4.64148e-07
4.86189e-07
4.88771e-07
5.05015e-07
5.12986e-07
5.21659e-07
5.35976e-07
5.52932e-07
5.70804e-07
5.86839e-07
5.94683e-07
6.03274e-07
6.23836e-07
6.3428e-07
6.39728e-07
6.56367e-07
6.72058e-07
6.82141e-07
6.85228e-07
7.02606e-07
7.12071e-07
7.23418e-07
7.19226e-07
7.33383e-07
7.47822e-07
7.62227e-07
7.80081e-07
7.87972e-07
7.99375e-07
8.14526e-07
8.32251e-07
8.42039e-07
8.50969e-07
8.73498e-07
)
;

boundaryField
{
    inlet
    {
        type            fixedValue;
        value           uniform 0;
    }
    outlet
    {
        type            calculated;
        value           uniform 8.61138e-07;
    }
    yzfaces
    {
        type            empty;
    }
}


// ************************************************************************* //
