/*--------------------------------*- C++ -*----------------------------------*\
| =========                 |                                                 |
| \\      /  F ield         | foam-extend: Open Source CFD                    |
|  \\    /   O peration     | Version:     5.0                                |
|   \\  /    A nd           | Web:         http://www.foam-extend.org         |
|    \\/     M anipulation  |                                                 |
\*---------------------------------------------------------------------------*/
FoamFile
{
    version     2.0;
    format      ascii;
    class       volVectorField;
    location    "40";
    object      U.gas;
}
// * * * * * * * * * * * * * * * * * * * * * * * * * * * * * * * * * * * * * //

dimensions      [0 1 -1 0 0 0 0];

internalField   nonuniform List<vector> 
100
(
(0.00528625 0 0)
(0.00569303 0 0)
(0.00620916 0 0)
(0.00627624 0 0)
(0.00616563 0 0)
(0.00608512 0 0)
(0.00611709 0 0)
(0.00614538 0 0)
(0.00621332 0 0)
(0.00641713 0 0)
(0.00675932 0 0)
(0.00691038 0 0)
(0.00680919 0 0)
(0.00662924 0 0)
(0.00666506 0 0)
(0.00674948 0 0)
(0.00681193 0 0)
(0.00683874 0 0)
(0.00688066 0 0)
(0.0068374 0 0)
(0.00673432 0 0)
(0.0066496 0 0)
(0.00665295 0 0)
(0.00663434 0 0)
(0.00668004 0 0)
(0.00664526 0 0)
(0.00655377 0 0)
(0.00656954 0 0)
(0.00665199 0 0)
(0.0067539 0 0)
(0.00683284 0 0)
(0.00705308 0 0)
(0.00719847 0 0)
(0.00729217 0 0)
(0.00751324 0 0)
(0.00768221 0 0)
(0.00783356 0 0)
(0.00782834 0 0)
(0.00779614 0 0)
(0.00770077 0 0)
(0.00758812 0 0)
(0.00754164 0 0)
(0.00750742 0 0)
(0.00743114 0 0)
(0.00736303 0 0)
(0.00731195 0 0)
(0.0072745 0 0)
(0.0072187 0 0)
(0.00709807 0 0)
(0.00698739 0 0)
(0.00685172 0 0)
(0.00671084 0 0)
(0.00662011 0 0)
(0.00655399 0 0)
(0.00651055 0 0)
(0.00642105 0 0)
(0.00635195 0 0)
(0.00629215 0 0)
(0.00627114 0 0)
(0.00619116 0 0)
(0.00611707 0 0)
(0.00613363 0 0)
(0.00616735 0 0)
(0.00626413 0 0)
(0.0063543 0 0)
(0.00642652 0 0)
(0.00646468 0 0)
(0.00647299 0 0)
(0.00650875 0 0)
(0.00653886 0 0)
(0.00660969 0 0)
(0.00667633 0 0)
(0.00676446 0 0)
(0.00681994 0 0)
(0.00685861 0 0)
(0.00695861 0 0)
(0.00704291 0 0)
(0.00708326 0 0)
(0.00712801 0 0)
(0.00717674 0 0)
(0.00720817 0 0)
(0.00726896 0 0)
(0.00729053 0 0)
(0.0073459 0 0)
(0.00741891 0 0)
(0.00747525 0 0)
(0.00751748 0 0)
(0.00753875 0 0)
(0.00759865 0 0)
(0.0076592 0 0)
(0.00769509 0 0)
(0.00773324 0 0)
(0.00778644 0 0)
(0.0078645 0 0)
(0.00790915 0 0)
(0.00801818 0 0)
(0.00813076 0 0)
(0.00821583 0 0)
(0.0082634 0 0)
(0.00822629 0 0)
)
;

boundaryField
{
    inlet
    {
        type            fixedValue;
        value           uniform (0.005 0 0);
    }
    outlet
    {
        type            zeroGradient;
    }
    yzfaces
    {
        type            empty;
    }
}


// ************************************************************************* //
