/*--------------------------------*- C++ -*----------------------------------*\
| =========                 |                                                 |
| \\      /  F ield         | foam-extend: Open Source CFD                    |
|  \\    /   O peration     | Version:     5.0                                |
|   \\  /    A nd           | Web:         http://www.foam-extend.org         |
|    \\/     M anipulation  |                                                 |
\*---------------------------------------------------------------------------*/
FoamFile
{
    version     2.0;
    format      ascii;
    class       volVectorField;
    location    "40";
    object      U.gas;
}
// * * * * * * * * * * * * * * * * * * * * * * * * * * * * * * * * * * * * * //

dimensions      [0 1 -1 0 0 0 0];

internalField   nonuniform List<vector> 
100
(
(0.00527423 0 0)
(0.00573591 0 0)
(0.0061847 0 0)
(0.00615376 0 0)
(0.00607959 0 0)
(0.00607127 0 0)
(0.00609835 0 0)
(0.00610943 0 0)
(0.00613699 0 0)
(0.00636657 0 0)
(0.00665447 0 0)
(0.00668098 0 0)
(0.00663965 0 0)
(0.00668049 0 0)
(0.00665369 0 0)
(0.00656198 0 0)
(0.00654352 0 0)
(0.00656677 0 0)
(0.00654163 0 0)
(0.00651178 0 0)
(0.00648854 0 0)
(0.00647394 0 0)
(0.00640588 0 0)
(0.00645144 0 0)
(0.00641422 0 0)
(0.00642533 0 0)
(0.00652105 0 0)
(0.00655575 0 0)
(0.00661983 0 0)
(0.00671309 0 0)
(0.00680245 0 0)
(0.00691288 0 0)
(0.00705484 0 0)
(0.007271 0 0)
(0.00731597 0 0)
(0.00739052 0 0)
(0.00749692 0 0)
(0.00747088 0 0)
(0.00753354 0 0)
(0.00756939 0 0)
(0.00754794 0 0)
(0.00749431 0 0)
(0.0074717 0 0)
(0.00744852 0 0)
(0.00754671 0 0)
(0.00758559 0 0)
(0.00753136 0 0)
(0.00757367 0 0)
(0.0075991 0 0)
(0.00762578 0 0)
(0.00765873 0 0)
(0.00773921 0 0)
(0.00779333 0 0)
(0.00784444 0 0)
(0.0078043 0 0)
(0.00778829 0 0)
(0.00785804 0 0)
(0.00787388 0 0)
(0.00791678 0 0)
(0.00802607 0 0)
(0.00806097 0 0)
(0.00806944 0 0)
(0.00817461 0 0)
(0.00827042 0 0)
(0.00830776 0 0)
(0.00836661 0 0)
(0.00848619 0 0)
(0.0085099 0 0)
(0.00857992 0 0)
(0.00862461 0 0)
(0.00864555 0 0)
(0.00866622 0 0)
(0.00874304 0 0)
(0.00883302 0 0)
(0.00890515 0 0)
(0.00893346 0 0)
(0.00896063 0 0)
(0.0090369 0 0)
(0.00908711 0 0)
(0.00911705 0 0)
(0.00916853 0 0)
(0.0092398 0 0)
(0.00930022 0 0)
(0.00928536 0 0)
(0.00932588 0 0)
(0.00937448 0 0)
(0.00942302 0 0)
(0.00941611 0 0)
(0.00945874 0 0)
(0.00951386 0 0)
(0.00956526 0 0)
(0.00963099 0 0)
(0.00965834 0 0)
(0.00967389 0 0)
(0.00972045 0 0)
(0.00980298 0 0)
(0.0098314 0 0)
(0.00982654 0 0)
(0.00988063 0 0)
(0.00982175 0 0)
)
;

boundaryField
{
    inlet
    {
        type            fixedValue;
        value           uniform (0.005 0 0);
    }
    outlet
    {
        type            zeroGradient;
    }
    yzfaces
    {
        type            empty;
    }
}


// ************************************************************************* //
