/*--------------------------------*- C++ -*----------------------------------*\
| =========                 |                                                 |
| \\      /  F ield         | foam-extend: Open Source CFD                    |
|  \\    /   O peration     | Version:     5.0                                |
|   \\  /    A nd           | Web:         http://www.foam-extend.org         |
|    \\/     M anipulation  |                                                 |
\*---------------------------------------------------------------------------*/
FoamFile
{
    version     2.0;
    format      ascii;
    class       volVectorField;
    location    "40";
    object      U.water;
}
// * * * * * * * * * * * * * * * * * * * * * * * * * * * * * * * * * * * * * //

dimensions      [0 1 -1 0 0 0 0];

internalField   nonuniform List<vector> 
100
(
(8.51747e-06 0 0)
(2.75771e-05 0 0)
(5.70084e-05 0 0)
(8.09162e-05 0 0)
(7.78856e-05 0 0)
(7.21764e-05 0 0)
(7.28844e-05 0 0)
(7.57634e-05 0 0)
(7.66951e-05 0 0)
(8.55433e-05 0 0)
(0.000109173 0 0)
(0.000129369 0 0)
(0.000131863 0 0)
(0.000130957 0 0)
(0.000132528 0 0)
(0.000129327 0 0)
(0.000123115 0 0)
(0.00012069 0 0)
(0.000120615 0 0)
(0.000116523 0 0)
(0.000113017 0 0)
(0.000109942 0 0)
(0.000107115 0 0)
(0.000105063 0 0)
(0.000107929 0 0)
(0.000107331 0 0)
(0.000110615 0 0)
(0.000115187 0 0)
(0.000122006 0 0)
(0.000133108 0 0)
(0.000144216 0 0)
(0.000160321 0 0)
(0.00017943 0 0)
(0.000201364 0 0)
(0.000223642 0 0)
(0.000236675 0 0)
(0.000251278 0 0)
(0.000259875 0 0)
(0.00026128 0 0)
(0.000266985 0 0)
(0.000267596 0 0)
(0.000263305 0 0)
(0.000259797 0 0)
(0.000259308 0 0)
(0.000262113 0 0)
(0.000269623 0 0)
(0.000265352 0 0)
(0.000260298 0 0)
(0.00026378 0 0)
(0.000264351 0 0)
(0.000265408 0 0)
(0.000268993 0 0)
(0.000275693 0 0)
(0.000278456 0 0)
(0.000280334 0 0)
(0.000275856 0 0)
(0.000276881 0 0)
(0.000283494 0 0)
(0.000282446 0 0)
(0.00028635 0 0)
(0.000295311 0 0)
(0.000301186 0 0)
(0.000313302 0 0)
(0.000335106 0 0)
(0.00035653 0 0)
(0.000372602 0 0)
(0.000386628 0 0)
(0.000398667 0 0)
(0.000405221 0 0)
(0.000416029 0 0)
(0.000422799 0 0)
(0.000431985 0 0)
(0.000444377 0 0)
(0.000458406 0 0)
(0.000472211 0 0)
(0.000482701 0 0)
(0.000489761 0 0)
(0.000500336 0 0)
(0.000513518 0 0)
(0.000520563 0 0)
(0.000528585 0 0)
(0.0005419 0 0)
(0.000552626 0 0)
(0.000559065 0 0)
(0.000566258 0 0)
(0.00057712 0 0)
(0.00058505 0 0)
(0.000589621 0 0)
(0.00059288 0 0)
(0.000604404 0 0)
(0.000616139 0 0)
(0.000628913 0 0)
(0.000640016 0 0)
(0.000647749 0 0)
(0.000658496 0 0)
(0.000671835 0 0)
(0.000683754 0 0)
(0.000691842 0 0)
(0.000702479 0 0)
(0.000709158 0 0)
)
;

boundaryField
{
    inlet
    {
        type            fixedValue;
        value           uniform (0 0 0);
    }
    outlet
    {
        type            zeroGradient;
    }
    yzfaces
    {
        type            empty;
    }
}


// ************************************************************************* //
