/*--------------------------------*- C++ -*----------------------------------*\
| =========                 |                                                 |
| \\      /  F ield         | foam-extend: Open Source CFD                    |
|  \\    /   O peration     | Version:     5.0                                |
|   \\  /    A nd           | Web:         http://www.foam-extend.org         |
|    \\/     M anipulation  |                                                 |
\*---------------------------------------------------------------------------*/
FoamFile
{
    version     2.0;
    format      ascii;
    class       volVectorField;
    location    "40";
    object      U.water;
}
// * * * * * * * * * * * * * * * * * * * * * * * * * * * * * * * * * * * * * //

dimensions      [0 1 -1 0 0 0 0];

internalField   nonuniform List<vector> 
100
(
(8.78352e-06 0 0)
(2.65271e-05 0 0)
(5.60472e-05 0 0)
(8.29342e-05 0 0)
(8.25587e-05 0 0)
(7.47417e-05 0 0)
(7.1626e-05 0 0)
(7.48135e-05 0 0)
(7.83694e-05 0 0)
(8.76678e-05 0 0)
(0.000109302 0 0)
(0.000134164 0 0)
(0.000139463 0 0)
(0.000128733 0 0)
(0.000118553 0 0)
(0.00012213 0 0)
(0.000123997 0 0)
(0.000123817 0 0)
(0.00012739 0 0)
(0.000128243 0 0)
(0.000122006 0 0)
(0.000116129 0 0)
(0.000110299 0 0)
(0.000110878 0 0)
(0.000110797 0 0)
(0.000112723 0 0)
(0.000111367 0 0)
(0.000111877 0 0)
(0.000123406 0 0)
(0.000137681 0 0)
(0.000151805 0 0)
(0.000170353 0 0)
(0.000194149 0 0)
(0.000209 0 0)
(0.00022656 0 0)
(0.000249838 0 0)
(0.000265424 0 0)
(0.000275995 0 0)
(0.000276009 0 0)
(0.000276237 0 0)
(0.000269121 0 0)
(0.000263934 0 0)
(0.000266656 0 0)
(0.000266246 0 0)
(0.00026172 0 0)
(0.00025949 0 0)
(0.000258368 0 0)
(0.000257984 0 0)
(0.000255962 0 0)
(0.000248161 0 0)
(0.000239251 0 0)
(0.000228888 0 0)
(0.000222239 0 0)
(0.000222346 0 0)
(0.000222027 0 0)
(0.000220065 0 0)
(0.000218113 0 0)
(0.000219061 0 0)
(0.000218618 0 0)
(0.000217512 0 0)
(0.000218004 0 0)
(0.000223339 0 0)
(0.000231619 0 0)
(0.00024577 0 0)
(0.000265803 0 0)
(0.000282184 0 0)
(0.000291062 0 0)
(0.000295666 0 0)
(0.000301043 0 0)
(0.000305063 0 0)
(0.000311014 0 0)
(0.000320963 0 0)
(0.000330617 0 0)
(0.00034185 0 0)
(0.000351418 0 0)
(0.000364311 0 0)
(0.000378809 0 0)
(0.000389298 0 0)
(0.000398488 0 0)
(0.000408444 0 0)
(0.000416282 0 0)
(0.000423692 0 0)
(0.000432032 0 0)
(0.000439934 0 0)
(0.00045149 0 0)
(0.000460956 0 0)
(0.000465354 0 0)
(0.000469048 0 0)
(0.000476582 0 0)
(0.000483944 0 0)
(0.000490145 0 0)
(0.000496014 0 0)
(0.00050452 0 0)
(0.000514871 0 0)
(0.000522295 0 0)
(0.00053471 0 0)
(0.000554764 0 0)
(0.000570157 0 0)
(0.000582197 0 0)
(0.000586156 0 0)
)
;

boundaryField
{
    inlet
    {
        type            fixedValue;
        value           uniform (0 0 0);
    }
    outlet
    {
        type            zeroGradient;
    }
    yzfaces
    {
        type            empty;
    }
}


// ************************************************************************* //
