/*--------------------------------*- C++ -*----------------------------------*\
| =========                 |                                                 |
| \\      /  F ield         | foam-extend: Open Source CFD                    |
|  \\    /   O peration     | Version:     5.0                                |
|   \\  /    A nd           | Web:         http://www.foam-extend.org         |
|    \\/     M anipulation  |                                                 |
\*---------------------------------------------------------------------------*/
FoamFile
{
    version     2.0;
    format      ascii;
    class       volScalarField;
    location    "0.1";
    object      alpha.gas;
}
// * * * * * * * * * * * * * * * * * * * * * * * * * * * * * * * * * * * * * //

dimensions      [0 0 0 0 0 0 0];

internalField   nonuniform List<scalar> 
100
(
0.0117539
0.0326359
0.0245084
0.0191248
0.0154481
0.0130665
0.0116308
0.0108331
0.0104132
0.0102022
0.0100991
0.0100498
0.010024
0.0100127
0.0100057
0.0100041
0.0100015
0.0100015
0.0100004
0.010001
0.00999897
0.00999824
0.00999698
0.0099997
0.0100014
0.0100006
0.00999929
0.0100003
0.0100007
0.00999983
0.01
0.00999944
0.0099991
0.0099987
0.00999923
0.0099991
0.0100001
0.0100018
0.0100016
0.0100002
0.00999852
0.00999902
0.00999821
0.0099993
0.0099995
0.0100015
0.0100003
0.00999952
0.00999848
0.00999852
0.00999934
0.0100008
0.00999999
0.00999969
0.00999925
0.00999983
0.00999993
0.010002
0.0100006
0.0100001
0.0100009
0.0100003
0.00999851
0.0100023
0.0100004
0.00999934
0.00999837
0.0100011
0.0100014
0.0100027
0.0100015
0.0100019
0.0100013
0.0100001
0.0100004
0.0100003
0.0100006
0.0100008
0.00999934
0.0100001
0.0100012
0.00999974
0.00999992
0.0100003
0.00999925
0.00999932
0.00999978
0.00999916
0.0100007
0.00999807
0.00999879
0.00999879
0.0100016
0.0100014
0.0100005
0.0100004
0.00999925
0.0100008
0.0100011
0.0100019
)
;

boundaryField
{
    inlet
    {
        type            fixedValue;
        value           uniform 0.2;
    }
    outlet
    {
        type            zeroGradient;
    }
    yzfaces
    {
        type            empty;
    }
}


// ************************************************************************* //
