/*--------------------------------*- C++ -*----------------------------------*\
| =========                 |                                                 |
| \\      /  F ield         | foam-extend: Open Source CFD                    |
|  \\    /   O peration     | Version:     5.0                                |
|   \\  /    A nd           | Web:         http://www.foam-extend.org         |
|    \\/     M anipulation  |                                                 |
\*---------------------------------------------------------------------------*/
FoamFile
{
    version     2.0;
    format      ascii;
    class       volScalarField;
    location    "0.1";
    object      Cl.water;
}
// * * * * * * * * * * * * * * * * * * * * * * * * * * * * * * * * * * * * * //

dimensions      [0 0 0 0 0 0 0];

internalField   nonuniform List<scalar> 
100
(
-6.10623e-15
0.0202561
0.0212331
0.0218984
0.0223144
0.0226468
0.022759
0.0229573
0.0229334
0.0229871
0.0229898
0.022952
0.0230429
0.0229631
0.0230358
0.0229719
0.0230285
0.0230012
0.0230127
0.0229664
0.0229809
0.0230154
0.0230124
0.0229814
0.0229856
0.0230201
0.0229813
0.0230251
0.0229723
0.0230147
0.0229833
0.0230184
0.0229754
0.0230196
0.022986
0.0230119
0.0230033
0.0230007
0.0229956
0.0229614
0.0230432
0.0229528
0.0230184
0.0230002
0.0229914
0.0229858
0.0230133
0.0230022
0.0230112
0.0230208
0.0229853
0.0230135
0.0229896
0.0230324
0.0229695
0.0230068
0.0230219
0.0229433
0.0230398
0.0229511
0.0230328
0.0229472
0.0230567
0.0229523
0.0230258
0.0229844
0.0230417
0.0229684
0.0230194
0.0229595
0.0230228
0.022964
0.0230379
0.0230081
0.022989
0.0230356
0.0229826
0.0229883
0.023038
0.0229596
0.0230367
0.0229773
0.023019
0.0229819
0.023033
0.0229746
0.0230091
0.0230063
0.0229692
0.0230442
0.0229464
0.0230013
0.022979
0.0230408
0.0229741
0.0230209
0.022985
0.0230325
0.0229774
0.0230142
)
;

boundaryField
{
    inlet
    {
        type            fixedValue;
        value           uniform 0;
    }
    outlet
    {
        type            zeroGradient;
    }
    yzfaces
    {
        type            empty;
    }
}


// ************************************************************************* //
