/*--------------------------------*- C++ -*----------------------------------*\
| =========                 |                                                 |
| \\      /  F ield         | foam-extend: Open Source CFD                    |
|  \\    /   O peration     | Version:     5.0                                |
|   \\  /    A nd           | Web:         http://www.foam-extend.org         |
|    \\/     M anipulation  |                                                 |
\*---------------------------------------------------------------------------*/
FoamFile
{
    version     2.0;
    format      ascii;
    class       volScalarField;
    location    "0.1";
    object      H2O.gas;
}
// * * * * * * * * * * * * * * * * * * * * * * * * * * * * * * * * * * * * * //

dimensions      [0 0 0 0 0 0 0];

internalField   nonuniform List<scalar> 
100
(
2.28904e-05
0.00704502
0.00912221
0.0104987
0.0111014
0.0111567
0.0108557
0.0105866
0.0103132
0.0101774
0.0100893
0.0100276
0.0100421
0.00999434
0.0100182
0.00999017
0.0100131
0.0100026
0.0100065
0.00998802
0.00999232
0.0100066
0.010003
0.00999136
0.00999551
0.0100093
0.00999265
0.0100134
0.0099894
0.0100059
0.00999449
0.0100089
0.009989
0.0100081
0.00999277
0.0100035
0.0100021
0.0100028
0.0100003
0.00998326
0.0100169
0.00997774
0.0100078
0.0100006
0.00999712
0.00999383
0.0100025
0.009998
0.0100018
0.0100079
0.0099936
0.0100063
0.00999493
0.0100148
0.00998576
0.0100025
0.0100092
0.00997785
0.0100176
0.00998028
0.0100153
0.00997752
0.0100232
0.00998232
0.0100136
0.00999357
0.0100167
0.0099872
0.0100098
0.00998435
0.0100113
0.00998627
0.0100182
0.010005
0.00999776
0.0100165
0.00999268
0.00999426
0.010014
0.00997988
0.0100139
0.00998881
0.0100085
0.00999019
0.0100128
0.00998724
0.0100038
0.0100043
0.00998707
0.0100169
0.00997602
0.0100006
0.00999217
0.0100165
0.00998806
0.0100079
0.00999292
0.0100167
0.00999454
0.0100031
)
;

boundaryField
{
    inlet
    {
        type            fixedValue;
        value           uniform 0;
    }
    outlet
    {
        type            zeroGradient;
    }
    yzfaces
    {
        type            empty;
    }
}


// ************************************************************************* //
