/*--------------------------------*- C++ -*----------------------------------*\
| =========                 |                                                 |
| \\      /  F ield         | foam-extend: Open Source CFD                    |
|  \\    /   O peration     | Version:     5.0                                |
|   \\  /    A nd           | Web:         http://www.foam-extend.org         |
|    \\/     M anipulation  |                                                 |
\*---------------------------------------------------------------------------*/
FoamFile
{
    version     2.0;
    format      ascii;
    class       volScalarField;
    location    "0.1";
    object      Na.water;
}
// * * * * * * * * * * * * * * * * * * * * * * * * * * * * * * * * * * * * * //

dimensions      [0 0 0 0 0 0 0];

internalField   nonuniform List<scalar> 
100
(
-6.10623e-15
0.0202607
0.0212328
0.0219068
0.0223164
0.0226475
0.0227619
0.0229535
0.022929
0.0229858
0.0229889
0.0229501
0.0230386
0.0229596
0.0230308
0.0229683
0.0230235
0.0230001
0.0230131
0.0229725
0.0229807
0.0230154
0.0230125
0.0229828
0.0229895
0.0230189
0.0229795
0.0230269
0.0229712
0.0230119
0.022987
0.0230221
0.0229739
0.0230203
0.0229856
0.0230083
0.0229978
0.0230013
0.0229976
0.0229614
0.0230411
0.0229555
0.0230223
0.0230051
0.0229936
0.0229823
0.02301
0.0229989
0.0230057
0.0230221
0.0229832
0.0230135
0.0229873
0.0230348
0.0229656
0.0230045
0.0230229
0.0229458
0.0230344
0.0229455
0.0230302
0.0229432
0.0230537
0.0229573
0.0230304
0.0229835
0.0230372
0.0229635
0.0230213
0.0229593
0.0230248
0.0229607
0.0230355
0.0230052
0.022989
0.0230361
0.0229819
0.0229907
0.0230345
0.0229541
0.0230261
0.022977
0.0230191
0.0229782
0.0230311
0.0229704
0.0230077
0.0230094
0.0229637
0.0230404
0.0229422
0.023005
0.0229768
0.0230391
0.0229726
0.0230171
0.0229845
0.0230389
0.022985
0.0230132
)
;

boundaryField
{
    inlet
    {
        type            fixedValue;
        value           uniform 0;
    }
    outlet
    {
        type            zeroGradient;
    }
    yzfaces
    {
        type            empty;
    }
}


// ************************************************************************* //
