/*--------------------------------*- C++ -*----------------------------------*\
| =========                 |                                                 |
| \\      /  F ield         | foam-extend: Open Source CFD                    |
|  \\    /   O peration     | Version:     5.0                                |
|   \\  /    A nd           | Web:         http://www.foam-extend.org         |
|    \\/     M anipulation  |                                                 |
\*---------------------------------------------------------------------------*/
FoamFile
{
    version     2.0;
    format      ascii;
    class       surfaceScalarField;
    location    "0.1";
    object      phi;
}
// * * * * * * * * * * * * * * * * * * * * * * * * * * * * * * * * * * * * * //

dimensions      [0 3 -1 0 0 0 0];

internalField   nonuniform List<scalar> 
99
(
1.2249e-06
1.22422e-06
1.22627e-06
1.22429e-06
1.22726e-06
1.225e-06
1.22991e-06
1.22359e-06
1.22554e-06
1.22535e-06
1.22481e-06
1.22885e-06
1.22487e-06
1.22866e-06
1.22519e-06
1.2284e-06
1.22537e-06
1.22534e-06
1.22325e-06
1.22575e-06
1.22808e-06
1.22634e-06
1.22517e-06
1.22734e-06
1.22739e-06
1.22575e-06
1.22825e-06
1.22501e-06
1.2269e-06
1.22594e-06
1.22683e-06
1.22466e-06
1.22717e-06
1.22469e-06
1.22642e-06
1.226e-06
1.22488e-06
1.22509e-06
1.22572e-06
1.22928e-06
1.22528e-06
1.23046e-06
1.22823e-06
1.2281e-06
1.22886e-06
1.23015e-06
1.22839e-06
1.23004e-06
1.22906e-06
1.22714e-06
1.22894e-06
1.22767e-06
1.22872e-06
1.22585e-06
1.22943e-06
1.2285e-06
1.22642e-06
1.23207e-06
1.22824e-06
1.23299e-06
1.22958e-06
1.23507e-06
1.22878e-06
1.23313e-06
1.23029e-06
1.23169e-06
1.22743e-06
1.23061e-06
1.22822e-06
1.23233e-06
1.22983e-06
1.2337e-06
1.22945e-06
1.22889e-06
1.22987e-06
1.22568e-06
1.22697e-06
1.22858e-06
1.22542e-06
1.22975e-06
1.2258e-06
1.22855e-06
1.22656e-06
1.22844e-06
1.22588e-06
1.22885e-06
1.22864e-06
1.22755e-06
1.23099e-06
1.22725e-06
1.23303e-06
1.23262e-06
1.23465e-06
1.23083e-06
1.23382e-06
1.23215e-06
1.23409e-06
1.22954e-06
1.23169e-06
)
;

boundaryField
{
    inlet
    {
        type            calculated;
        value           uniform -1.225e-06;
    }
    outlet
    {
        type            calculated;
        value           uniform 1.23003e-06;
    }
    yzfaces
    {
        type            empty;
    }
}


// ************************************************************************* //
