/*--------------------------------*- C++ -*----------------------------------*\
| =========                 |                                                 |
| \\      /  F ield         | foam-extend: Open Source CFD                    |
|  \\    /   O peration     | Version:     5.0                                |
|   \\  /    A nd           | Web:         http://www.foam-extend.org         |
|    \\/     M anipulation  |                                                 |
\*---------------------------------------------------------------------------*/
FoamFile
{
    version     2.0;
    format      ascii;
    class       surfaceScalarField;
    location    "0.1";
    object      phi.water;
}
// * * * * * * * * * * * * * * * * * * * * * * * * * * * * * * * * * * * * * //

dimensions      [0 3 -1 0 0 0 0];

internalField   nonuniform List<scalar> 
99
(
2.85004e-06
4.27948e-06
5.12352e-06
5.6013e-06
5.88317e-06
6.01455e-06
6.1046e-06
6.10409e-06
6.13583e-06
6.14049e-06
6.14912e-06
6.16521e-06
6.14596e-06
6.16727e-06
6.14887e-06
6.16529e-06
6.14552e-06
6.14709e-06
6.14095e-06
6.15731e-06
6.16261e-06
6.15e-06
6.14938e-06
6.16386e-06
6.1588e-06
6.15076e-06
6.16199e-06
6.14712e-06
6.15876e-06
6.15216e-06
6.15567e-06
6.14618e-06
6.15875e-06
6.1452e-06
6.1555e-06
6.15074e-06
6.14617e-06
6.14818e-06
6.15685e-06
6.16865e-06
6.14992e-06
6.17859e-06
6.16056e-06
6.16356e-06
6.17022e-06
6.17511e-06
6.16432e-06
6.17239e-06
6.16416e-06
6.15734e-06
6.16756e-06
6.16088e-06
6.16315e-06
6.15147e-06
6.17324e-06
6.16155e-06
6.15936e-06
6.18526e-06
6.16471e-06
6.18949e-06
6.17332e-06
6.19749e-06
6.16528e-06
6.19048e-06
6.17187e-06
6.17741e-06
6.15849e-06
6.17754e-06
6.16684e-06
6.18698e-06
6.17369e-06
6.19089e-06
6.16312e-06
6.16649e-06
6.16796e-06
6.14858e-06
6.16207e-06
6.16309e-06
6.1515e-06
6.17384e-06
6.151e-06
6.16619e-06
6.15597e-06
6.16381e-06
6.15167e-06
6.16945e-06
6.16314e-06
6.16315e-06
6.17601e-06
6.16024e-06
6.19451e-06
6.18829e-06
6.19424e-06
6.17604e-06
6.19349e-06
6.18321e-06
6.19035e-06
6.16754e-06
6.18291e-06
)
;

boundaryField
{
    inlet
    {
        type            fixedValue;
        value           uniform 0;
    }
    outlet
    {
        type            calculated;
        value           uniform 6.1719e-06;
    }
    yzfaces
    {
        type            empty;
    }
}


// ************************************************************************* //
