/*--------------------------------*- C++ -*----------------------------------*\
| =========                 |                                                 |
| \\      /  F ield         | foam-extend: Open Source CFD                    |
|  \\    /   O peration     | Version:     5.0                                |
|   \\  /    A nd           | Web:         http://www.foam-extend.org         |
|    \\/     M anipulation  |                                                 |
\*---------------------------------------------------------------------------*/
FoamFile
{
    version     2.0;
    format      ascii;
    class       volScalarField;
    location    "0.1";
    object      S.gas;
}
// * * * * * * * * * * * * * * * * * * * * * * * * * * * * * * * * * * * * * //

dimensions      [0 0 0 0 0 0 0];

internalField   nonuniform List<scalar> 
100
(
0.236307
0.16318
0.122542
0.0956242
0.0772405
0.0653323
0.0581539
0.0541656
0.052066
0.0510109
0.0504955
0.0502492
0.0501202
0.0500633
0.0500287
0.0500206
0.0500075
0.0500076
0.0500021
0.050005
0.0499949
0.0499912
0.0499849
0.0499985
0.0500072
0.050003
0.0499964
0.0500017
0.0500034
0.0499991
0.0500001
0.0499972
0.0499955
0.0499935
0.0499961
0.0499955
0.0500004
0.0500092
0.0500079
0.0500011
0.0499926
0.0499951
0.0499911
0.0499965
0.0499975
0.0500077
0.0500014
0.0499976
0.0499924
0.0499926
0.0499967
0.0500039
0.0499999
0.0499985
0.0499963
0.0499992
0.0499997
0.0500098
0.0500028
0.0500006
0.0500046
0.0500015
0.0499925
0.0500117
0.0500018
0.0499967
0.0499919
0.0500053
0.050007
0.0500136
0.0500076
0.0500095
0.0500067
0.0500005
0.050002
0.0500017
0.0500031
0.050004
0.0499967
0.0500006
0.0500058
0.0499987
0.0499996
0.0500015
0.0499963
0.0499966
0.0499989
0.0499958
0.0500036
0.0499904
0.0499939
0.049994
0.0500081
0.0500068
0.0500023
0.0500022
0.0499962
0.0500041
0.0500057
0.0500096
)
;

boundaryField
{
    inlet
    {
        type            calculated;
        value           uniform 1;
    }
    outlet
    {
        type            calculated;
        value           uniform 0.0500096;
    }
    yzfaces
    {
        type            empty;
    }
}


// ************************************************************************* //
