/*--------------------------------*- C++ -*----------------------------------*\
| =========                 |                                                 |
| \\      /  F ield         | foam-extend: Open Source CFD                    |
|  \\    /   O peration     | Version:     5.0                                |
|   \\  /    A nd           | Web:         http://www.foam-extend.org         |
|    \\/     M anipulation  |                                                 |
\*---------------------------------------------------------------------------*/
FoamFile
{
    version     2.0;
    format      ascii;
    class       volVectorField;
    location    "0.1";
    object      U.gas;
}
// * * * * * * * * * * * * * * * * * * * * * * * * * * * * * * * * * * * * * //

dimensions      [0 1 -1 0 0 0 0];

internalField   nonuniform List<vector> 
100
(
(0.0172182 0 0)
(0.0157516 0 0)
(0.0133917 0 0)
(0.010983 0 0)
(0.0088771 0 0)
(0.00723816 0 0)
(0.00611851 0 0)
(0.00542906 0 0)
(0.00503908 0 0)
(0.00484516 0 0)
(0.00474368 0 0)
(0.00470183 0 0)
(0.00467844 0 0)
(0.00466598 0 0)
(0.00466178 0 0)
(0.00465801 0 0)
(0.00465824 0 0)
(0.00465114 0 0)
(0.00464687 0 0)
(0.00464784 0 0)
(0.00465687 0 0)
(0.00465619 0 0)
(0.00465016 0 0)
(0.00465133 0 0)
(0.00465684 0 0)
(0.00465484 0 0)
(0.00465643 0 0)
(0.00465489 0 0)
(0.00465293 0 0)
(0.00465471 0 0)
(0.00465355 0 0)
(0.00465069 0 0)
(0.00465185 0 0)
(0.00465225 0 0)
(0.00465 0 0)
(0.00465255 0 0)
(0.00464975 0 0)
(0.00464827 0 0)
(0.00465046 0 0)
(0.00465842 0 0)
(0.00465772 0 0)
(0.00466008 0 0)
(0.0046656 0 0)
(0.00465988 0 0)
(0.0046613 0 0)
(0.00466547 0 0)
(0.00466647 0 0)
(0.00466544 0 0)
(0.00466546 0 0)
(0.0046593 0 0)
(0.00465904 0 0)
(0.00466074 0 0)
(0.00466157 0 0)
(0.00465728 0 0)
(0.00465802 0 0)
(0.00466318 0 0)
(0.00465799 0 0)
(0.0046646 0 0)
(0.00466893 0 0)
(0.00467 0 0)
(0.00467149 0 0)
(0.00467648 0 0)
(0.0046755 0 0)
(0.00467051 0 0)
(0.00467506 0 0)
(0.00467133 0 0)
(0.00466587 0 0)
(0.00466309 0 0)
(0.00466545 0 0)
(0.00466935 0 0)
(0.004673 0 0)
(0.00467473 0 0)
(0.00467485 0 0)
(0.0046657 0 0)
(0.00466505 0 0)
(0.00465879 0 0)
(0.0046529 0 0)
(0.00465872 0 0)
(0.00465652 0 0)
(0.00465821 0 0)
(0.00465943 0 0)
(0.00465777 0 0)
(0.00465832 0 0)
(0.00465841 0 0)
(0.00465724 0 0)
(0.00465761 0 0)
(0.00466252 0 0)
(0.00465977 0 0)
(0.00466457 0 0)
(0.00466457 0 0)
(0.00466672 0 0)
(0.00467794 0 0)
(0.00468146 0 0)
(0.00467891 0 0)
(0.00467691 0 0)
(0.00467851 0 0)
(0.00467932 0 0)
(0.00467439 0 0)
(0.0046702 0 0)
(0.00467258 0 0)
)
;

boundaryField
{
    inlet
    {
        type            fixedValue;
        value           uniform (0.005 0 0);
    }
    outlet
    {
        type            zeroGradient;
    }
    yzfaces
    {
        type            empty;
    }
}


// ************************************************************************* //
