/*--------------------------------*- C++ -*----------------------------------*\
| =========                 |                                                 |
| \\      /  F ield         | foam-extend: Open Source CFD                    |
|  \\    /   O peration     | Version:     5.0                                |
|   \\  /    A nd           | Web:         http://www.foam-extend.org         |
|    \\/     M anipulation  |                                                 |
\*---------------------------------------------------------------------------*/
FoamFile
{
    version     2.0;
    format      ascii;
    class       volVectorField;
    location    "0.1";
    object      U.water;
}
// * * * * * * * * * * * * * * * * * * * * * * * * * * * * * * * * * * * * * //

dimensions      [0 1 -1 0 0 0 0];

internalField   nonuniform List<vector> 
100
(
(0.00121909 0 0)
(0.00290128 0 0)
(0.0038292 0 0)
(0.00436866 0 0)
(0.0046789 0 0)
(0.00484848 0 0)
(0.00494158 0 0)
(0.00498299 0 0)
(0.00499598 0 0)
(0.00501024 0 0)
(0.00501399 0 0)
(0.00502365 0 0)
(0.00502496 0 0)
(0.0050252 0 0)
(0.00502609 0 0)
(0.00502573 0 0)
(0.00502611 0 0)
(0.00501989 0 0)
(0.00501555 0 0)
(0.00501638 0 0)
(0.00502627 0 0)
(0.00502757 0 0)
(0.00502164 0 0)
(0.00502373 0 0)
(0.00502823 0 0)
(0.00502492 0 0)
(0.00502667 0 0)
(0.00502517 0 0)
(0.00502239 0 0)
(0.00502428 0 0)
(0.00502417 0 0)
(0.00502157 0 0)
(0.00502224 0 0)
(0.00502229 0 0)
(0.0050208 0 0)
(0.00502349 0 0)
(0.00502032 0 0)
(0.00501846 0 0)
(0.00502015 0 0)
(0.00502871 0 0)
(0.00502779 0 0)
(0.00503021 0 0)
(0.00503626 0 0)
(0.00503149 0 0)
(0.00503278 0 0)
(0.00503697 0 0)
(0.0050359 0 0)
(0.00503571 0 0)
(0.00503715 0 0)
(0.00503124 0 0)
(0.00503101 0 0)
(0.00503207 0 0)
(0.00503154 0 0)
(0.00502785 0 0)
(0.00502933 0 0)
(0.00503475 0 0)
(0.00502856 0 0)
(0.00503589 0 0)
(0.00503956 0 0)
(0.00504148 0 0)
(0.00504429 0 0)
(0.0050485 0 0)
(0.00504683 0 0)
(0.00504294 0 0)
(0.00504593 0 0)
(0.00504303 0 0)
(0.00503717 0 0)
(0.005035 0 0)
(0.00503658 0 0)
(0.00504006 0 0)
(0.00504334 0 0)
(0.00504619 0 0)
(0.00504535 0 0)
(0.0050355 0 0)
(0.00503645 0 0)
(0.00502987 0 0)
(0.00502396 0 0)
(0.00502988 0 0)
(0.00502666 0 0)
(0.0050291 0 0)
(0.00502985 0 0)
(0.00502735 0 0)
(0.00502897 0 0)
(0.00502873 0 0)
(0.00502734 0 0)
(0.0050282 0 0)
(0.00503385 0 0)
(0.0050312 0 0)
(0.005036 0 0)
(0.00503533 0 0)
(0.0050396 0 0)
(0.00505056 0 0)
(0.00505386 0 0)
(0.00505015 0 0)
(0.00504849 0 0)
(0.00505123 0 0)
(0.00505176 0 0)
(0.00504643 0 0)
(0.00504149 0 0)
(0.00504241 0 0)
)
;

boundaryField
{
    inlet
    {
        type            fixedValue;
        value           uniform (0 0 0);
    }
    outlet
    {
        type            zeroGradient;
    }
    yzfaces
    {
        type            empty;
    }
}


// ************************************************************************* //
