/*--------------------------------*- C++ -*----------------------------------*\
| =========                 |                                                 |
| \\      /  F ield         | foam-extend: Open Source CFD                    |
|  \\    /   O peration     | Version:     5.0                                |
|   \\  /    A nd           | Web:         http://www.foam-extend.org         |
|    \\/     M anipulation  |                                                 |
\*---------------------------------------------------------------------------*/
FoamFile
{
    version     2.0;
    format      ascii;
    class       volScalarField;
    location    "10";
    object      alpha.gas;
}
// * * * * * * * * * * * * * * * * * * * * * * * * * * * * * * * * * * * * * //

dimensions      [0 0 0 0 0 0 0];

internalField   nonuniform List<scalar> 
100
(
0.171265
0.158973
0.1507
0.144756
0.138504
0.133739
0.132505
0.130511
0.129343
0.128384
0.122567
0.117451
0.113014
0.11062
0.108552
0.106475
0.104132
0.102618
0.101662
0.100957
0.0993851
0.0977855
0.0961827
0.0950416
0.0940731
0.0926809
0.0912799
0.0897606
0.0877779
0.08581
0.0847609
0.0842322
0.0838667
0.083344
0.0827591
0.0825633
0.0824017
0.0820523
0.081376
0.080716
0.0796376
0.0789417
0.0781416
0.0774994
0.0766868
0.0760488
0.0754377
0.0748703
0.0743509
0.0738857
0.0731804
0.0724459
0.0718246
0.0711863
0.0705646
0.0699212
0.0692344
0.0686102
0.068056
0.0677204
0.0672754
0.0667869
0.0662491
0.0656446
0.0651092
0.0646685
0.0641377
0.063752
0.0633478
0.0629256
0.0624115
0.0617589
0.0611163
0.0606274
0.060076
0.0593549
0.0588335
0.0581346
0.057377
0.0569302
0.0562933
0.0554722
0.054641
0.0536692
0.0525682
0.0512895
0.04945
0.0467802
0.0425896
0.0350008
0.0184207
0.0217018
0.0223211
0.0225379
0.0227188
0.0228964
0.0230469
0.023173
0.0232721
0.0233675
)
;

boundaryField
{
    inlet
    {
        type            fixedValue;
        value           uniform 0.2;
    }
    outlet
    {
        type            zeroGradient;
    }
    yzfaces
    {
        type            empty;
    }
}


// ************************************************************************* //
