/*--------------------------------*- C++ -*----------------------------------*\
| =========                 |                                                 |
| \\      /  F ield         | foam-extend: Open Source CFD                    |
|  \\    /   O peration     | Version:     5.0                                |
|   \\  /    A nd           | Web:         http://www.foam-extend.org         |
|    \\/     M anipulation  |                                                 |
\*---------------------------------------------------------------------------*/
FoamFile
{
    version     2.0;
    format      ascii;
    class       volScalarField;
    location    "10";
    object      CO2.water;
}
// * * * * * * * * * * * * * * * * * * * * * * * * * * * * * * * * * * * * * //

dimensions      [0 0 0 0 0 0 0];

internalField   nonuniform List<scalar> 
100
(
0.000749797
0.00107877
0.0012948
0.00144813
0.00160856
0.00173602
0.00176478
0.00181611
0.00184733
0.00186863
0.00202686
0.00216348
0.00228454
0.00234673
0.00240099
0.0024549
0.0025128
0.00255766
0.00258093
0.0025982
0.0026424
0.00267488
0.00271382
0.00275374
0.00277621
0.00280047
0.00283341
0.00286501
0.00290451
0.00296143
0.00300789
0.00303141
0.00304295
0.00305815
0.00307215
0.00308092
0.00308594
0.00309636
0.00311469
0.00313198
0.00314969
0.00316898
0.0031925
0.00321385
0.00322886
0.00325214
0.00326514
0.00328096
0.00329745
0.00331268
0.00332598
0.00334087
0.00335989
0.00338111
0.00339724
0.00341382
0.00343402
0.00345069
0.00346427
0.00346798
0.00347783
0.00349127
0.00350516
0.0035155
0.00353355
0.00354614
0.00356645
0.00357612
0.00358891
0.00359361
0.00360963
0.00362161
0.00364413
0.00366035
0.003671
0.00369358
0.00370751
0.00372351
0.00374571
0.00375712
0.00377226
0.00379051
0.00381599
0.00384259
0.00387161
0.00390431
0.00395164
0.0040235
0.00413314
0.0043307
0.0047519
0.00156159
0.000545387
0.000192954
6.82832e-05
2.40453e-05
8.46088e-06
2.9866e-06
1.05902e-06
3.71997e-07
)
;

boundaryField
{
    inlet
    {
        type            fixedValue;
        value           uniform 0;
    }
    outlet
    {
        type            zeroGradient;
    }
    yzfaces
    {
        type            empty;
    }
}


// ************************************************************************* //
