/*--------------------------------*- C++ -*----------------------------------*\
| =========                 |                                                 |
| \\      /  F ield         | foam-extend: Open Source CFD                    |
|  \\    /   O peration     | Version:     5.0                                |
|   \\  /    A nd           | Web:         http://www.foam-extend.org         |
|    \\/     M anipulation  |                                                 |
\*---------------------------------------------------------------------------*/
FoamFile
{
    version     2.0;
    format      ascii;
    class       volScalarField;
    location    "10";
    object      H2O.gas;
}
// * * * * * * * * * * * * * * * * * * * * * * * * * * * * * * * * * * * * * //

dimensions      [0 0 0 0 0 0 0];

internalField   nonuniform List<scalar> 
100
(
2.37868e-05
0.000132619
0.000254943
0.000281907
0.000261276
0.000250851
0.00025805
0.000254167
0.000251891
0.000250024
0.000238696
0.000228733
0.000220092
0.000215428
0.000211402
0.000207357
0.000202226
0.000199845
0.000197984
0.00019661
0.00019355
0.000189467
0.000186516
0.000185237
0.000182738
0.000178747
0.000175205
0.000170844
0.000165592
0.000160691
0.000157891
0.000156284
0.000155219
0.000155219
0.000157398
0.000159445
0.000160475
0.000159794
0.000158477
0.000157192
0.000154627
0.000153323
0.000151749
0.000150448
0.000148502
0.00014758
0.000146235
0.00014539
0.00014423
0.000143275
0.000141658
0.000140124
0.000138864
0.000137895
0.000136737
0.00013562
0.000134832
0.000133616
0.000132513
0.000131799
0.000130886
0.000129786
0.000128676
0.000127131
0.000126099
0.000125133
0.00012469
0.000124117
0.000123368
0.000122243
0.000121196
0.000119819
0.000118804
0.00011807
0.000116856
0.000115592
0.000114394
0.000113057
0.00011174
0.00011087
0.000109533
0.000107806
0.00010633
0.000104519
0.000102364
9.98847e-05
9.63025e-05
9.1103e-05
8.2942e-05
6.81631e-05
3.58737e-05
0.00038243
0.000716771
0.00107401
0.0014654
0.00189213
0.0023567
0.00285913
0.00340021
0.00398676
)
;

boundaryField
{
    inlet
    {
        type            fixedValue;
        value           uniform 0;
    }
    outlet
    {
        type            zeroGradient;
    }
    yzfaces
    {
        type            empty;
    }
}


// ************************************************************************* //
