/*--------------------------------*- C++ -*----------------------------------*\
| =========                 |                                                 |
| \\      /  F ield         | foam-extend: Open Source CFD                    |
|  \\    /   O peration     | Version:     5.0                                |
|   \\  /    A nd           | Web:         http://www.foam-extend.org         |
|    \\/     M anipulation  |                                                 |
\*---------------------------------------------------------------------------*/
FoamFile
{
    version     2.0;
    format      ascii;
    class       volScalarField;
    location    "10";
    object      H2O.water;
}
// * * * * * * * * * * * * * * * * * * * * * * * * * * * * * * * * * * * * * //

dimensions      [0 0 0 0 0 0 0];

internalField   nonuniform List<scalar> 
100
(
0.021247
0.0305804
0.0366951
0.0410256
0.0455798
0.049193
0.0499741
0.0514462
0.0523331
0.0529388
0.0574198
0.0612823
0.0647217
0.0664857
0.0680175
0.0695404
0.0711954
0.0724597
0.073119
0.0736035
0.074859
0.0757754
0.0768905
0.0780089
0.0786126
0.079325
0.0802983
0.0811818
0.0823225
0.083934
0.0852392
0.0859207
0.0861883
0.0866331
0.0870399
0.0872819
0.0874355
0.0877142
0.0882344
0.0887236
0.089234
0.0897298
0.0904029
0.0910093
0.0914418
0.0921289
0.0924998
0.0929766
0.093413
0.0938423
0.0942212
0.0946592
0.0951776
0.0957773
0.0962526
0.0967072
0.0972821
0.0977592
0.0981515
0.0982508
0.0985073
0.0988721
0.099303
0.0996021
0.100094
0.100472
0.101044
0.101327
0.101673
0.101814
0.102248
0.102601
0.103255
0.103698
0.104018
0.104641
0.105011
0.105489
0.10612
0.106436
0.106853
0.107392
0.108137
0.108859
0.10969
0.110604
0.111951
0.113985
0.117094
0.122707
0.134764
0.134165
0.134395
0.134348
0.134436
0.134292
0.134163
0.134067
0.134033
0.134038
)
;

boundaryField
{
    inlet
    {
        type            fixedValue;
        value           uniform 0;
    }
    outlet
    {
        type            zeroGradient;
    }
    yzfaces
    {
        type            empty;
    }
}


// ************************************************************************* //
