/*--------------------------------*- C++ -*----------------------------------*\
| =========                 |                                                 |
| \\      /  F ield         | foam-extend: Open Source CFD                    |
|  \\    /   O peration     | Version:     5.0                                |
|   \\  /    A nd           | Web:         http://www.foam-extend.org         |
|    \\/     M anipulation  |                                                 |
\*---------------------------------------------------------------------------*/
FoamFile
{
    version     2.0;
    format      ascii;
    class       volScalarField;
    location    "10";
    object      Ns;
}
// * * * * * * * * * * * * * * * * * * * * * * * * * * * * * * * * * * * * * //

dimensions      [0 -3 0 0 1 0 0];

internalField   nonuniform List<scalar> 
100
(
0.0852236
0.207056
0.336711
3.99861
1.23512
0.596995
11.17
12.6366
11.8907
17.3441
9.68059
6.51126
0.132307
1.13197
1.19229
2.09558
0.142872
0.052297
2.62352
4.39955
0.289096
0.149837
1.04526
0.0686492
0.0946095
1.75477
1.02768
0.618791
1.89952
0.112322
0.0517938
0.444377
0.583508
0.407013
1.76243
1.48584
3.83374
2.0929
1.28785
1.35602
0.462121
0.65122
0.103935
0.300662
0.20086
0.290452
1.08958
0.191959
0.233311
0.0639718
0.14327
0.0458878
0.18374
0.309949
0.292123
0.554028
0.668658
0.284729
0.660855
0.203293
0.742936
0.0653899
0.130604
0.692047
0.616074
0.708062
0.629063
0.487627
0.272981
0.178238
0.412083
0.00173231
0.0303008
0.2919
0.524361
0.552975
0.144565
0.246987
0.301064
0.768069
0.229992
0.832695
0.794465
1.01093
0.324793
2.11534
3.49695
1.05183
1.64968
4.12565
24.2
2
2
2
2
2
2
2
2
2
)
;

boundaryField
{
    inlet
    {
        type            fixedValue;
        value           uniform 0;
    }
    outlet
    {
        type            zeroGradient;
    }
    yzfaces
    {
        type            empty;
    }
}


// ************************************************************************* //
