/*--------------------------------*- C++ -*----------------------------------*\
| =========                 |                                                 |
| \\      /  F ield         | foam-extend: Open Source CFD                    |
|  \\    /   O peration     | Version:     5.0                                |
|   \\  /    A nd           | Web:         http://www.foam-extend.org         |
|    \\/     M anipulation  |                                                 |
\*---------------------------------------------------------------------------*/
FoamFile
{
    version     2.0;
    format      ascii;
    class       surfaceScalarField;
    location    "10";
    object      phi;
}
// * * * * * * * * * * * * * * * * * * * * * * * * * * * * * * * * * * * * * //

dimensions      [0 3 -1 0 0 0 0];

internalField   nonuniform List<scalar> 
99
(
1.21966e-06
1.21315e-06
1.21063e-06
1.20673e-06
1.20624e-06
1.20298e-06
1.18301e-06
1.1643e-06
1.15423e-06
1.14459e-06
1.13873e-06
1.12935e-06
1.13328e-06
1.13214e-06
1.13096e-06
1.13122e-06
1.13522e-06
1.12888e-06
1.12899e-06
1.1256e-06
1.12604e-06
1.12413e-06
1.12392e-06
1.12941e-06
1.12089e-06
1.11954e-06
1.11972e-06
1.11257e-06
1.11079e-06
1.11394e-06
1.1172e-06
1.12113e-06
1.12148e-06
1.12016e-06
1.1247e-06
1.13022e-06
1.13259e-06
1.12706e-06
1.12509e-06
1.1153e-06
1.11846e-06
1.11938e-06
1.1189e-06
1.11942e-06
1.11899e-06
1.12034e-06
1.11854e-06
1.11474e-06
1.11635e-06
1.11547e-06
1.1127e-06
1.115e-06
1.11502e-06
1.11237e-06
1.11073e-06
1.1082e-06
1.10814e-06
1.10489e-06
1.10606e-06
1.10353e-06
1.10461e-06
1.10186e-06
1.10025e-06
1.10095e-06
1.10388e-06
1.10844e-06
1.10862e-06
1.11139e-06
1.10712e-06
1.10752e-06
1.10649e-06
1.10867e-06
1.11167e-06
1.10982e-06
1.11016e-06
1.11147e-06
1.11166e-06
1.11144e-06
1.11102e-06
1.11091e-06
1.11177e-06
1.1149e-06
1.11308e-06
1.1123e-06
1.11249e-06
1.10896e-06
1.1062e-06
1.10561e-06
1.10446e-06
1.10431e-06
1.09926e-06
1.10345e-06
1.10382e-06
1.10615e-06
1.10668e-06
1.10645e-06
1.10698e-06
1.10717e-06
1.10701e-06
)
;

boundaryField
{
    inlet
    {
        type            calculated;
        value           uniform -1.225e-06;
    }
    outlet
    {
        type            calculated;
        value           uniform 1.10778e-06;
    }
    yzfaces
    {
        type            empty;
    }
}


// ************************************************************************* //
