/*--------------------------------*- C++ -*----------------------------------*\
| =========                 |                                                 |
| \\      /  F ield         | foam-extend: Open Source CFD                    |
|  \\    /   O peration     | Version:     5.0                                |
|   \\  /    A nd           | Web:         http://www.foam-extend.org         |
|    \\/     M anipulation  |                                                 |
\*---------------------------------------------------------------------------*/
FoamFile
{
    version     2.0;
    format      ascii;
    class       volVectorField;
    location    "10";
    object      U.gas;
}
// * * * * * * * * * * * * * * * * * * * * * * * * * * * * * * * * * * * * * //

dimensions      [0 1 -1 0 0 0 0];

internalField   nonuniform List<vector> 
100
(
(0.00582153 0 0)
(0.0062295 0 0)
(0.0065324 0 0)
(0.00676411 0 0)
(0.00704235 0 0)
(0.00726144 0 0)
(0.00727337 0 0)
(0.00723113 0 0)
(0.0071925 0 0)
(0.00717528 0 0)
(0.00744819 0 0)
(0.0076927 0 0)
(0.00792293 0 0)
(0.00806713 0 0)
(0.00819247 0 0)
(0.00832711 0 0)
(0.00849228 0 0)
(0.00857465 0 0)
(0.00861054 0 0)
(0.00864857 0 0)
(0.00874953 0 0)
(0.00886038 0 0)
(0.00896528 0 0)
(0.00906253 0 0)
(0.00911876 0 0)
(0.0091864 0 0)
(0.00928546 0 0)
(0.00937169 0 0)
(0.00949154 0 0)
(0.00964931 0 0)
(0.00974263 0 0)
(0.00980543 0 0)
(0.00984963 0 0)
(0.00988923 0 0)
(0.0099508 0 0)
(0.010003 0 0)
(0.010028 0 0)
(0.0100764 0 0)
(0.010097 0 0)
(0.010095 0 0)
(0.0101588 0 0)
(0.0102244 0 0)
(0.0102919 0 0)
(0.0103397 0 0)
(0.0104112 0 0)
(0.0104613 0 0)
(0.0105061 0 0)
(0.0105238 0 0)
(0.0105543 0 0)
(0.010594 0 0)
(0.0106397 0 0)
(0.0106954 0 0)
(0.0107524 0 0)
(0.0107917 0 0)
(0.0108192 0 0)
(0.0108492 0 0)
(0.0108928 0 0)
(0.0109128 0 0)
(0.0109532 0 0)
(0.0109591 0 0)
(0.0109898 0 0)
(0.0110215 0 0)
(0.0110409 0 0)
(0.0110827 0 0)
(0.0111373 0 0)
(0.0112024 0 0)
(0.0112689 0 0)
(0.0113034 0 0)
(0.011319 0 0)
(0.0113418 0 0)
(0.0113757 0 0)
(0.0114349 0 0)
(0.0115046 0 0)
(0.011525 0 0)
(0.0115701 0 0)
(0.0116209 0 0)
(0.0116613 0 0)
(0.0117128 0 0)
(0.0117462 0 0)
(0.0117633 0 0)
(0.0118099 0 0)
(0.0118897 0 0)
(0.0119407 0 0)
(0.0119824 0 0)
(0.0120419 0 0)
(0.0120913 0 0)
(0.0121651 0 0)
(0.0123184 0 0)
(0.0125369 0 0)
(0.0129295 0 0)
(0.0143015 0 0)
(0.00771473 0 0)
(0.00855948 0 0)
(0.0087745 0 0)
(0.00885132 0 0)
(0.0089067 0 0)
(0.0089601 0 0)
(0.00900961 0 0)
(0.00904881 0 0)
(0.00907419 0 0)
)
;

boundaryField
{
    inlet
    {
        type            fixedValue;
        value           uniform (0.005 0 0);
    }
    outlet
    {
        type            zeroGradient;
    }
    yzfaces
    {
        type            empty;
    }
}


// ************************************************************************* //
