/*--------------------------------*- C++ -*----------------------------------*\
| =========                 |                                                 |
| \\      /  F ield         | foam-extend: Open Source CFD                    |
|  \\    /   O peration     | Version:     5.0                                |
|   \\  /    A nd           | Web:         http://www.foam-extend.org         |
|    \\/     M anipulation  |                                                 |
\*---------------------------------------------------------------------------*/
FoamFile
{
    version     2.0;
    format      ascii;
    class       volVectorField;
    location    "10";
    object      U.water;
}
// * * * * * * * * * * * * * * * * * * * * * * * * * * * * * * * * * * * * * //

dimensions      [0 1 -1 0 0 0 0];

internalField   nonuniform List<vector> 
100
(
(2.77515e-05 0 0)
(6.49835e-05 0 0)
(9.86084e-05 0 0)
(0.000127442 0 0)
(0.000154437 0 0)
(0.000184468 0 0)
(0.000204855 0 0)
(0.000211674 0 0)
(0.000217821 0 0)
(0.000222477 0 0)
(0.000237346 0 0)
(0.000277216 0 0)
(0.000318267 0 0)
(0.000352844 0 0)
(0.000375671 0 0)
(0.000398884 0 0)
(0.000425107 0 0)
(0.000448758 0 0)
(0.000463512 0 0)
(0.000474315 0 0)
(0.00048757 0 0)
(0.000508918 0 0)
(0.000532341 0 0)
(0.000556491 0 0)
(0.000572653 0 0)
(0.000587564 0 0)
(0.000610809 0 0)
(0.000634344 0 0)
(0.000662469 0 0)
(0.000700961 0 0)
(0.00073652 0 0)
(0.000757314 0 0)
(0.000768907 0 0)
(0.000777904 0 0)
(0.000791104 0 0)
(0.000804631 0 0)
(0.00080985 0 0)
(0.000812764 0 0)
(0.000824926 0 0)
(0.000836632 0 0)
(0.000853367 0 0)
(0.000877857 0 0)
(0.00089739 0 0)
(0.00091657 0 0)
(0.000934467 0 0)
(0.000955572 0 0)
(0.000973591 0 0)
(0.000987939 0 0)
(0.0010022 0 0)
(0.00101654 0 0)
(0.00103171 0 0)
(0.0010539 0 0)
(0.0010761 0 0)
(0.00109394 0 0)
(0.00111204 0 0)
(0.00113087 0 0)
(0.00115127 0 0)
(0.00117091 0 0)
(0.00118992 0 0)
(0.00120746 0 0)
(0.00122011 0 0)
(0.0012349 0 0)
(0.00125135 0 0)
(0.00127223 0 0)
(0.00129578 0 0)
(0.00131934 0 0)
(0.00134075 0 0)
(0.00136157 0 0)
(0.00137488 0 0)
(0.0013879 0 0)
(0.00140784 0 0)
(0.00143188 0 0)
(0.00146268 0 0)
(0.0014878 0 0)
(0.00150817 0 0)
(0.00153797 0 0)
(0.00156784 0 0)
(0.00159638 0 0)
(0.00162778 0 0)
(0.00165744 0 0)
(0.00168675 0 0)
(0.00172489 0 0)
(0.00176754 0 0)
(0.00181127 0 0)
(0.00186565 0 0)
(0.00192774 0 0)
(0.0020051 0 0)
(0.00212862 0 0)
(0.00233455 0 0)
(0.00271106 0 0)
(0.00345513 0 0)
(0.00410347 0 0)
(0.00399523 0 0)
(0.00396857 0 0)
(0.00396041 0 0)
(0.00394902 0 0)
(0.00393853 0 0)
(0.00393012 0 0)
(0.0039222 0 0)
(0.00391749 0 0)
)
;

boundaryField
{
    inlet
    {
        type            fixedValue;
        value           uniform (0 0 0);
    }
    outlet
    {
        type            zeroGradient;
    }
    yzfaces
    {
        type            empty;
    }
}


// ************************************************************************* //
