/*--------------------------------*- C++ -*----------------------------------*\
| =========                 |                                                 |
| \\      /  F ield         | foam-extend: Open Source CFD                    |
|  \\    /   O peration     | Version:     5.0                                |
|   \\  /    A nd           | Web:         http://www.foam-extend.org         |
|    \\/     M anipulation  |                                                 |
\*---------------------------------------------------------------------------*/
FoamFile
{
    version     2.0;
    format      ascii;
    class       volScalarField;
    location    "1.888102987073446";
    object      alpha.gas;
}
// * * * * * * * * * * * * * * * * * * * * * * * * * * * * * * * * * * * * * //

dimensions      [0 0 0 0 0 0 0];

internalField   nonuniform List<scalar> 
100
(
0.131873
0.11459
0.103776
0.096174
0.0899869
0.084973
0.0805616
0.0765338
0.0729824
0.0697263
0.0665045
0.0635492
0.0607332
0.0580707
0.0551431
0.051944
0.0488669
0.0460371
0.0270292
0.0324211
0.0349855
0.0359944
0.0361991
0.0359538
0.0354336
0.0347314
0.0338793
0.0328806
0.0317446
0.0304557
0.0290098
0.0273814
0.0255735
0.0236182
0.0215313
0.0194106
0.017331
0.0154175
0.0137778
0.0124915
0.011565
0.0109462
0.0105555
0.0103167
0.0101809
0.0101018
0.0100562
0.0100319
0.0100176
0.010009
0.010002
0.0100004
0.0099995
0.00999685
0.00999928
0.0100016
0.0100005
0.00999999
0.0100023
0.0100025
0.00999881
0.00999878
0.00999929
0.0100011
0.0100025
0.0100017
0.0100002
0.00999953
0.0100009
0.0100008
0.0100028
0.0100022
0.0100031
0.0100037
0.0100021
0.0100025
0.0100002
0.0100015
0.0100019
0.0100014
0.0100015
0.0100008
0.00999879
0.00999931
0.00999613
0.00999674
0.00999585
0.0100003
0.0100016
0.0100003
0.0100003
0.0099997
0.00999942
0.00999856
0.0100009
0.00999729
0.00999554
0.00999655
0.00999401
0.00999357
)
;

boundaryField
{
    inlet
    {
        type            fixedValue;
        value           uniform 0.2;
    }
    outlet
    {
        type            zeroGradient;
    }
    yzfaces
    {
        type            empty;
    }
}


// ************************************************************************* //
