/*--------------------------------*- C++ -*----------------------------------*\
| =========                 |                                                 |
| \\      /  F ield         | foam-extend: Open Source CFD                    |
|  \\    /   O peration     | Version:     5.0                                |
|   \\  /    A nd           | Web:         http://www.foam-extend.org         |
|    \\/     M anipulation  |                                                 |
\*---------------------------------------------------------------------------*/
FoamFile
{
    version     2.0;
    format      ascii;
    class       volScalarField;
    location    "1.888102987073446";
    object      Cl.water;
}
// * * * * * * * * * * * * * * * * * * * * * * * * * * * * * * * * * * * * * //

dimensions      [0 0 0 0 0 0 0];

internalField   nonuniform List<scalar> 
100
(
0
0.00445932
0.00803508
0.00653729
0.00666453
0.0085406
0.00743763
0.00736679
0.00904675
0.0113365
0.00884347
0.00870236
0.0109203
0.0135213
0.00848938
0.00965603
0.0131557
0.0160047
0.00229089
0.0156179
0.0188766
0.0195946
0.0197675
0.0198367
0.0199022
0.0199872
0.0200899
0.0202199
0.0203539
0.0205216
0.0206881
0.0208958
0.0210922
0.0213489
0.0215952
0.0218603
0.0221187
0.0223539
0.0225524
0.0226857
0.0228126
0.0228827
0.0229363
0.0229466
0.0229608
0.0229793
0.0229991
0.0230002
0.023002
0.0229896
0.0229751
0.0229943
0.0229683
0.0229841
0.0229799
0.0229968
0.0230151
0.023017
0.0230189
0.023019
0.0230229
0.0229891
0.0229792
0.0229892
0.0229928
0.0229902
0.0229898
0.0230023
0.0229948
0.0229785
0.0229871
0.0229946
0.0230102
0.0230103
0.0230135
0.023017
0.0230176
0.023016
0.0230079
0.0230121
0.0230169
0.0230317
0.0230315
0.0230112
0.0230316
0.0230171
0.0229863
0.0229949
0.0229938
0.0229933
0.0230171
0.0230281
0.023001
0.0229885
0.0229895
0.0229762
0.0229703
0.0229573
0.0229513
0.0229656
)
;

boundaryField
{
    inlet
    {
        type            fixedValue;
        value           uniform 0;
    }
    outlet
    {
        type            zeroGradient;
    }
    yzfaces
    {
        type            empty;
    }
}


// ************************************************************************* //
