/*--------------------------------*- C++ -*----------------------------------*\
| =========                 |                                                 |
| \\      /  F ield         | foam-extend: Open Source CFD                    |
|  \\    /   O peration     | Version:     5.0                                |
|   \\  /    A nd           | Web:         http://www.foam-extend.org         |
|    \\/     M anipulation  |                                                 |
\*---------------------------------------------------------------------------*/
FoamFile
{
    version     2.0;
    format      ascii;
    class       volScalarField;
    location    "1.888102987073446";
    object      H2O.water;
}
// * * * * * * * * * * * * * * * * * * * * * * * * * * * * * * * * * * * * * //

dimensions      [0 0 0 0 0 0 0];

internalField   nonuniform List<scalar> 
100
(
0.0663631
0.0756073
0.0796386
0.089964
0.0955546
0.0970282
0.103167
0.107045
0.107288
0.106301
0.113614
0.116879
0.115739
0.11403
0.125856
0.126737
0.123583
0.121204
0.164078
0.13528
0.126877
0.124674
0.124175
0.124232
0.124631
0.125171
0.125853
0.126653
0.127517
0.12857
0.129586
0.130882
0.132085
0.133671
0.135243
0.136862
0.138498
0.139992
0.14123
0.142079
0.142865
0.1433
0.143612
0.143663
0.143771
0.143898
0.14396
0.144006
0.144058
0.143972
0.143854
0.14397
0.143802
0.143879
0.143836
0.14389
0.144012
0.143973
0.143983
0.144019
0.144111
0.143945
0.14384
0.143923
0.143908
0.143902
0.143924
0.144023
0.143984
0.143953
0.144011
0.144044
0.144092
0.144041
0.144103
0.14409
0.144136
0.144108
0.14407
0.144079
0.144117
0.144169
0.14416
0.14404
0.144217
0.144105
0.143899
0.1439
0.143908
0.14389
0.144041
0.1441
0.143978
0.143979
0.143965
0.14391
0.143887
0.143786
0.143773
0.143837
)
;

boundaryField
{
    inlet
    {
        type            fixedValue;
        value           uniform 0;
    }
    outlet
    {
        type            zeroGradient;
    }
    yzfaces
    {
        type            empty;
    }
}


// ************************************************************************* //
