/*--------------------------------*- C++ -*----------------------------------*\
| =========                 |                                                 |
| \\      /  F ield         | foam-extend: Open Source CFD                    |
|  \\    /   O peration     | Version:     5.0                                |
|   \\  /    A nd           | Web:         http://www.foam-extend.org         |
|    \\/     M anipulation  |                                                 |
\*---------------------------------------------------------------------------*/
FoamFile
{
    version     2.0;
    format      ascii;
    class       volScalarField;
    location    "1.888102987073446";
    object      H2O.gas;
}
// * * * * * * * * * * * * * * * * * * * * * * * * * * * * * * * * * * * * * //

dimensions      [0 0 0 0 0 0 0];

internalField   nonuniform List<scalar> 
100
(
8.4447e-11
8.10754e-09
5.89885e-08
2.43403e-07
7.45357e-07
1.9149e-06
4.3321e-06
8.88427e-06
1.69515e-05
3.08823e-05
5.31589e-05
8.75474e-05
0.000140708
0.000226107
0.000332761
0.000484557
0.000740406
0.00116096
0.000627661
0.00211959
0.00350361
0.00497807
0.0065746
0.00828492
0.0100825
0.0119137
0.0137306
0.0154534
0.0170107
0.0183303
0.0193152
0.0199259
0.0200497
0.0197555
0.0189808
0.0178449
0.0164531
0.0149739
0.013577
0.0124006
0.0115348
0.010935
0.0105536
0.0103084
0.0101735
0.0100992
0.0100562
0.0100333
0.0100214
0.0100063
0.00999111
0.00999786
0.0099859
0.0099885
0.00998871
0.00999554
0.0100028
0.0100003
0.0100033
0.0100055
0.010007
0.00999469
0.00998846
0.00999608
0.00999689
0.00999546
0.00999556
0.0100013
0.0100002
0.00999713
0.0100027
0.0100044
0.010009
0.0100064
0.0100083
0.0100085
0.0100087
0.0100086
0.0100066
0.0100071
0.0100098
0.0100128
0.0100101
0.0100024
0.0100111
0.0100045
0.00998925
0.00999455
0.00999606
0.00999339
0.0100037
0.0100074
0.00999818
0.00999635
0.00999809
0.00998996
0.00998692
0.00998097
0.00997709
0.00998146
)
;

boundaryField
{
    inlet
    {
        type            fixedValue;
        value           uniform 0;
    }
    outlet
    {
        type            zeroGradient;
    }
    yzfaces
    {
        type            empty;
    }
}


// ************************************************************************* //
