/*--------------------------------*- C++ -*----------------------------------*\
| =========                 |                                                 |
| \\      /  F ield         | foam-extend: Open Source CFD                    |
|  \\    /   O peration     | Version:     5.0                                |
|   \\  /    A nd           | Web:         http://www.foam-extend.org         |
|    \\/     M anipulation  |                                                 |
\*---------------------------------------------------------------------------*/
FoamFile
{
    version     2.0;
    format      ascii;
    class       volScalarField;
    location    "1.888102987073446";
    object      Na.water;
}
// * * * * * * * * * * * * * * * * * * * * * * * * * * * * * * * * * * * * * //

dimensions      [0 0 0 0 0 0 0];

internalField   nonuniform List<scalar> 
100
(
0
0.00446053
0.0080381
0.00653624
0.00666587
0.00854485
0.00744138
0.00736653
0.00904094
0.0113326
0.00884122
0.00870446
0.0109231
0.0135203
0.00848631
0.00965023
0.0131524
0.0160084
0.00229124
0.0156195
0.0188788
0.0195937
0.0197597
0.0198296
0.0199003
0.019992
0.020105
0.0202287
0.020359
0.0205297
0.020698
0.0209001
0.0210912
0.0213478
0.0215923
0.0218485
0.0221027
0.0223426
0.0225516
0.0226844
0.0228043
0.022877
0.0229284
0.0229397
0.0229525
0.0229733
0.0229858
0.02299
0.0229952
0.0229778
0.022962
0.0229869
0.0229717
0.0229814
0.0229841
0.0229969
0.0230165
0.0230152
0.0230156
0.0230161
0.0230218
0.0229895
0.0229761
0.0229907
0.0229896
0.0229874
0.0229981
0.0230074
0.0230065
0.0229981
0.0229962
0.0229994
0.0230073
0.0229966
0.0230001
0.023003
0.0230066
0.0230096
0.0230079
0.0230159
0.023023
0.023028
0.0230248
0.0230083
0.0230388
0.0230277
0.0229938
0.0229957
0.0229913
0.0229858
0.0230067
0.0230178
0.0229975
0.0229917
0.0229915
0.0229769
0.0229832
0.0229641
0.0229604
0.0229737
)
;

boundaryField
{
    inlet
    {
        type            fixedValue;
        value           uniform 0;
    }
    outlet
    {
        type            zeroGradient;
    }
    yzfaces
    {
        type            empty;
    }
}


// ************************************************************************* //
