/*--------------------------------*- C++ -*----------------------------------*\
| =========                 |                                                 |
| \\      /  F ield         | foam-extend: Open Source CFD                    |
|  \\    /   O peration     | Version:     5.0                                |
|   \\  /    A nd           | Web:         http://www.foam-extend.org         |
|    \\/     M anipulation  |                                                 |
\*---------------------------------------------------------------------------*/
FoamFile
{
    version     2.0;
    format      ascii;
    class       surfaceScalarField;
    location    "1.888102987073446";
    object      phi;
}
// * * * * * * * * * * * * * * * * * * * * * * * * * * * * * * * * * * * * * //

dimensions      [0 3 -1 0 0 0 0];

internalField   nonuniform List<scalar> 
99
(
1.22288e-06
1.22618e-06
1.22567e-06
1.21772e-06
1.21469e-06
1.21279e-06
1.21195e-06
1.20812e-06
1.20367e-06
1.20023e-06
1.20129e-06
1.20355e-06
1.20417e-06
1.20329e-06
1.20104e-06
1.20302e-06
1.20391e-06
1.20441e-06
1.20624e-06
1.20466e-06
1.2039e-06
1.206e-06
1.20748e-06
1.20661e-06
1.20728e-06
1.20806e-06
1.20805e-06
1.20831e-06
1.20865e-06
1.20779e-06
1.20685e-06
1.20595e-06
1.2061e-06
1.20667e-06
1.20816e-06
1.20857e-06
1.20635e-06
1.20543e-06
1.20505e-06
1.20747e-06
1.20751e-06
1.20818e-06
1.20753e-06
1.20822e-06
1.20951e-06
1.20972e-06
1.20999e-06
1.20864e-06
1.20951e-06
1.20821e-06
1.20974e-06
1.20908e-06
1.21069e-06
1.21095e-06
1.21003e-06
1.21161e-06
1.21035e-06
1.20864e-06
1.2093e-06
1.20802e-06
1.20862e-06
1.20823e-06
1.21071e-06
1.20926e-06
1.2069e-06
1.2079e-06
1.20717e-06
1.20793e-06
1.2071e-06
1.20809e-06
1.20813e-06
1.20878e-06
1.20834e-06
1.20974e-06
1.21015e-06
1.21145e-06
1.21025e-06
1.21086e-06
1.21042e-06
1.20938e-06
1.21194e-06
1.21132e-06
1.20922e-06
1.21044e-06
1.20939e-06
1.20776e-06
1.20559e-06
1.20558e-06
1.2069e-06
1.20651e-06
1.20584e-06
1.2054e-06
1.20516e-06
1.20455e-06
1.20274e-06
1.1994e-06
1.19841e-06
1.19833e-06
1.19703e-06
)
;

boundaryField
{
    inlet
    {
        type            calculated;
        value           uniform -1.225e-06;
    }
    outlet
    {
        type            calculated;
        value           uniform 1.19591e-06;
    }
    yzfaces
    {
        type            empty;
    }
}


// ************************************************************************* //
