/*--------------------------------*- C++ -*----------------------------------*\
| =========                 |                                                 |
| \\      /  F ield         | foam-extend: Open Source CFD                    |
|  \\    /   O peration     | Version:     5.0                                |
|   \\  /    A nd           | Web:         http://www.foam-extend.org         |
|    \\/     M anipulation  |                                                 |
\*---------------------------------------------------------------------------*/
FoamFile
{
    version     2.0;
    format      ascii;
    class       volScalarField;
    location    "1.888102987073446";
    object      S.gas;
}
// * * * * * * * * * * * * * * * * * * * * * * * * * * * * * * * * * * * * * //

dimensions      [0 0 0 0 0 0 0];

internalField   nonuniform List<scalar> 
100
(
0.659366
0.572952
0.51888
0.48087
0.449935
0.424865
0.402808
0.382669
0.364912
0.348632
0.332522
0.317746
0.303666
0.290353
0.275715
0.25972
0.244334
0.230185
0.135146
0.162106
0.174927
0.179972
0.180995
0.179769
0.177168
0.173657
0.169396
0.164403
0.158723
0.152279
0.145049
0.136907
0.127867
0.118091
0.107656
0.097053
0.0866552
0.0770875
0.0688892
0.0624576
0.0578248
0.0547308
0.0527775
0.0515833
0.0509046
0.0505088
0.050281
0.0501594
0.0500878
0.050045
0.05001
0.0500019
0.0499975
0.0499843
0.0499964
0.050008
0.0500025
0.0499999
0.0500116
0.0500124
0.049994
0.0499939
0.0499964
0.0500057
0.0500127
0.0500086
0.050001
0.0499976
0.0500047
0.0500039
0.0500142
0.0500112
0.0500155
0.0500185
0.0500104
0.0500127
0.0500012
0.0500074
0.0500096
0.050007
0.0500074
0.0500038
0.049994
0.0499965
0.0499807
0.0499837
0.0499792
0.0500014
0.050008
0.0500014
0.0500014
0.0499985
0.0499971
0.0499928
0.0500044
0.0499865
0.0499777
0.0499827
0.0499701
0.0499678
)
;

boundaryField
{
    inlet
    {
        type            calculated;
        value           uniform 1;
    }
    outlet
    {
        type            calculated;
        value           uniform 0.0499678;
    }
    yzfaces
    {
        type            empty;
    }
}


// ************************************************************************* //
