/*--------------------------------*- C++ -*----------------------------------*\
| =========                 |                                                 |
| \\      /  F ield         | foam-extend: Open Source CFD                    |
|  \\    /   O peration     | Version:     5.0                                |
|   \\  /    A nd           | Web:         http://www.foam-extend.org         |
|    \\/     M anipulation  |                                                 |
\*---------------------------------------------------------------------------*/
FoamFile
{
    version     2.0;
    format      ascii;
    class       volVectorField;
    location    "1.888102987073446";
    object      U.gas;
}
// * * * * * * * * * * * * * * * * * * * * * * * * * * * * * * * * * * * * * //

dimensions      [0 1 -1 0 0 0 0];

internalField   nonuniform List<vector> 
100
(
(0.00751987 0 0)
(0.00852457 0 0)
(0.00927118 0 0)
(0.00980585 0 0)
(0.0102581 0 0)
(0.0106545 0 0)
(0.0110243 0 0)
(0.0113592 0 0)
(0.0116291 0 0)
(0.0118745 0 0)
(0.0121465 0 0)
(0.012405 0 0)
(0.0126424 0 0)
(0.0128317 0 0)
(0.0130358 0 0)
(0.0132468 0 0)
(0.01339 0 0)
(0.0134468 0 0)
(0.016599 0 0)
(0.0105881 0 0)
(0.0117875 0 0)
(0.0123044 0 0)
(0.0125293 0 0)
(0.0126109 0 0)
(0.0126166 0 0)
(0.0125842 0 0)
(0.0125185 0 0)
(0.0124177 0 0)
(0.0122805 0 0)
(0.0121018 0 0)
(0.0118658 0 0)
(0.0115665 0 0)
(0.0111897 0 0)
(0.0107234 0 0)
(0.0101591 0 0)
(0.00947566 0 0)
(0.00869539 0 0)
(0.00785698 0 0)
(0.00704097 0 0)
(0.00631801 0 0)
(0.005737 0 0)
(0.00530922 0 0)
(0.00502229 0 0)
(0.00484016 0 0)
(0.00473296 0 0)
(0.00467393 0 0)
(0.00463888 0 0)
(0.00461502 0 0)
(0.0046025 0 0)
(0.00459572 0 0)
(0.00459192 0 0)
(0.00459026 0 0)
(0.00459127 0 0)
(0.00459487 0 0)
(0.0045921 0 0)
(0.00459376 0 0)
(0.00459565 0 0)
(0.00458949 0 0)
(0.0045877 0 0)
(0.00458793 0 0)
(0.00458623 0 0)
(0.00458463 0 0)
(0.00458881 0 0)
(0.00459076 0 0)
(0.00458411 0 0)
(0.00458296 0 0)
(0.00458349 0 0)
(0.00458261 0 0)
(0.00458238 0 0)
(0.00458294 0 0)
(0.00458472 0 0)
(0.00458723 0 0)
(0.00458679 0 0)
(0.00458879 0 0)
(0.0045932 0 0)
(0.00459601 0 0)
(0.00459601 0 0)
(0.00459391 0 0)
(0.00459538 0 0)
(0.0045933 0 0)
(0.00459564 0 0)
(0.00459928 0 0)
(0.00459347 0 0)
(0.00459068 0 0)
(0.00459202 0 0)
(0.00458469 0 0)
(0.00457667 0 0)
(0.00457343 0 0)
(0.00457845 0 0)
(0.00457992 0 0)
(0.00457689 0 0)
(0.0045751 0 0)
(0.00457373 0 0)
(0.00457178 0 0)
(0.00456628 0 0)
(0.00455724 0 0)
(0.00454789 0 0)
(0.00454583 0 0)
(0.00454398 0 0)
(0.00453829 0 0)
)
;

boundaryField
{
    inlet
    {
        type            fixedValue;
        value           uniform (0.005 0 0);
    }
    outlet
    {
        type            zeroGradient;
    }
    yzfaces
    {
        type            empty;
    }
}


// ************************************************************************* //
