/*--------------------------------*- C++ -*----------------------------------*\
| =========                 |                                                 |
| \\      /  F ield         | foam-extend: Open Source CFD                    |
|  \\    /   O peration     | Version:     5.0                                |
|   \\  /    A nd           | Web:         http://www.foam-extend.org         |
|    \\/     M anipulation  |                                                 |
\*---------------------------------------------------------------------------*/
FoamFile
{
    version     2.0;
    format      ascii;
    class       volVectorField;
    location    "1.888102987073446";
    object      U.water;
}
// * * * * * * * * * * * * * * * * * * * * * * * * * * * * * * * * * * * * * //

dimensions      [0 1 -1 0 0 0 0];

internalField   nonuniform List<vector> 
100
(
(0.000109598 0 0)
(0.000266729 0 0)
(0.000401455 0 0)
(0.000522378 0 0)
(0.00063379 0 0)
(0.000742962 0 0)
(0.000850256 0 0)
(0.000959139 0 0)
(0.00106823 0 0)
(0.00117614 0 0)
(0.00129156 0 0)
(0.00141618 0 0)
(0.00154327 0 0)
(0.00167331 0 0)
(0.00181229 0 0)
(0.00198005 0 0)
(0.00217086 0 0)
(0.00236378 0 0)
(0.00309465 0 0)
(0.00382366 0 0)
(0.00345846 0 0)
(0.00329712 0 0)
(0.00324508 0 0)
(0.00324258 0 0)
(0.00327049 0 0)
(0.00332058 0 0)
(0.00338338 0 0)
(0.00345841 0 0)
(0.00354624 0 0)
(0.00364348 0 0)
(0.00375074 0 0)
(0.00387044 0 0)
(0.00400371 0 0)
(0.00414747 0 0)
(0.00429715 0 0)
(0.00444375 0 0)
(0.00457102 0 0)
(0.00467686 0 0)
(0.00476239 0 0)
(0.00483061 0 0)
(0.00487892 0 0)
(0.00490802 0 0)
(0.00492487 0 0)
(0.00493499 0 0)
(0.00494493 0 0)
(0.0049512 0 0)
(0.00495404 0 0)
(0.00495293 0 0)
(0.00495252 0 0)
(0.00495194 0 0)
(0.00495262 0 0)
(0.00495458 0 0)
(0.00495657 0 0)
(0.0049604 0 0)
(0.00495913 0 0)
(0.00496047 0 0)
(0.00496105 0 0)
(0.00495497 0 0)
(0.00495283 0 0)
(0.0049515 0 0)
(0.00495011 0 0)
(0.00495065 0 0)
(0.00495491 0 0)
(0.00495702 0 0)
(0.00494919 0 0)
(0.00494633 0 0)
(0.00494688 0 0)
(0.00494699 0 0)
(0.00494685 0 0)
(0.00494716 0 0)
(0.00494929 0 0)
(0.00495064 0 0)
(0.00495112 0 0)
(0.00495309 0 0)
(0.00495673 0 0)
(0.00496026 0 0)
(0.00496048 0 0)
(0.00495931 0 0)
(0.0049596 0 0)
(0.00495654 0 0)
(0.00495969 0 0)
(0.00496367 0 0)
(0.00495812 0 0)
(0.00495637 0 0)
(0.00495665 0 0)
(0.00495129 0 0)
(0.00494356 0 0)
(0.00493905 0 0)
(0.00494159 0 0)
(0.0049435 0 0)
(0.00494139 0 0)
(0.00493911 0 0)
(0.00493771 0 0)
(0.00493598 0 0)
(0.00493107 0 0)
(0.00492049 0 0)
(0.00491168 0 0)
(0.00490949 0 0)
(0.00490661 0 0)
(0.00490171 0 0)
)
;

boundaryField
{
    inlet
    {
        type            fixedValue;
        value           uniform (0 0 0);
    }
    outlet
    {
        type            zeroGradient;
    }
    yzfaces
    {
        type            empty;
    }
}


// ************************************************************************* //
