/*--------------------------------*- C++ -*----------------------------------*\
| =========                 |                                                 |
| \\      /  F ield         | foam-extend: Open Source CFD                    |
|  \\    /   O peration     | Version:     5.0                                |
|   \\  /    A nd           | Web:         http://www.foam-extend.org         |
|    \\/     M anipulation  |                                                 |
\*---------------------------------------------------------------------------*/
FoamFile
{
    version     2.0;
    format      ascii;
    class       surfaceScalarField;
    location    "2";
    object      phi.water;
}
// * * * * * * * * * * * * * * * * * * * * * * * * * * * * * * * * * * * * * //

dimensions      [0 3 -1 0 0 0 0];

internalField   nonuniform List<scalar> 
99
(
3.86842e-07
6.86954e-07
9.62741e-07
1.22418e-06
1.47469e-06
1.71756e-06
1.95428e-06
2.18535e-06
2.4109e-06
2.63214e-06
2.85032e-06
3.06402e-06
3.27347e-06
3.4793e-06
3.68558e-06
3.88553e-06
4.08664e-06
4.28353e-06
4.47901e-06
4.6702e-06
4.86069e-06
5.04739e-06
5.23235e-06
5.4179e-06
5.59847e-06
5.78057e-06
5.96237e-06
6.14063e-06
6.31657e-06
6.49579e-06
6.66839e-06
6.838e-06
7.01001e-06
7.18166e-06
7.34991e-06
7.51718e-06
7.68608e-06
7.84932e-06
8.01414e-06
8.17497e-06
8.33833e-06
8.4987e-06
8.65864e-06
8.81795e-06
8.97368e-06
9.12966e-06
9.28749e-06
9.44311e-06
9.59584e-06
9.74954e-06
9.90322e-06
1.00568e-05
1.02089e-05
1.03613e-05
1.05129e-05
1.06645e-05
1.08127e-05
1.09621e-05
1.11131e-05
1.1259e-05
1.14047e-05
1.15532e-05
1.16982e-05
1.18415e-05
1.19889e-05
1.21292e-05
1.22748e-05
1.24126e-05
1.25568e-05
1.27005e-05
1.28383e-05
1.29826e-05
1.3119e-05
1.32576e-05
1.33985e-05
1.35362e-05
1.36736e-05
1.38086e-05
1.39481e-05
1.40822e-05
1.42205e-05
1.43574e-05
1.44909e-05
1.46271e-05
1.47592e-05
1.48931e-05
1.50266e-05
1.51587e-05
1.529e-05
1.54204e-05
1.55548e-05
1.56882e-05
1.58182e-05
1.59503e-05
1.60831e-05
1.6211e-05
1.63385e-05
1.64723e-05
1.65977e-05
)
;

boundaryField
{
    inlet
    {
        type            fixedValue;
        value           uniform 0;
    }
    outlet
    {
        type            calculated;
        value           uniform 1.67534e-05;
    }
    yzfaces
    {
        type            empty;
    }
}


// ************************************************************************* //
