/*--------------------------------*- C++ -*----------------------------------*\
| =========                 |                                                 |
| \\      /  F ield         | foam-extend: Open Source CFD                    |
|  \\    /   O peration     | Version:     5.0                                |
|   \\  /    A nd           | Web:         http://www.foam-extend.org         |
|    \\/     M anipulation  |                                                 |
\*---------------------------------------------------------------------------*/
FoamFile
{
    version     2.0;
    format      ascii;
    class       surfaceScalarField;
    location    "2";
    object      phi.gas;
}
// * * * * * * * * * * * * * * * * * * * * * * * * * * * * * * * * * * * * * //

dimensions      [0 3 -1 0 0 0 0];

internalField   nonuniform List<scalar> 
99
(
0.000646581
0.00066092
0.000673731
0.000685522
0.00069638
0.000706748
0.000716722
0.000726081
0.000735142
0.000743666
0.000751995
0.000760153
0.000767784
0.000775205
0.000782604
0.00078973
0.000796742
0.000803533
0.000810297
0.00081666
0.000823092
0.00082907
0.000835029
0.000840828
0.000846477
0.000852184
0.000857798
0.000863135
0.000868542
0.000873866
0.000878943
0.000883883
0.000888949
0.00089395
0.000898766
0.000903468
0.000908257
0.000912747
0.000917341
0.000921727
0.000926154
0.000930521
0.000934798
0.000938983
0.000943209
0.000947313
0.000951459
0.000955473
0.000959315
0.000963315
0.000967124
0.000971103
0.000974897
0.000978648
0.000982508
0.000986197
0.000989832
0.000993545
0.000997158
0.00100073
0.00100415
0.00100781
0.00101122
0.00101453
0.00101799
0.00102133
0.00102466
0.00102785
0.00103118
0.00103445
0.00103759
0.00104086
0.0010439
0.00104708
0.00105027
0.00105337
0.00105632
0.00105929
0.0010623
0.00106528
0.00106825
0.00107126
0.00107412
0.00107707
0.00107987
0.00108269
0.00108559
0.00108832
0.00109106
0.00109379
0.00109662
0.00109938
0.00110214
0.0011049
0.00110767
0.00111029
0.00111293
0.00111564
0.00111821
)
;

boundaryField
{
    inlet
    {
        type            fixedValue;
        value           uniform -0.0006125;
    }
    outlet
    {
        type            calculated;
        value           uniform 0.0011196;
    }
    yzfaces
    {
        type            empty;
    }
}


// ************************************************************************* //
