/*--------------------------------*- C++ -*----------------------------------*\
| =========                 |                                                 |
| \\      /  F ield         | foam-extend: Open Source CFD                    |
|  \\    /   O peration     | Version:     5.0                                |
|   \\  /    A nd           | Web:         http://www.foam-extend.org         |
|    \\/     M anipulation  |                                                 |
\*---------------------------------------------------------------------------*/
FoamFile
{
    version     2.0;
    format      ascii;
    class       volScalarField;
    location    "7";
    object      alpha.gas;
}
// * * * * * * * * * * * * * * * * * * * * * * * * * * * * * * * * * * * * * //

dimensions      [0 0 0 0 0 0 0];

internalField   nonuniform List<scalar> 
100
(
0.163837
0.150754
0.141179
0.134434
0.129207
0.124955
0.119448
0.114966
0.111677
0.108848
0.106025
0.103426
0.101501
0.0995021
0.0971667
0.0953805
0.093883
0.0919769
0.0906189
0.0886756
0.0867839
0.0856868
0.0847094
0.0835263
0.0828168
0.0821002
0.080947
0.0797071
0.0787605
0.0776935
0.0769359
0.0760396
0.0753389
0.0746601
0.0738063
0.0729838
0.0718664
0.0709262
0.0700089
0.0689976
0.068214
0.0674146
0.066529
0.065903
0.0653135
0.0646166
0.0638274
0.0629913
0.0622947
0.061652
0.0609909
0.0601314
0.059294
0.058433
0.0575654
0.0564944
0.0553488
0.0540075
0.052453
0.0505017
0.0482226
0.0445494
0.0386465
0.0266044
0.0242292
0.023634
0.0236473
0.0238144
0.0240367
0.0242769
0.0245111
0.0247273
0.0249298
0.0250857
0.0252187
0.0253323
0.025427
0.0254887
0.0255288
0.0255506
0.0255669
0.0255906
0.0256037
0.0256092
0.0256068
0.025587
0.0255728
0.025555
0.0255351
0.0255049
0.0254732
0.0254285
0.0253754
0.0253098
0.0252309
0.0251411
0.0250299
0.024892
0.0247245
0.024518
)
;

boundaryField
{
    inlet
    {
        type            fixedValue;
        value           uniform 0.2;
    }
    outlet
    {
        type            zeroGradient;
    }
    yzfaces
    {
        type            empty;
    }
}


// ************************************************************************* //
