/*--------------------------------*- C++ -*----------------------------------*\
| =========                 |                                                 |
| \\      /  F ield         | foam-extend: Open Source CFD                    |
|  \\    /   O peration     | Version:     5.0                                |
|   \\  /    A nd           | Web:         http://www.foam-extend.org         |
|    \\/     M anipulation  |                                                 |
\*---------------------------------------------------------------------------*/
FoamFile
{
    version     2.0;
    format      ascii;
    class       volScalarField;
    location    "7";
    object      CO2.water;
}
// * * * * * * * * * * * * * * * * * * * * * * * * * * * * * * * * * * * * * //

dimensions      [0 0 0 0 0 0 0];

internalField   nonuniform List<scalar> 
100
(
0.000947795
0.00128995
0.00153811
0.00171059
0.00185727
0.00196629
0.00211017
0.00221564
0.00231406
0.00239182
0.00245643
0.00251657
0.00257562
0.00262014
0.00267329
0.00272266
0.00276121
0.00280712
0.00285006
0.00289628
0.00295689
0.00299646
0.00302136
0.0030562
0.00307638
0.00309418
0.00312062
0.00314936
0.00317559
0.00320095
0.00322394
0.00324896
0.00327217
0.00328658
0.00330549
0.00332962
0.00335607
0.00338535
0.00340821
0.00342961
0.0034537
0.0034774
0.00350113
0.00351875
0.00353633
0.00355446
0.00356947
0.00358703
0.00360673
0.00362717
0.00364717
0.00366637
0.00369146
0.00371581
0.00373907
0.00376474
0.00379395
0.00383457
0.00386946
0.00392528
0.00398307
0.00408235
0.00423554
0.00454387
0.00197697
0.000758553
0.000280824
0.000102719
3.73615e-05
1.35466e-05
4.90009e-06
1.77458e-06
6.446e-07
2.35178e-07
8.62196e-08
3.17405e-08
1.17004e-08
4.31314e-09
1.58823e-09
5.83086e-10
2.1338e-10
7.76659e-11
2.80661e-11
1.00912e-11
3.6045e-12
1.28079e-12
4.53874e-13
1.60662e-13
5.71414e-14
2.05543e-14
7.56125e-15
2.88048e-15
1.14778e-15
4.81805e-16
2.13248e-16
9.889e-17
4.74945e-17
2.33773e-17
1.17063e-17
5.96213e-18
)
;

boundaryField
{
    inlet
    {
        type            fixedValue;
        value           uniform 0;
    }
    outlet
    {
        type            zeroGradient;
    }
    yzfaces
    {
        type            empty;
    }
}


// ************************************************************************* //
