/*--------------------------------*- C++ -*----------------------------------*\
| =========                 |                                                 |
| \\      /  F ield         | foam-extend: Open Source CFD                    |
|  \\    /   O peration     | Version:     5.0                                |
|   \\  /    A nd           | Web:         http://www.foam-extend.org         |
|    \\/     M anipulation  |                                                 |
\*---------------------------------------------------------------------------*/
FoamFile
{
    version     2.0;
    format      ascii;
    class       volScalarField;
    location    "7";
    object      H2O.water;
}
// * * * * * * * * * * * * * * * * * * * * * * * * * * * * * * * * * * * * * //

dimensions      [0 0 0 0 0 0 0];

internalField   nonuniform List<scalar> 
100
(
0.0268529
0.0365381
0.0435828
0.048463
0.0526186
0.0556912
0.0597549
0.0627821
0.0655421
0.0677417
0.0695917
0.0713454
0.0729917
0.0742368
0.0757577
0.0771283
0.0782119
0.0795331
0.0807786
0.0820829
0.0837928
0.0849016
0.0856307
0.0865939
0.0871521
0.0876742
0.0885006
0.0892529
0.0899846
0.0906886
0.0913274
0.0920381
0.092717
0.093169
0.0936674
0.0943291
0.0950908
0.0959066
0.0965612
0.0971442
0.0978466
0.0985148
0.0992013
0.0996737
0.100182
0.100701
0.101155
0.101675
0.102214
0.102785
0.103371
0.103887
0.104603
0.105262
0.105911
0.106641
0.107482
0.108651
0.109633
0.111212
0.112838
0.11566
0.120006
0.128792
0.131891
0.133065
0.133425
0.133415
0.133318
0.133206
0.132975
0.132801
0.132651
0.132598
0.132554
0.132529
0.132398
0.132348
0.132323
0.132252
0.132342
0.13229
0.132183
0.132189
0.132128
0.132136
0.132242
0.132233
0.132202
0.132237
0.132229
0.132335
0.132409
0.132414
0.132501
0.13257
0.132635
0.132675
0.132832
0.132992
)
;

boundaryField
{
    inlet
    {
        type            fixedValue;
        value           uniform 0;
    }
    outlet
    {
        type            zeroGradient;
    }
    yzfaces
    {
        type            empty;
    }
}


// ************************************************************************* //
