/*--------------------------------*- C++ -*----------------------------------*\
| =========                 |                                                 |
| \\      /  F ield         | foam-extend: Open Source CFD                    |
|  \\    /   O peration     | Version:     5.0                                |
|   \\  /    A nd           | Web:         http://www.foam-extend.org         |
|    \\/     M anipulation  |                                                 |
\*---------------------------------------------------------------------------*/
FoamFile
{
    version     2.0;
    format      ascii;
    class       surfaceScalarField;
    location    "7";
    object      phi.water;
}
// * * * * * * * * * * * * * * * * * * * * * * * * * * * * * * * * * * * * * //

dimensions      [0 3 -1 0 0 0 0];

internalField   nonuniform List<scalar> 
99
(
7.90308e-08
1.37767e-07
1.94207e-07
2.42513e-07
2.82862e-07
3.18638e-07
3.7254e-07
4.25322e-07
4.65683e-07
5.05846e-07
5.51414e-07
5.93417e-07
6.24963e-07
6.59689e-07
7.08093e-07
7.48084e-07
7.81103e-07
8.32449e-07
8.62687e-07
9.09268e-07
9.66796e-07
9.97627e-07
1.02455e-06
1.0656e-06
1.08299e-06
1.10149e-06
1.13733e-06
1.18293e-06
1.21158e-06
1.25786e-06
1.28281e-06
1.31828e-06
1.34881e-06
1.37427e-06
1.40623e-06
1.43573e-06
1.48271e-06
1.51975e-06
1.56108e-06
1.61369e-06
1.6507e-06
1.689e-06
1.737e-06
1.76679e-06
1.79166e-06
1.82854e-06
1.86919e-06
1.9212e-06
1.96264e-06
1.99569e-06
2.0335e-06
2.08016e-06
2.13179e-06
2.18672e-06
2.23496e-06
2.31422e-06
2.39366e-06
2.48516e-06
2.60491e-06
2.74784e-06
2.91402e-06
3.20486e-06
3.69501e-06
4.99092e-06
5.29896e-06
5.37449e-06
5.37576e-06
5.3682e-06
5.34517e-06
5.32008e-06
5.29533e-06
5.28002e-06
5.25666e-06
5.24143e-06
5.23195e-06
5.22228e-06
5.20928e-06
5.20385e-06
5.202e-06
5.19912e-06
5.20036e-06
5.19571e-06
5.20066e-06
5.19763e-06
5.19697e-06
5.19993e-06
5.20087e-06
5.20216e-06
5.19753e-06
5.20632e-06
5.20808e-06
5.20818e-06
5.21098e-06
5.21349e-06
5.22723e-06
5.23593e-06
5.24369e-06
5.26071e-06
5.27398e-06
)
;

boundaryField
{
    inlet
    {
        type            fixedValue;
        value           uniform 0;
    }
    outlet
    {
        type            calculated;
        value           uniform 5.29855e-06;
    }
    yzfaces
    {
        type            empty;
    }
}


// ************************************************************************* //
