/*--------------------------------*- C++ -*----------------------------------*\
| =========                 |                                                 |
| \\      /  F ield         | foam-extend: Open Source CFD                    |
|  \\    /   O peration     | Version:     5.0                                |
|   \\  /    A nd           | Web:         http://www.foam-extend.org         |
|    \\/     M anipulation  |                                                 |
\*---------------------------------------------------------------------------*/
FoamFile
{
    version     2.0;
    format      ascii;
    class       volVectorField;
    location    "7";
    object      U.gas;
}
// * * * * * * * * * * * * * * * * * * * * * * * * * * * * * * * * * * * * * //

dimensions      [0 1 -1 0 0 0 0];

internalField   nonuniform List<vector> 
100
(
(0.00608132 0 0)
(0.00660207 0 0)
(0.00706795 0 0)
(0.00740812 0 0)
(0.00767752 0 0)
(0.00790727 0 0)
(0.00816566 0 0)
(0.00841136 0 0)
(0.00860714 0 0)
(0.00879836 0 0)
(0.00901588 0 0)
(0.00919908 0 0)
(0.00931373 0 0)
(0.00943501 0 0)
(0.00961247 0 0)
(0.00976986 0 0)
(0.00991504 0 0)
(0.0101374 0 0)
(0.010292 0 0)
(0.0104589 0 0)
(0.0106519 0 0)
(0.0107821 0 0)
(0.0108731 0 0)
(0.0110108 0 0)
(0.0110661 0 0)
(0.0110931 0 0)
(0.0111776 0 0)
(0.011297 0 0)
(0.011373 0 0)
(0.011483 0 0)
(0.0115673 0 0)
(0.0116554 0 0)
(0.0117337 0 0)
(0.0118085 0 0)
(0.0118748 0 0)
(0.0119159 0 0)
(0.0120145 0 0)
(0.0120764 0 0)
(0.0121381 0 0)
(0.0122462 0 0)
(0.0123188 0 0)
(0.0123923 0 0)
(0.0124877 0 0)
(0.0125285 0 0)
(0.0125541 0 0)
(0.0126045 0 0)
(0.0126616 0 0)
(0.0127376 0 0)
(0.012805 0 0)
(0.0128482 0 0)
(0.0128893 0 0)
(0.0129486 0 0)
(0.0129952 0 0)
(0.0130608 0 0)
(0.0131046 0 0)
(0.0131931 0 0)
(0.0133042 0 0)
(0.0134045 0 0)
(0.0135177 0 0)
(0.0136669 0 0)
(0.0137653 0 0)
(0.0140086 0 0)
(0.01437 0 0)
(0.0150972 0 0)
(0.0115088 0 0)
(0.0105328 0 0)
(0.0103339 0 0)
(0.0103443 0 0)
(0.0104009 0 0)
(0.0104664 0 0)
(0.0105373 0 0)
(0.0106131 0 0)
(0.0106795 0 0)
(0.0107411 0 0)
(0.0107959 0 0)
(0.0108437 0 0)
(0.0108756 0 0)
(0.0109024 0 0)
(0.010924 0 0)
(0.0109383 0 0)
(0.0109532 0 0)
(0.0109585 0 0)
(0.0109632 0 0)
(0.0109673 0 0)
(0.0109649 0 0)
(0.0109675 0 0)
(0.0109662 0 0)
(0.0109619 0 0)
(0.0109466 0 0)
(0.0109393 0 0)
(0.0109375 0 0)
(0.0109273 0 0)
(0.0109092 0 0)
(0.0108878 0 0)
(0.0108735 0 0)
(0.0108576 0 0)
(0.0108277 0 0)
(0.0107977 0 0)
(0.0107604 0 0)
(0.0107074 0 0)
)
;

boundaryField
{
    inlet
    {
        type            fixedValue;
        value           uniform (0.005 0 0);
    }
    outlet
    {
        type            zeroGradient;
    }
    yzfaces
    {
        type            empty;
    }
}


// ************************************************************************* //
