/*--------------------------------*- C++ -*----------------------------------*\
| =========                 |                                                 |
| \\      /  F ield         | foam-extend: Open Source CFD                    |
|  \\    /   O peration     | Version:     5.0                                |
|   \\  /    A nd           | Web:         http://www.foam-extend.org         |
|    \\/     M anipulation  |                                                 |
\*---------------------------------------------------------------------------*/
FoamFile
{
    version     2.0;
    format      ascii;
    class       volScalarField;
    location    "1";
    object      alpha.gas;
}
// * * * * * * * * * * * * * * * * * * * * * * * * * * * * * * * * * * * * * //

dimensions      [0 0 0 0 0 0 0];

internalField   nonuniform List<scalar> 
100
(
0.113432
0.0952685
0.084297
0.0765105
0.0699947
0.0644381
0.0595384
0.0552247
0.0514642
0.0383858
0.034657
0.0344211
0.0346234
0.0341977
0.033021
0.0312537
0.029098
0.026646
0.0240099
0.0212472
0.0185086
0.0159937
0.0139013
0.0123483
0.0113294
0.0107199
0.0103752
0.010194
0.010098
0.0100497
0.0100249
0.0100111
0.0100061
0.0100038
0.0100018
0.0100001
0.00999997
0.00999987
0.0100001
0.0100004
0.0100008
0.0100009
0.0100009
0.00999986
0.010001
0.0100002
0.0100015
0.0100006
0.00999951
0.0100003
0.00999824
0.00999919
0.00999905
0.0100002
0.00999924
0.00999944
0.00999821
0.00999824
0.00999889
0.00999935
0.00999999
0.010002
0.0100028
0.0100036
0.0100042
0.0100033
0.0100023
0.0100016
0.0100006
0.0100011
0.0100012
0.0100028
0.010002
0.0100013
0.0100007
0.0100006
0.0100008
0.00999981
0.0100002
0.0100012
0.0100018
0.0100027
0.0100042
0.0100043
0.0100049
0.0100061
0.0100032
0.0100031
0.0100017
0.0100018
0.00999921
0.00999941
0.00999923
0.0099986
0.0100007
0.0100003
0.0100012
0.0100027
0.0100028
0.0100021
)
;

boundaryField
{
    inlet
    {
        type            fixedValue;
        value           uniform 0.2;
    }
    outlet
    {
        type            zeroGradient;
    }
    yzfaces
    {
        type            empty;
    }
}


// ************************************************************************* //
