/*--------------------------------*- C++ -*----------------------------------*\
| =========                 |                                                 |
| \\      /  F ield         | foam-extend: Open Source CFD                    |
|  \\    /   O peration     | Version:     5.0                                |
|   \\  /    A nd           | Web:         http://www.foam-extend.org         |
|    \\/     M anipulation  |                                                 |
\*---------------------------------------------------------------------------*/
FoamFile
{
    version     2.0;
    format      ascii;
    class       volScalarField;
    location    "1";
    object      Cl.water;
}
// * * * * * * * * * * * * * * * * * * * * * * * * * * * * * * * * * * * * * //

dimensions      [0 0 0 0 0 0 0];

internalField   nonuniform List<scalar> 
100
(
0
0.00640728
0.0107126
0.0132949
0.00743386
0.00872562
0.0122246
0.0150636
0.0168433
0.0034775
0.0138876
0.0184078
0.0196437
0.0199799
0.0201851
0.0204054
0.0206865
0.0209995
0.021315
0.0216445
0.0219786
0.0222813
0.0225241
0.0227157
0.0228344
0.0229089
0.0229541
0.0229742
0.0229895
0.0229891
0.0229947
0.0229873
0.0229822
0.02299
0.0230022
0.0229865
0.0229907
0.0229769
0.0229851
0.0229851
0.0229905
0.0229997
0.022988
0.023008
0.0230107
0.023002
0.0230148
0.0230105
0.0230075
0.0229964
0.0230014
0.0230066
0.0230174
0.0230098
0.0230092
0.0230173
0.0230097
0.0230054
0.0229999
0.0229901
0.0229868
0.0229955
0.0230089
0.0230025
0.0230062
0.0230112
0.023008
0.0230069
0.0230011
0.0230014
0.0229885
0.0229776
0.0229913
0.0229993
0.0230015
0.0230078
0.0230141
0.0230142
0.0230003
0.0229936
0.0229852
0.0229879
0.0229953
0.0229985
0.022985
0.0229958
0.0229881
0.0229894
0.022993
0.0229928
0.0229863
0.0229858
0.0229841
0.0229758
0.0229712
0.0229969
0.0230038
0.0230119
0.0229982
0.0229896
)
;

boundaryField
{
    inlet
    {
        type            fixedValue;
        value           uniform 0;
    }
    outlet
    {
        type            zeroGradient;
    }
    yzfaces
    {
        type            empty;
    }
}


// ************************************************************************* //
