/*--------------------------------*- C++ -*----------------------------------*\
| =========                 |                                                 |
| \\      /  F ield         | foam-extend: Open Source CFD                    |
|  \\    /   O peration     | Version:     5.0                                |
|   \\  /    A nd           | Web:         http://www.foam-extend.org         |
|    \\/     M anipulation  |                                                 |
\*---------------------------------------------------------------------------*/
FoamFile
{
    version     2.0;
    format      ascii;
    class       volScalarField;
    location    "1";
    object      H2O.gas;
}
// * * * * * * * * * * * * * * * * * * * * * * * * * * * * * * * * * * * * * //

dimensions      [0 0 0 0 0 0 0];

internalField   nonuniform List<scalar> 
100
(
1.0627e-08
2.80043e-06
1.58718e-05
5.39372e-05
0.000122901
0.000241023
0.000453231
0.000834036
0.00146741
0.00127301
0.00266916
0.00469777
0.00696538
0.00932152
0.0116463
0.0137758
0.0155726
0.016816
0.0173705
0.0171564
0.0162669
0.0149124
0.0134432
0.0121813
0.0112723
0.0107009
0.0103698
0.0101916
0.0100971
0.0100484
0.0100242
0.0100072
0.00999889
0.00999972
0.0100025
0.00999517
0.00999606
0.00999226
0.00999608
0.00999569
0.00999771
0.0100044
0.00999984
0.0100079
0.0100099
0.0100032
0.0100081
0.0100045
0.0100039
0.00999959
0.010001
0.0100028
0.0100052
0.0100032
0.0100028
0.010006
0.010003
0.0100008
0.00999887
0.00999439
0.00999034
0.00999473
0.0100024
0.0100013
0.0100051
0.0100082
0.0100074
0.0100068
0.0100025
0.0100045
0.00999653
0.0099925
0.00999843
0.00999978
0.00999894
0.0100018
0.0100038
0.0100017
0.00999736
0.00999633
0.00999525
0.00999383
0.00999648
0.00999868
0.00999477
0.0100042
0.0099988
0.00999778
0.00999644
0.00999726
0.00999416
0.00999354
0.00999346
0.00999059
0.00999054
0.00999913
0.0100013
0.0100043
0.00999955
0.00999915
)
;

boundaryField
{
    inlet
    {
        type            fixedValue;
        value           uniform 0;
    }
    outlet
    {
        type            zeroGradient;
    }
    yzfaces
    {
        type            empty;
    }
}


// ************************************************************************* //
