/*--------------------------------*- C++ -*----------------------------------*\
| =========                 |                                                 |
| \\      /  F ield         | foam-extend: Open Source CFD                    |
|  \\    /   O peration     | Version:     5.0                                |
|   \\  /    A nd           | Web:         http://www.foam-extend.org         |
|    \\/     M anipulation  |                                                 |
\*---------------------------------------------------------------------------*/
FoamFile
{
    version     2.0;
    format      ascii;
    class       volScalarField;
    location    "1";
    object      Na.water;
}
// * * * * * * * * * * * * * * * * * * * * * * * * * * * * * * * * * * * * * //

dimensions      [0 0 0 0 0 0 0];

internalField   nonuniform List<scalar> 
100
(
0
0.00640459
0.0107086
0.0132923
0.00743531
0.0087248
0.0122228
0.0150615
0.0168447
0.00347871
0.013885
0.0184016
0.0196389
0.0199774
0.0201863
0.0204115
0.0206939
0.0210022
0.021313
0.0216334
0.0219702
0.0222698
0.0225178
0.0227124
0.0228385
0.0229145
0.0229576
0.0229846
0.0229972
0.0229957
0.022995
0.0229851
0.0229743
0.0229848
0.0229989
0.0229846
0.0229897
0.0229797
0.0229913
0.0229912
0.0229912
0.023
0.0229876
0.0229998
0.0230019
0.0229955
0.0230105
0.0230026
0.0230069
0.0230025
0.023015
0.0230191
0.0230278
0.0230186
0.0230201
0.0230262
0.0230138
0.0230085
0.0230047
0.0229959
0.0229803
0.0229933
0.0230069
0.0230023
0.0230088
0.0230152
0.0230072
0.0230071
0.0229992
0.0230058
0.0229907
0.0229815
0.0229967
0.0230008
0.022998
0.0230074
0.023011
0.0230134
0.022999
0.0230009
0.0229966
0.0229864
0.0229906
0.022998
0.0229841
0.022999
0.0229953
0.0229921
0.0229932
0.0229923
0.0229892
0.0229886
0.0229905
0.0229838
0.0229757
0.0229901
0.0230007
0.0230066
0.022991
0.0229921
)
;

boundaryField
{
    inlet
    {
        type            fixedValue;
        value           uniform 0;
    }
    outlet
    {
        type            zeroGradient;
    }
    yzfaces
    {
        type            empty;
    }
}


// ************************************************************************* //
