/*--------------------------------*- C++ -*----------------------------------*\
| =========                 |                                                 |
| \\      /  F ield         | foam-extend: Open Source CFD                    |
|  \\    /   O peration     | Version:     5.0                                |
|   \\  /    A nd           | Web:         http://www.foam-extend.org         |
|    \\/     M anipulation  |                                                 |
\*---------------------------------------------------------------------------*/
FoamFile
{
    version     2.0;
    format      ascii;
    class       surfaceScalarField;
    location    "1";
    object      phi;
}
// * * * * * * * * * * * * * * * * * * * * * * * * * * * * * * * * * * * * * //

dimensions      [0 3 -1 0 0 0 0];

internalField   nonuniform List<scalar> 
99
(
1.22524e-06
1.22125e-06
1.22184e-06
1.22224e-06
1.22651e-06
1.22894e-06
1.22777e-06
1.22465e-06
1.22502e-06
1.22534e-06
1.22739e-06
1.226e-06
1.2259e-06
1.22622e-06
1.22606e-06
1.22907e-06
1.22887e-06
1.23142e-06
1.22933e-06
1.22863e-06
1.22874e-06
1.2291e-06
1.22772e-06
1.22898e-06
1.23028e-06
1.23114e-06
1.22994e-06
1.23038e-06
1.22883e-06
1.22862e-06
1.22803e-06
1.22728e-06
1.2269e-06
1.22786e-06
1.2289e-06
1.22953e-06
1.22972e-06
1.22934e-06
1.22911e-06
1.22967e-06
1.22974e-06
1.23122e-06
1.23195e-06
1.2326e-06
1.23206e-06
1.23216e-06
1.23113e-06
1.23206e-06
1.23156e-06
1.23164e-06
1.23089e-06
1.23104e-06
1.23232e-06
1.23141e-06
1.23209e-06
1.23217e-06
1.23285e-06
1.23347e-06
1.23274e-06
1.23248e-06
1.23397e-06
1.23249e-06
1.23368e-06
1.23503e-06
1.23669e-06
1.23593e-06
1.2376e-06
1.23684e-06
1.23611e-06
1.23736e-06
1.2346e-06
1.23538e-06
1.23723e-06
1.23893e-06
1.23794e-06
1.23953e-06
1.23976e-06
1.23979e-06
1.23816e-06
1.23915e-06
1.23845e-06
1.23768e-06
1.23694e-06
1.23544e-06
1.23495e-06
1.23572e-06
1.2367e-06
1.23775e-06
1.23758e-06
1.23863e-06
1.23994e-06
1.23908e-06
1.23975e-06
1.23815e-06
1.23861e-06
1.23897e-06
1.23744e-06
1.23887e-06
1.23883e-06
)
;

boundaryField
{
    inlet
    {
        type            calculated;
        value           uniform -1.225e-06;
    }
    outlet
    {
        type            calculated;
        value           uniform 1.23799e-06;
    }
    yzfaces
    {
        type            empty;
    }
}


// ************************************************************************* //
