/*--------------------------------*- C++ -*----------------------------------*\
| =========                 |                                                 |
| \\      /  F ield         | foam-extend: Open Source CFD                    |
|  \\    /   O peration     | Version:     5.0                                |
|   \\  /    A nd           | Web:         http://www.foam-extend.org         |
|    \\/     M anipulation  |                                                 |
\*---------------------------------------------------------------------------*/
FoamFile
{
    version     2.0;
    format      ascii;
    class       surfaceScalarField;
    location    "1";
    object      phi.water;
}
// * * * * * * * * * * * * * * * * * * * * * * * * * * * * * * * * * * * * * //

dimensions      [0 3 -1 0 0 0 0];

internalField   nonuniform List<scalar> 
99
(
4.09735e-07
7.119e-07
9.88517e-07
1.24581e-06
1.51415e-06
1.78942e-06
2.06744e-06
2.34517e-06
2.53794e-06
3.76444e-06
4.1874e-06
4.21205e-06
4.18265e-06
4.2172e-06
4.32934e-06
4.51505e-06
4.72694e-06
4.97811e-06
5.2204e-06
5.46152e-06
5.68137e-06
5.86216e-06
5.98334e-06
6.07014e-06
6.12367e-06
6.15253e-06
6.15937e-06
6.16816e-06
6.16382e-06
6.16463e-06
6.16333e-06
6.16205e-06
6.16042e-06
6.16286e-06
6.16852e-06
6.17314e-06
6.17487e-06
6.17297e-06
6.17092e-06
6.17354e-06
6.17134e-06
6.17809e-06
6.18033e-06
6.18055e-06
6.17941e-06
6.18066e-06
6.17504e-06
6.18043e-06
6.17943e-06
6.18029e-06
6.1753e-06
6.175e-06
6.18171e-06
6.17776e-06
6.18019e-06
6.18009e-06
6.18476e-06
6.18944e-06
6.18814e-06
6.18981e-06
6.19792e-06
6.18755e-06
6.19204e-06
6.19834e-06
6.20439e-06
6.19927e-06
6.20757e-06
6.20481e-06
6.20177e-06
6.21006e-06
6.20044e-06
6.20395e-06
6.21049e-06
6.2185e-06
6.21279e-06
6.21923e-06
6.22025e-06
6.22212e-06
6.21606e-06
6.22221e-06
6.21993e-06
6.2164e-06
6.21167e-06
6.20481e-06
6.2012e-06
6.20319e-06
6.20931e-06
6.21479e-06
6.21377e-06
6.21891e-06
6.22604e-06
6.22196e-06
6.22599e-06
6.21941e-06
6.21945e-06
6.21804e-06
6.20945e-06
6.21775e-06
6.21888e-06
)
;

boundaryField
{
    inlet
    {
        type            fixedValue;
        value           uniform 0;
    }
    outlet
    {
        type            calculated;
        value           uniform 6.21449e-06;
    }
    yzfaces
    {
        type            empty;
    }
}


// ************************************************************************* //
