/*--------------------------------*- C++ -*----------------------------------*\
| =========                 |                                                 |
| \\      /  F ield         | foam-extend: Open Source CFD                    |
|  \\    /   O peration     | Version:     5.0                                |
|   \\  /    A nd           | Web:         http://www.foam-extend.org         |
|    \\/     M anipulation  |                                                 |
\*---------------------------------------------------------------------------*/
FoamFile
{
    version     2.0;
    format      ascii;
    class       volScalarField;
    location    "1";
    object      S.gas;
}
// * * * * * * * * * * * * * * * * * * * * * * * * * * * * * * * * * * * * * //

dimensions      [0 0 0 0 0 0 0];

internalField   nonuniform List<scalar> 
100
(
0.567158
0.476343
0.421485
0.382552
0.349973
0.32219
0.297692
0.276124
0.257321
0.191929
0.173285
0.172105
0.173117
0.170988
0.165105
0.156269
0.14549
0.13323
0.120049
0.106236
0.0925428
0.0799684
0.0695064
0.0617417
0.0566468
0.0535995
0.051876
0.0509698
0.05049
0.0502484
0.0501246
0.0500553
0.0500307
0.0500188
0.0500091
0.0500006
0.0499999
0.0499994
0.0500003
0.050002
0.0500042
0.0500046
0.0500045
0.0499993
0.0500052
0.0500008
0.0500076
0.0500029
0.0499975
0.0500015
0.0499912
0.049996
0.0499953
0.050001
0.0499962
0.0499972
0.049991
0.0499912
0.0499945
0.0499967
0.0499999
0.0500099
0.0500141
0.0500179
0.0500211
0.0500167
0.0500115
0.050008
0.050003
0.0500053
0.0500058
0.0500138
0.0500101
0.0500066
0.0500036
0.050003
0.0500039
0.049999
0.050001
0.0500058
0.0500092
0.0500134
0.0500212
0.0500213
0.0500244
0.0500307
0.0500162
0.0500157
0.0500084
0.0500088
0.049996
0.0499971
0.0499962
0.049993
0.0500036
0.0500014
0.050006
0.0500133
0.0500138
0.0500106
)
;

boundaryField
{
    inlet
    {
        type            calculated;
        value           uniform 1;
    }
    outlet
    {
        type            calculated;
        value           uniform 0.0500106;
    }
    yzfaces
    {
        type            empty;
    }
}


// ************************************************************************* //
