/*--------------------------------*- C++ -*----------------------------------*\
| =========                 |                                                 |
| \\      /  F ield         | foam-extend: Open Source CFD                    |
|  \\    /   O peration     | Version:     5.0                                |
|   \\  /    A nd           | Web:         http://www.foam-extend.org         |
|    \\/     M anipulation  |                                                 |
\*---------------------------------------------------------------------------*/
FoamFile
{
    version     2.0;
    format      ascii;
    class       volVectorField;
    location    "1";
    object      U.gas;
}
// * * * * * * * * * * * * * * * * * * * * * * * * * * * * * * * * * * * * * //

dimensions      [0 1 -1 0 0 0 0];

internalField   nonuniform List<vector> 
100
(
(0.00867564 0 0)
(0.0099774 0 0)
(0.0108782 0 0)
(0.0115688 0 0)
(0.0121891 0 0)
(0.012716 0 0)
(0.0131276 0 0)
(0.0134044 0 0)
(0.0135796 0 0)
(0.0153338 0 0)
(0.0134933 0 0)
(0.0126256 0 0)
(0.0125357 0 0)
(0.0126377 0 0)
(0.0126684 0 0)
(0.0125709 0 0)
(0.0123137 0 0)
(0.0118991 0 0)
(0.0113047 0 0)
(0.0105273 0 0)
(0.0095869 0 0)
(0.00853214 0 0)
(0.00745939 0 0)
(0.006506 0 0)
(0.00578107 0 0)
(0.0053002 0 0)
(0.00500992 0 0)
(0.00484541 0 0)
(0.00475821 0 0)
(0.00470932 0 0)
(0.00468471 0 0)
(0.00467099 0 0)
(0.00466243 0 0)
(0.00466096 0 0)
(0.00466318 0 0)
(0.00466506 0 0)
(0.00466634 0 0)
(0.00466662 0 0)
(0.0046656 0 0)
(0.00466539 0 0)
(0.00466597 0 0)
(0.00466949 0 0)
(0.00467394 0 0)
(0.00467675 0 0)
(0.00467615 0 0)
(0.00467538 0 0)
(0.00467412 0 0)
(0.004675 0 0)
(0.00467487 0 0)
(0.00467364 0 0)
(0.00467292 0 0)
(0.00467052 0 0)
(0.00467301 0 0)
(0.00467386 0 0)
(0.004674 0 0)
(0.00467504 0 0)
(0.00467756 0 0)
(0.00467924 0 0)
(0.00467811 0 0)
(0.0046762 0 0)
(0.00467927 0 0)
(0.00468043 0 0)
(0.00468059 0 0)
(0.00468548 0 0)
(0.00469161 0 0)
(0.00469388 0 0)
(0.00469527 0 0)
(0.00469571 0 0)
(0.00469243 0 0)
(0.00469314 0 0)
(0.00469042 0 0)
(0.00468709 0 0)
(0.00469333 0 0)
(0.00470008 0 0)
(0.00470056 0 0)
(0.00470103 0 0)
(0.00470403 0 0)
(0.00470484 0 0)
(0.00470195 0 0)
(0.00470043 0 0)
(0.0047014 0 0)
(0.00469923 0 0)
(0.00469624 0 0)
(0.00469264 0 0)
(0.00468948 0 0)
(0.00469021 0 0)
(0.0046941 0 0)
(0.00469694 0 0)
(0.00469836 0 0)
(0.00469906 0 0)
(0.00470401 0 0)
(0.00470347 0 0)
(0.00470295 0 0)
(0.00470114 0 0)
(0.0046987 0 0)
(0.00470169 0 0)
(0.00469962 0 0)
(0.00469899 0 0)
(0.0047021 0 0)
(0.00470199 0 0)
)
;

boundaryField
{
    inlet
    {
        type            fixedValue;
        value           uniform (0.005 0 0);
    }
    outlet
    {
        type            zeroGradient;
    }
    yzfaces
    {
        type            empty;
    }
}


// ************************************************************************* //
