/*--------------------------------*- C++ -*----------------------------------*\
| =========                 |                                                 |
| \\      /  F ield         | foam-extend: Open Source CFD                    |
|  \\    /   O peration     | Version:     5.0                                |
|   \\  /    A nd           | Web:         http://www.foam-extend.org         |
|    \\/     M anipulation  |                                                 |
\*---------------------------------------------------------------------------*/
FoamFile
{
    version     2.0;
    format      ascii;
    class       volVectorField;
    location    "1";
    object      U.water;
}
// * * * * * * * * * * * * * * * * * * * * * * * * * * * * * * * * * * * * * //

dimensions      [0 1 -1 0 0 0 0];

internalField   nonuniform List<vector> 
100
(
(0.000184894 0 0)
(0.000458646 0 0)
(0.000692982 0 0)
(0.000910619 0 0)
(0.00112551 0 0)
(0.00134871 0 0)
(0.0015744 0 0)
(0.00180098 0 0)
(0.00202648 0 0)
(0.00254648 0 0)
(0.00322647 0 0)
(0.00342311 0 0)
(0.00342701 0 0)
(0.0034299 0 0)
(0.00348913 0 0)
(0.00361021 0 0)
(0.00377374 0 0)
(0.00396379 0 0)
(0.00416479 0 0)
(0.00436119 0 0)
(0.0045488 0 0)
(0.00471036 0 0)
(0.00483123 0 0)
(0.00491547 0 0)
(0.00497314 0 0)
(0.00500764 0 0)
(0.0050233 0 0)
(0.00503049 0 0)
(0.00503265 0 0)
(0.00503139 0 0)
(0.00503094 0 0)
(0.00502874 0 0)
(0.00502675 0 0)
(0.00502806 0 0)
(0.00503225 0 0)
(0.00503575 0 0)
(0.00503744 0 0)
(0.00503702 0 0)
(0.00503577 0 0)
(0.00503647 0 0)
(0.00503779 0 0)
(0.00504094 0 0)
(0.00504545 0 0)
(0.00504825 0 0)
(0.00504852 0 0)
(0.00504762 0 0)
(0.0050457 0 0)
(0.00504544 0 0)
(0.00504636 0 0)
(0.00504553 0 0)
(0.00504415 0 0)
(0.00504298 0 0)
(0.00504592 0 0)
(0.00504668 0 0)
(0.00504617 0 0)
(0.00504774 0 0)
(0.00504924 0 0)
(0.00505195 0 0)
(0.00505177 0 0)
(0.00504975 0 0)
(0.00505223 0 0)
(0.00505219 0 0)
(0.00505157 0 0)
(0.00505677 0 0)
(0.0050629 0 0)
(0.00506471 0 0)
(0.0050666 0 0)
(0.00506851 0 0)
(0.00506549 0 0)
(0.00506659 0 0)
(0.00506347 0 0)
(0.0050594 0 0)
(0.00506471 0 0)
(0.00507198 0 0)
(0.00507349 0 0)
(0.00507474 0 0)
(0.00507849 0 0)
(0.005079 0 0)
(0.00507571 0 0)
(0.00507443 0 0)
(0.00507501 0 0)
(0.00507198 0 0)
(0.0050689 0 0)
(0.00506427 0 0)
(0.00506017 0 0)
(0.00506072 0 0)
(0.00506426 0 0)
(0.00506848 0 0)
(0.00507029 0 0)
(0.00507214 0 0)
(0.00507696 0 0)
(0.00507795 0 0)
(0.00507757 0 0)
(0.00507568 0 0)
(0.00507336 0 0)
(0.00507495 0 0)
(0.00507253 0 0)
(0.00507237 0 0)
(0.0050752 0 0)
(0.0050733 0 0)
)
;

boundaryField
{
    inlet
    {
        type            fixedValue;
        value           uniform (0 0 0);
    }
    outlet
    {
        type            zeroGradient;
    }
    yzfaces
    {
        type            empty;
    }
}


// ************************************************************************* //
