/*--------------------------------*- C++ -*----------------------------------*\
| =========                 |                                                 |
| \\      /  F ield         | foam-extend: Open Source CFD                    |
|  \\    /   O peration     | Version:     5.0                                |
|   \\  /    A nd           | Web:         http://www.foam-extend.org         |
|    \\/     M anipulation  |                                                 |
\*---------------------------------------------------------------------------*/
FoamFile
{
    version     2.0;
    format      ascii;
    class       volVectorField;
    location    "2";
    object      U.gas;
}
// * * * * * * * * * * * * * * * * * * * * * * * * * * * * * * * * * * * * * //

dimensions      [0 1 -1 0 0 0 0];

internalField   nonuniform List<vector> 
100
(
(0.00736763 0 0)
(0.00832093 0 0)
(0.00903756 0 0)
(0.00962059 0 0)
(0.0101059 0 0)
(0.0104962 0 0)
(0.0108783 0 0)
(0.0111762 0 0)
(0.0114834 0 0)
(0.0117327 0 0)
(0.0119614 0 0)
(0.0122019 0 0)
(0.012421 0 0)
(0.0125745 0 0)
(0.0127376 0 0)
(0.0129045 0 0)
(0.0130539 0 0)
(0.0131592 0 0)
(0.0132476 0 0)
(0.0133116 0 0)
(0.0133892 0 0)
(0.0134378 0 0)
(0.0134841 0 0)
(0.0134915 0 0)
(0.0135035 0 0)
(0.0135099 0 0)
(0.013479 0 0)
(0.0134462 0 0)
(0.0133709 0 0)
(0.013302 0 0)
(0.013189 0 0)
(0.0130332 0 0)
(0.0128193 0 0)
(0.0125618 0 0)
(0.0122215 0 0)
(0.0118108 0 0)
(0.0112961 0 0)
(0.0106769 0 0)
(0.00993149 0 0)
(0.00908623 0 0)
(0.00818449 0 0)
(0.00729295 0 0)
(0.00649737 0 0)
(0.00586397 0 0)
(0.00540354 0 0)
(0.00509977 0 0)
(0.00490238 0 0)
(0.00478611 0 0)
(0.00472084 0 0)
(0.00468096 0 0)
(0.00465785 0 0)
(0.00464386 0 0)
(0.00464148 0 0)
(0.00463773 0 0)
(0.00463475 0 0)
(0.00463821 0 0)
(0.00464298 0 0)
(0.00463916 0 0)
(0.00463771 0 0)
(0.00463879 0 0)
(0.00463874 0 0)
(0.00464173 0 0)
(0.00464514 0 0)
(0.00464545 0 0)
(0.00464484 0 0)
(0.00464985 0 0)
(0.0046519 0 0)
(0.00465371 0 0)
(0.00465445 0 0)
(0.00464967 0 0)
(0.0046448 0 0)
(0.00464469 0 0)
(0.00464093 0 0)
(0.00463874 0 0)
(0.00463718 0 0)
(0.00463607 0 0)
(0.00463531 0 0)
(0.00463186 0 0)
(0.0046364 0 0)
(0.00463884 0 0)
(0.00463823 0 0)
(0.00463727 0 0)
(0.00463759 0 0)
(0.00463454 0 0)
(0.0046353 0 0)
(0.00463327 0 0)
(0.00463617 0 0)
(0.00463751 0 0)
(0.00463516 0 0)
(0.00463002 0 0)
(0.00462985 0 0)
(0.00463225 0 0)
(0.00463473 0 0)
(0.0046352 0 0)
(0.00463421 0 0)
(0.00462961 0 0)
(0.00462587 0 0)
(0.00462293 0 0)
(0.00462392 0 0)
(0.00462444 0 0)
)
;

boundaryField
{
    inlet
    {
        type            fixedValue;
        value           uniform (0.005 0 0);
    }
    outlet
    {
        type            zeroGradient;
    }
    yzfaces
    {
        type            empty;
    }
}


// ************************************************************************* //
