/*--------------------------------*- C++ -*----------------------------------*\
| =========                 |                                                 |
| \\      /  F ield         | foam-extend: Open Source CFD                    |
|  \\    /   O peration     | Version:     5.0                                |
|   \\  /    A nd           | Web:         http://www.foam-extend.org         |
|    \\/     M anipulation  |                                                 |
\*---------------------------------------------------------------------------*/
FoamFile
{
    version     2.0;
    format      ascii;
    class       volVectorField;
    location    "2";
    object      U.water;
}
// * * * * * * * * * * * * * * * * * * * * * * * * * * * * * * * * * * * * * //

dimensions      [0 1 -1 0 0 0 0];

internalField   nonuniform List<vector> 
100
(
(0.000100945 0 0)
(0.000245652 0 0)
(0.000369896 0 0)
(0.000488657 0 0)
(0.000600421 0 0)
(0.000696587 0 0)
(0.00079424 0 0)
(0.000891785 0 0)
(0.00098559 0 0)
(0.00108203 0 0)
(0.00117266 0 0)
(0.00126749 0 0)
(0.00136471 0 0)
(0.00145308 0 0)
(0.00153774 0 0)
(0.00163374 0 0)
(0.00172643 0 0)
(0.00181643 0 0)
(0.00190645 0 0)
(0.00199496 0 0)
(0.00208438 0 0)
(0.0021767 0 0)
(0.00227567 0 0)
(0.00237388 0 0)
(0.00247156 0 0)
(0.00258102 0 0)
(0.00269241 0 0)
(0.00280584 0 0)
(0.00292279 0 0)
(0.00304441 0 0)
(0.00317599 0 0)
(0.0033121 0 0)
(0.00345534 0 0)
(0.00360615 0 0)
(0.00376568 0 0)
(0.0039324 0 0)
(0.00410997 0 0)
(0.00428968 0 0)
(0.00445461 0 0)
(0.00460281 0 0)
(0.00472902 0 0)
(0.00482368 0 0)
(0.00489354 0 0)
(0.0049399 0 0)
(0.00497125 0 0)
(0.00499141 0 0)
(0.00499708 0 0)
(0.00500122 0 0)
(0.00500321 0 0)
(0.00500143 0 0)
(0.00499928 0 0)
(0.00500023 0 0)
(0.00500479 0 0)
(0.00500517 0 0)
(0.00500344 0 0)
(0.00500587 0 0)
(0.00500996 0 0)
(0.00500626 0 0)
(0.00500556 0 0)
(0.00500891 0 0)
(0.00500999 0 0)
(0.00501289 0 0)
(0.00501554 0 0)
(0.00501555 0 0)
(0.00501723 0 0)
(0.0050212 0 0)
(0.00502295 0 0)
(0.0050237 0 0)
(0.00502343 0 0)
(0.00501777 0 0)
(0.00501448 0 0)
(0.00501421 0 0)
(0.00501012 0 0)
(0.00500664 0 0)
(0.0050032 0 0)
(0.00500252 0 0)
(0.00500346 0 0)
(0.00500133 0 0)
(0.00500291 0 0)
(0.0050058 0 0)
(0.00500616 0 0)
(0.00500811 0 0)
(0.00500714 0 0)
(0.00500542 0 0)
(0.00500493 0 0)
(0.00500415 0 0)
(0.00500524 0 0)
(0.00500626 0 0)
(0.00500404 0 0)
(0.00500188 0 0)
(0.00500152 0 0)
(0.00500388 0 0)
(0.00500551 0 0)
(0.00500635 0 0)
(0.00500638 0 0)
(0.0050019 0 0)
(0.00499672 0 0)
(0.00499315 0 0)
(0.00499532 0 0)
(0.00499684 0 0)
)
;

boundaryField
{
    inlet
    {
        type            fixedValue;
        value           uniform (0 0 0);
    }
    outlet
    {
        type            zeroGradient;
    }
    yzfaces
    {
        type            empty;
    }
}


// ************************************************************************* //
