/*--------------------------------*- C++ -*----------------------------------*\
| =========                 |                                                 |
| \\      /  F ield         | foam-extend: Open Source CFD                    |
|  \\    /   O peration     | Version:     5.0                                |
|   \\  /    A nd           | Web:         http://www.foam-extend.org         |
|    \\/     M anipulation  |                                                 |
\*---------------------------------------------------------------------------*/
FoamFile
{
    version     2.0;
    format      ascii;
    class       volScalarField;
    location    "1.057283";
    object      alpha.gas;
}
// * * * * * * * * * * * * * * * * * * * * * * * * * * * * * * * * * * * * * //

dimensions      [0 0 0 0 0 0 0];

internalField   nonuniform List<scalar> 
100
(
0.114925
0.0967985
0.08597
0.0777487
0.0709306
0.0654505
0.0596784
0.0544981
0.0501124
0.0464542
0.00843307
0.0410889
0.0389734
0.0369924
0.0350679
0.0331282
0.0310809
0.0289332
0.0266078
0.0241629
0.0216443
0.0191399
0.0167946
0.0147461
0.0131093
0.0119189
0.0111273
0.0106413
0.0103543
0.010193
0.0101025
0.0100545
0.0100274
0.0100158
0.0100089
0.0100049
0.0100032
0.00999937
0.00999851
0.00999845
0.00999958
0.00999902
0.0100014
0.0100008
0.00999986
0.00999914
0.00999704
0.00999699
0.0100004
0.0100013
0.0100027
0.0100004
0.0100013
0.0100011
0.0100032
0.0100009
0.0100006
0.00999874
0.00999901
0.00999963
0.0100008
0.0100022
0.0100014
0.00999985
0.0100001
0.00999918
0.0100001
0.0100023
0.0100019
0.0100039
0.0100039
0.0100017
0.0100001
0.0099997
0.00999989
0.00999776
0.00999897
0.0100017
0.010002
0.0100008
0.0100012
0.010001
0.0100029
0.0100016
0.0100018
0.0100011
0.0100016
0.0100026
0.00999958
0.00999927
0.00999954
0.00999867
0.00999899
0.00999774
0.00999812
0.0100003
0.0100007
0.00999937
0.00999707
0.00999882
)
;

boundaryField
{
    inlet
    {
        type            fixedValue;
        value           uniform 0.2;
    }
    outlet
    {
        type            zeroGradient;
    }
    yzfaces
    {
        type            empty;
    }
}


// ************************************************************************* //
