/*--------------------------------*- C++ -*----------------------------------*\
| =========                 |                                                 |
| \\      /  F ield         | foam-extend: Open Source CFD                    |
|  \\    /   O peration     | Version:     5.0                                |
|   \\  /    A nd           | Web:         http://www.foam-extend.org         |
|    \\/     M anipulation  |                                                 |
\*---------------------------------------------------------------------------*/
FoamFile
{
    version     2.0;
    format      ascii;
    class       volScalarField;
    location    "1.057283";
    object      Cl.water;
}
// * * * * * * * * * * * * * * * * * * * * * * * * * * * * * * * * * * * * * //

dimensions      [0 0 0 0 0 0 0];

internalField   nonuniform List<scalar> 
100
(
0
0.00639445
0.010654
0.00592913
0.00802328
0.0117081
0.0059208
0.00935936
0.0137427
0.0165907
2.7478e-15
0.0189494
0.0193811
0.0196956
0.0199559
0.0202229
0.0204598
0.0207295
0.020993
0.0212743
0.0215928
0.0218937
0.0221868
0.0224189
0.0225991
0.0227439
0.0228257
0.0229112
0.0229331
0.0229671
0.0229758
0.0229854
0.0229756
0.0230032
0.0229875
0.0229908
0.0229927
0.0230027
0.022996
0.0229872
0.0229849
0.022988
0.0229996
0.0229843
0.02299
0.0229709
0.0230032
0.0229655
0.0229763
0.0229887
0.0229923
0.0230008
0.0230109
0.0229947
0.0230175
0.0229957
0.0229882
0.0229936
0.0229824
0.0229776
0.0229869
0.0229937
0.0230119
0.0229909
0.0229849
0.0229848
0.022994
0.022982
0.0230172
0.0230036
0.0230149
0.0230066
0.0229931
0.0230081
0.0229977
0.0230185
0.0230204
0.0230015
0.0230132
0.0230158
0.0230119
0.0230076
0.0229886
0.0229935
0.0230041
0.0230286
0.0229891
0.0230071
0.023003
0.0229788
0.0229875
0.0229817
0.0229874
0.0229846
0.0229714
0.0229628
0.0229792
0.0230049
0.023018
0.0229983
)
;

boundaryField
{
    inlet
    {
        type            fixedValue;
        value           uniform 0;
    }
    outlet
    {
        type            zeroGradient;
    }
    yzfaces
    {
        type            empty;
    }
}


// ************************************************************************* //
