/*--------------------------------*- C++ -*----------------------------------*\
| =========                 |                                                 |
| \\      /  F ield         | foam-extend: Open Source CFD                    |
|  \\    /   O peration     | Version:     5.0                                |
|   \\  /    A nd           | Web:         http://www.foam-extend.org         |
|    \\/     M anipulation  |                                                 |
\*---------------------------------------------------------------------------*/
FoamFile
{
    version     2.0;
    format      ascii;
    class       volScalarField;
    location    "1.057283";
    object      H2O.gas;
}
// * * * * * * * * * * * * * * * * * * * * * * * * * * * * * * * * * * * * * //

dimensions      [0 0 0 0 0 0 0];

internalField   nonuniform List<scalar> 
100
(
1.51196e-08
2.44975e-06
1.37342e-05
3.69086e-05
8.2468e-05
0.00017732
0.000285232
0.000495142
0.000919876
0.00165307
1.64232e-05
0.00420043
0.00594845
0.00791667
0.00999981
0.0120765
0.0139578
0.0155433
0.0166327
0.0171404
0.0170645
0.0163949
0.0153189
0.0140279
0.0127878
0.0117885
0.0110701
0.0106247
0.0103421
0.0101919
0.0100984
0.0100513
0.010019
0.0100171
0.0100063
0.0100035
0.0100026
0.0100014
0.00999586
0.00999402
0.00999325
0.0099937
0.0100017
0.00999554
0.00999767
0.00998766
0.0100019
0.00998198
0.00998707
0.00999409
0.00999661
0.00999605
0.00999992
0.00999469
0.0100067
0.00999532
0.00999278
0.00999321
0.00998871
0.00998916
0.00999758
0.0100007
0.0100071
0.0100001
0.00999631
0.00999642
0.0100021
0.00999781
0.0100114
0.0100067
0.0100119
0.0100055
0.00999787
0.0100057
0.0100009
0.0100062
0.0100073
0.0100018
0.0100069
0.0100073
0.0100039
0.0100016
0.00999473
0.00999638
0.0099986
0.0100102
0.00999368
0.0100012
0.00999891
0.00999138
0.00999518
0.00999239
0.00999537
0.00999117
0.00998947
0.00998638
0.00999092
0.0100003
0.0100037
0.00999721
)
;

boundaryField
{
    inlet
    {
        type            fixedValue;
        value           uniform 0;
    }
    outlet
    {
        type            zeroGradient;
    }
    yzfaces
    {
        type            empty;
    }
}


// ************************************************************************* //
