/*--------------------------------*- C++ -*----------------------------------*\
| =========                 |                                                 |
| \\      /  F ield         | foam-extend: Open Source CFD                    |
|  \\    /   O peration     | Version:     5.0                                |
|   \\  /    A nd           | Web:         http://www.foam-extend.org         |
|    \\/     M anipulation  |                                                 |
\*---------------------------------------------------------------------------*/
FoamFile
{
    version     2.0;
    format      ascii;
    class       volScalarField;
    location    "1.057283";
    object      Na.water;
}
// * * * * * * * * * * * * * * * * * * * * * * * * * * * * * * * * * * * * * //

dimensions      [0 0 0 0 0 0 0];

internalField   nonuniform List<scalar> 
100
(
0
0.00639582
0.010658
0.00592788
0.00802741
0.0117135
0.00592444
0.00935746
0.013742
0.0165919
2.7478e-15
0.0189425
0.0193788
0.0196953
0.0199565
0.0202252
0.0204684
0.0207322
0.0209958
0.0212707
0.0215848
0.0218895
0.0221912
0.0224282
0.022613
0.0227572
0.0228414
0.022922
0.0229359
0.0229747
0.0229774
0.022983
0.0229737
0.0230049
0.0229915
0.0229933
0.0229872
0.0229917
0.022987
0.0229849
0.0229811
0.0229742
0.0229878
0.0229729
0.0229837
0.0229642
0.0230021
0.022952
0.0229609
0.0229881
0.0229984
0.0229994
0.0230044
0.0229893
0.0230091
0.0229896
0.0229842
0.0229926
0.0229808
0.0229776
0.0229928
0.0229908
0.0230067
0.0229967
0.0229915
0.0229958
0.0230017
0.0229853
0.0230087
0.0229944
0.0230099
0.0229999
0.0229899
0.0230076
0.0229984
0.0230181
0.0230197
0.0230003
0.0230091
0.0230238
0.0230247
0.0230272
0.0230049
0.0230048
0.0230053
0.0230266
0.0229769
0.0230008
0.0229978
0.0229846
0.0229869
0.0229802
0.022998
0.0229884
0.0229818
0.0229653
0.0229815
0.0230065
0.023021
0.0230087
)
;

boundaryField
{
    inlet
    {
        type            fixedValue;
        value           uniform 0;
    }
    outlet
    {
        type            zeroGradient;
    }
    yzfaces
    {
        type            empty;
    }
}


// ************************************************************************* //
