/*--------------------------------*- C++ -*----------------------------------*\
| =========                 |                                                 |
| \\      /  F ield         | foam-extend: Open Source CFD                    |
|  \\    /   O peration     | Version:     5.0                                |
|   \\  /    A nd           | Web:         http://www.foam-extend.org         |
|    \\/     M anipulation  |                                                 |
\*---------------------------------------------------------------------------*/
FoamFile
{
    version     2.0;
    format      ascii;
    class       surfaceScalarField;
    location    "1.057283";
    object      phi;
}
// * * * * * * * * * * * * * * * * * * * * * * * * * * * * * * * * * * * * * //

dimensions      [0 3 -1 0 0 0 0];

internalField   nonuniform List<scalar> 
99
(
1.22506e-06
1.22291e-06
1.22469e-06
1.22319e-06
1.22088e-06
1.22421e-06
1.22942e-06
1.22869e-06
1.22817e-06
1.23158e-06
1.23373e-06
1.23337e-06
1.23003e-06
1.23131e-06
1.23295e-06
1.2316e-06
1.23265e-06
1.22981e-06
1.22985e-06
1.22959e-06
1.2304e-06
1.232e-06
1.23185e-06
1.23224e-06
1.23154e-06
1.23358e-06
1.2348e-06
1.23432e-06
1.23565e-06
1.23516e-06
1.23365e-06
1.23484e-06
1.23762e-06
1.23866e-06
1.2393e-06
1.23956e-06
1.24064e-06
1.2403e-06
1.24202e-06
1.24252e-06
1.24258e-06
1.24244e-06
1.24382e-06
1.24157e-06
1.24196e-06
1.24316e-06
1.23939e-06
1.23784e-06
1.23865e-06
1.23859e-06
1.23876e-06
1.23881e-06
1.23979e-06
1.24084e-06
1.24128e-06
1.24155e-06
1.24248e-06
1.24282e-06
1.24247e-06
1.24473e-06
1.24643e-06
1.24721e-06
1.24662e-06
1.24834e-06
1.24929e-06
1.24887e-06
1.24883e-06
1.24978e-06
1.25038e-06
1.25049e-06
1.24945e-06
1.24972e-06
1.25141e-06
1.24894e-06
1.25134e-06
1.24986e-06
1.24819e-06
1.24848e-06
1.25015e-06
1.24932e-06
1.24747e-06
1.24644e-06
1.24586e-06
1.24616e-06
1.24565e-06
1.24431e-06
1.24403e-06
1.24324e-06
1.24313e-06
1.24378e-06
1.24267e-06
1.24281e-06
1.24314e-06
1.24237e-06
1.24233e-06
1.2446e-06
1.24608e-06
1.24623e-06
1.24534e-06
)
;

boundaryField
{
    inlet
    {
        type            calculated;
        value           uniform -1.225e-06;
    }
    outlet
    {
        type            calculated;
        value           uniform 1.24299e-06;
    }
    yzfaces
    {
        type            empty;
    }
}


// ************************************************************************* //
