/*--------------------------------*- C++ -*----------------------------------*\
| =========                 |                                                 |
| \\      /  F ield         | foam-extend: Open Source CFD                    |
|  \\    /   O peration     | Version:     5.0                                |
|   \\  /    A nd           | Web:         http://www.foam-extend.org         |
|    \\/     M anipulation  |                                                 |
\*---------------------------------------------------------------------------*/
FoamFile
{
    version     2.0;
    format      ascii;
    class       volScalarField;
    location    "1.057283";
    object      S.gas;
}
// * * * * * * * * * * * * * * * * * * * * * * * * * * * * * * * * * * * * * //

dimensions      [0 0 0 0 0 0 0];

internalField   nonuniform List<scalar> 
100
(
0.574627
0.483992
0.42985
0.388743
0.354653
0.327252
0.298392
0.272491
0.250562
0.232271
0.217535
0.205445
0.194867
0.184962
0.175339
0.165641
0.155404
0.144666
0.133039
0.120815
0.108222
0.0956996
0.0839731
0.0737303
0.0655464
0.0595946
0.0556366
0.0532067
0.0517716
0.0509648
0.0505127
0.0502723
0.0501368
0.0500789
0.0500443
0.0500245
0.0500159
0.0499968
0.0499925
0.0499923
0.0499979
0.0499951
0.0500069
0.0500041
0.0499993
0.0499957
0.0499852
0.0499849
0.0500022
0.0500066
0.0500136
0.0500022
0.0500063
0.0500057
0.0500158
0.0500047
0.050003
0.0499937
0.049995
0.0499982
0.0500041
0.050011
0.0500068
0.0499993
0.0500005
0.0499959
0.0500003
0.0500116
0.0500097
0.0500194
0.0500193
0.0500085
0.0500006
0.0499985
0.0499994
0.0499888
0.0499948
0.0500085
0.0500101
0.0500041
0.0500059
0.0500049
0.0500146
0.0500081
0.0500092
0.0500054
0.0500079
0.0500128
0.0499979
0.0499964
0.0499977
0.0499933
0.0499949
0.0499887
0.0499906
0.0500016
0.0500037
0.0499969
0.0499854
0.0499941
)
;

boundaryField
{
    inlet
    {
        type            calculated;
        value           uniform 1;
    }
    outlet
    {
        type            calculated;
        value           uniform 0.0499941;
    }
    yzfaces
    {
        type            empty;
    }
}


// ************************************************************************* //
