/*--------------------------------*- C++ -*----------------------------------*\
| =========                 |                                                 |
| \\      /  F ield         | foam-extend: Open Source CFD                    |
|  \\    /   O peration     | Version:     5.0                                |
|   \\  /    A nd           | Web:         http://www.foam-extend.org         |
|    \\/     M anipulation  |                                                 |
\*---------------------------------------------------------------------------*/
FoamFile
{
    version     2.0;
    format      ascii;
    class       volVectorField;
    location    "1.057283";
    object      U.gas;
}
// * * * * * * * * * * * * * * * * * * * * * * * * * * * * * * * * * * * * * //

dimensions      [0 1 -1 0 0 0 0];

internalField   nonuniform List<vector> 
100
(
(0.00857027 0 0)
(0.00985391 0 0)
(0.0107403 0 0)
(0.0114757 0 0)
(0.0120849 0 0)
(0.0125638 0 0)
(0.0131506 0 0)
(0.0135575 0 0)
(0.0137561 0 0)
(0.0138327 0 0)
(0.0137993 0 0)
(0.0136857 0 0)
(0.0135228 0 0)
(0.0133497 0 0)
(0.0131727 0 0)
(0.0129456 0 0)
(0.0126681 0 0)
(0.0123017 0 0)
(0.0118445 0 0)
(0.0112677 0 0)
(0.0105599 0 0)
(0.00972749 0 0)
(0.0087875 0 0)
(0.00781447 0 0)
(0.0069047 0 0)
(0.00614902 0 0)
(0.00559433 0 0)
(0.00522041 0 0)
(0.00499008 0 0)
(0.00485524 0 0)
(0.00477567 0 0)
(0.00473207 0 0)
(0.00471612 0 0)
(0.0047108 0 0)
(0.00470969 0 0)
(0.00470804 0 0)
(0.00470844 0 0)
(0.00470923 0 0)
(0.0047096 0 0)
(0.00471393 0 0)
(0.00471507 0 0)
(0.00471499 0 0)
(0.00471788 0 0)
(0.00471768 0 0)
(0.00471277 0 0)
(0.00471458 0 0)
(0.00470989 0 0)
(0.00469964 0 0)
(0.00469811 0 0)
(0.0047008 0 0)
(0.00470204 0 0)
(0.00470356 0 0)
(0.00470369 0 0)
(0.00470745 0 0)
(0.00471001 0 0)
(0.00471241 0 0)
(0.00471403 0 0)
(0.00471568 0 0)
(0.00471364 0 0)
(0.00471788 0 0)
(0.00472659 0 0)
(0.00473128 0 0)
(0.00473197 0 0)
(0.00473405 0 0)
(0.00473808 0 0)
(0.00473942 0 0)
(0.00473854 0 0)
(0.00474061 0 0)
(0.00474449 0 0)
(0.00474558 0 0)
(0.00474487 0 0)
(0.00474318 0 0)
(0.00474618 0 0)
(0.00474475 0 0)
(0.00474439 0 0)
(0.00474556 0 0)
(0.00473895 0 0)
(0.00473696 0 0)
(0.00474154 0 0)
(0.00474403 0 0)
(0.00473834 0 0)
(0.00473235 0 0)
(0.00472888 0 0)
(0.00472973 0 0)
(0.00472879 0 0)
(0.00472519 0 0)
(0.00472161 0 0)
(0.00471977 0 0)
(0.00471908 0 0)
(0.00471866 0 0)
(0.00471754 0 0)
(0.00471532 0 0)
(0.00471593 0 0)
(0.00471544 0 0)
(0.0047138 0 0)
(0.00471809 0 0)
(0.00472567 0 0)
(0.0047293 0 0)
(0.00472689 0 0)
(0.00471956 0 0)
)
;

boundaryField
{
    inlet
    {
        type            fixedValue;
        value           uniform (0.005 0 0);
    }
    outlet
    {
        type            zeroGradient;
    }
    yzfaces
    {
        type            empty;
    }
}


// ************************************************************************* //
