/*--------------------------------*- C++ -*----------------------------------*\
| =========                 |                                                 |
| \\      /  F ield         | foam-extend: Open Source CFD                    |
|  \\    /   O peration     | Version:     5.0                                |
|   \\  /    A nd           | Web:         http://www.foam-extend.org         |
|    \\/     M anipulation  |                                                 |
\*---------------------------------------------------------------------------*/
FoamFile
{
    version     2.0;
    format      ascii;
    class       volVectorField;
    location    "1.057283";
    object      U.water;
}
// * * * * * * * * * * * * * * * * * * * * * * * * * * * * * * * * * * * * * //

dimensions      [0 1 -1 0 0 0 0];

internalField   nonuniform List<vector> 
100
(
(0.000177281 0 0)
(0.000439204 0 0)
(0.00066363 0 0)
(0.000874544 0 0)
(0.00108772 0 0)
(0.00130575 0 0)
(0.00154414 0 0)
(0.00181752 0 0)
(0.00209125 0 0)
(0.00235367 0 0)
(0.00259361 0 0)
(0.00279808 0 0)
(0.00297118 0 0)
(0.00313354 0 0)
(0.00329763 0 0)
(0.00345819 0 0)
(0.00362351 0 0)
(0.00379477 0 0)
(0.00397241 0 0)
(0.00416061 0 0)
(0.00434814 0 0)
(0.00452769 0 0)
(0.00468364 0 0)
(0.004807 0 0)
(0.00489648 0 0)
(0.00496 0 0)
(0.0050047 0 0)
(0.00502882 0 0)
(0.00504352 0 0)
(0.00505253 0 0)
(0.00505237 0 0)
(0.0050539 0 0)
(0.00506323 0 0)
(0.00507172 0 0)
(0.00507536 0 0)
(0.00507737 0 0)
(0.00508023 0 0)
(0.00508177 0 0)
(0.00508472 0 0)
(0.00508927 0 0)
(0.0050904 0 0)
(0.00509022 0 0)
(0.00509275 0 0)
(0.0050909 0 0)
(0.00508715 0 0)
(0.00509047 0 0)
(0.00508519 0 0)
(0.00507429 0 0)
(0.00507279 0 0)
(0.00507426 0 0)
(0.00507444 0 0)
(0.00507482 0 0)
(0.00507704 0 0)
(0.00508119 0 0)
(0.00508426 0 0)
(0.00508567 0 0)
(0.00508817 0 0)
(0.00509079 0 0)
(0.00509086 0 0)
(0.00509474 0 0)
(0.0051028 0 0)
(0.00510789 0 0)
(0.00510826 0 0)
(0.00511057 0 0)
(0.00511609 0 0)
(0.00511716 0 0)
(0.00511623 0 0)
(0.00511808 0 0)
(0.00512122 0 0)
(0.0051227 0 0)
(0.00512073 0 0)
(0.00511915 0 0)
(0.00512321 0 0)
(0.0051216 0 0)
(0.00512147 0 0)
(0.00512338 0 0)
(0.00511695 0 0)
(0.0051141 0 0)
(0.00511807 0 0)
(0.00511974 0 0)
(0.00511429 0 0)
(0.00510841 0 0)
(0.00510513 0 0)
(0.00510449 0 0)
(0.00510409 0 0)
(0.00510031 0 0)
(0.00509703 0 0)
(0.00509481 0 0)
(0.00509291 0 0)
(0.0050941 0 0)
(0.00509317 0 0)
(0.00509121 0 0)
(0.0050922 0 0)
(0.00509127 0 0)
(0.00508961 0 0)
(0.00509417 0 0)
(0.00510182 0 0)
(0.00510514 0 0)
(0.00510367 0 0)
(0.00509709 0 0)
)
;

boundaryField
{
    inlet
    {
        type            fixedValue;
        value           uniform (0 0 0);
    }
    outlet
    {
        type            zeroGradient;
    }
    yzfaces
    {
        type            empty;
    }
}


// ************************************************************************* //
