/*--------------------------------*- C++ -*----------------------------------*\
| =========                 |                                                 |
| \\      /  F ield         | foam-extend: Open Source CFD                    |
|  \\    /   O peration     | Version:     5.0                                |
|   \\  /    A nd           | Web:         http://www.foam-extend.org         |
|    \\/     M anipulation  |                                                 |
\*---------------------------------------------------------------------------*/
FoamFile
{
    version     2.0;
    format      ascii;
    class       volScalarField;
    location    "9";
    object      alpha.gas;
}
// * * * * * * * * * * * * * * * * * * * * * * * * * * * * * * * * * * * * * //

dimensions      [0 0 0 0 0 0 0];

internalField   nonuniform List<scalar> 
100
(
0.168941
0.156373
0.148378
0.143169
0.138565
0.133911
0.129683
0.125884
0.122968
0.120126
0.117195
0.114456
0.111627
0.109116
0.106555
0.103976
0.101897
0.100136
0.0983484
0.0967633
0.0950021
0.0933776
0.0921147
0.0906663
0.0893792
0.0882489
0.0872248
0.0865867
0.0864203
0.0859228
0.0856371
0.0849579
0.0840906
0.0830893
0.0821704
0.0812723
0.0801343
0.0791267
0.0782665
0.0774993
0.0769506
0.0761884
0.0754887
0.0749334
0.0743603
0.0737159
0.072954
0.0723152
0.0715701
0.071071
0.0704215
0.0699071
0.0695796
0.0691099
0.0686269
0.0681934
0.0676317
0.0670323
0.0665389
0.0660455
0.0655477
0.0651609
0.0648295
0.0644134
0.063932
0.0634711
0.063013
0.0626195
0.0621557
0.0617215
0.0613505
0.0609951
0.060645
0.0602909
0.0599116
0.059479
0.059106
0.0586695
0.0582736
0.0578839
0.0575454
0.0572446
0.0569638
0.0565841
0.0562029
0.055847
0.0555089
0.0551622
0.0548885
0.054637
0.0543489
0.0540857
0.0538035
0.0535057
0.053244
0.0529576
0.0525922
0.0522697
0.0519605
0.0516331
)
;

boundaryField
{
    inlet
    {
        type            fixedValue;
        value           uniform 0.2;
    }
    outlet
    {
        type            zeroGradient;
    }
    yzfaces
    {
        type            empty;
    }
}


// ************************************************************************* //
