/*--------------------------------*- C++ -*----------------------------------*\
| =========                 |                                                 |
| \\      /  F ield         | foam-extend: Open Source CFD                    |
|  \\    /   O peration     | Version:     5.0                                |
|   \\  /    A nd           | Web:         http://www.foam-extend.org         |
|    \\/     M anipulation  |                                                 |
\*---------------------------------------------------------------------------*/
FoamFile
{
    version     2.0;
    format      ascii;
    class       volScalarField;
    location    "9";
    object      CO2.gas;
}
// * * * * * * * * * * * * * * * * * * * * * * * * * * * * * * * * * * * * * //

dimensions      [0 0 0 0 0 0 0];

internalField   nonuniform List<scalar> 
100
(
0.168612
0.156069
0.148089
0.14289
0.138295
0.133651
0.12943
0.125639
0.122729
0.119892
0.116967
0.114234
0.111409
0.108903
0.106347
0.103774
0.101699
0.0999411
0.0981569
0.0965748
0.0948171
0.0931958
0.0919353
0.0904897
0.0892052
0.088077
0.0870549
0.0864181
0.086252
0.0857555
0.0854703
0.0847924
0.0839268
0.0829275
0.0820104
0.081114
0.0799783
0.0789727
0.0781141
0.0773484
0.0768007
0.0760401
0.0753417
0.0747875
0.0742155
0.0735724
0.0728119
0.0721743
0.0714307
0.0709326
0.0702844
0.069771
0.0694441
0.0689753
0.0684933
0.0680606
0.0675
0.0669017
0.0664093
0.0659168
0.06542
0.065034
0.0647032
0.0642879
0.0638075
0.0633475
0.0628903
0.0624976
0.0620347
0.0616013
0.061231
0.0608763
0.0605269
0.0601734
0.0597949
0.0593632
0.0589909
0.0585552
0.0581601
0.0577712
0.0574333
0.0571332
0.0568528
0.0564739
0.0560934
0.0557383
0.0554008
0.0550548
0.0547816
0.0545306
0.054243
0.0539804
0.0536987
0.0534015
0.0531403
0.0528545
0.0524898
0.0521679
0.0518593
0.0515326
)
;

boundaryField
{
    inlet
    {
        type            fixedValue;
        value           uniform 0.2;
    }
    outlet
    {
        type            zeroGradient;
    }
    yzfaces
    {
        type            empty;
    }
}


// ************************************************************************* //
