/*--------------------------------*- C++ -*----------------------------------*\
| =========                 |                                                 |
| \\      /  F ield         | foam-extend: Open Source CFD                    |
|  \\    /   O peration     | Version:     5.0                                |
|   \\  /    A nd           | Web:         http://www.foam-extend.org         |
|    \\/     M anipulation  |                                                 |
\*---------------------------------------------------------------------------*/
FoamFile
{
    version     2.0;
    format      ascii;
    class       volScalarField;
    location    "9";
    object      CO2.water;
}
// * * * * * * * * * * * * * * * * * * * * * * * * * * * * * * * * * * * * * //

dimensions      [0 0 0 0 0 0 0];

internalField   nonuniform List<scalar> 
100
(
0.000815756
0.00114583
0.00135582
0.00149265
0.00161356
0.00173579
0.00184685
0.00194662
0.00202321
0.00209785
0.00217483
0.00224676
0.00232109
0.00238703
0.0024543
0.00252201
0.00257663
0.00262288
0.00266983
0.00271147
0.00275772
0.00280039
0.00283356
0.0028716
0.0029054
0.00293509
0.00296199
0.00297875
0.00298312
0.00299618
0.00300369
0.00302153
0.00304431
0.0030706
0.00309474
0.00311833
0.00314822
0.00317468
0.00319727
0.00321742
0.00323184
0.00325185
0.00327023
0.00328482
0.00329987
0.00331679
0.00333681
0.00335358
0.00337315
0.00338626
0.00340332
0.00341683
0.00342543
0.00343777
0.00345045
0.00346184
0.00347659
0.00349234
0.00350529
0.00351825
0.00353133
0.00354149
0.00355019
0.00356112
0.00357376
0.00358587
0.0035979
0.00360824
0.00362042
0.00363182
0.00364157
0.0036509
0.0036601
0.0036694
0.00367936
0.00369072
0.00370052
0.00371198
0.00372238
0.00373261
0.0037415
0.0037494
0.00375678
0.00376675
0.00377677
0.00378611
0.00379499
0.0038041
0.00381129
0.00381789
0.00382546
0.00383237
0.00383978
0.00384761
0.00385448
0.003862
0.0038716
0.00388007
0.00388819
0.00389679
)
;

boundaryField
{
    inlet
    {
        type            fixedValue;
        value           uniform 0;
    }
    outlet
    {
        type            zeroGradient;
    }
    yzfaces
    {
        type            empty;
    }
}


// ************************************************************************* //
