/*--------------------------------*- C++ -*----------------------------------*\
| =========                 |                                                 |
| \\      /  F ield         | foam-extend: Open Source CFD                    |
|  \\    /   O peration     | Version:     5.0                                |
|   \\  /    A nd           | Web:         http://www.foam-extend.org         |
|    \\/     M anipulation  |                                                 |
\*---------------------------------------------------------------------------*/
FoamFile
{
    version     2.0;
    format      ascii;
    class       volScalarField;
    location    "9";
    object      H2O.gas;
}
// * * * * * * * * * * * * * * * * * * * * * * * * * * * * * * * * * * * * * //

dimensions      [0 0 0 0 0 0 0];

internalField   nonuniform List<scalar> 
100
(
0.000329007
0.000304533
0.000288962
0.000278817
0.000269851
0.000260788
0.000252553
0.000245155
0.000239477
0.000233942
0.000228234
0.000222901
0.00021739
0.0002125
0.000207512
0.000202491
0.000198441
0.000195012
0.000191531
0.000188444
0.000185014
0.00018185
0.000179391
0.00017657
0.000174063
0.000171862
0.000169868
0.000168625
0.000168301
0.000167332
0.000166776
0.000165453
0.000163764
0.000161814
0.000160024
0.000158275
0.000156059
0.000154097
0.000152422
0.000150928
0.000149859
0.000148375
0.000147012
0.000145931
0.000144814
0.00014356
0.000142076
0.000140832
0.000139381
0.000138409
0.000137144
0.000136142
0.000135504
0.00013459
0.000133649
0.000132805
0.000131711
0.000130543
0.000129583
0.000128622
0.000127652
0.000126899
0.000126254
0.000125443
0.000124506
0.000123608
0.000122716
0.00012195
0.000121046
0.000120201
0.000119478
0.000118786
0.000118104
0.000117415
0.000116676
0.000115834
0.000115107
0.000114257
0.000113486
0.000112727
0.000112068
0.000111482
0.000110935
0.000110196
0.000109453
0.00010876
0.000108102
0.000107427
0.000106894
0.000106404
0.000105843
0.00010533
0.000104781
0.000104201
0.000103691
0.000103133
0.000102422
0.000101794
0.000101191
0.000100554
)
;

boundaryField
{
    inlet
    {
        type            fixedValue;
        value           uniform 0;
    }
    outlet
    {
        type            zeroGradient;
    }
    yzfaces
    {
        type            empty;
    }
}


// ************************************************************************* //
