/*--------------------------------*- C++ -*----------------------------------*\
| =========                 |                                                 |
| \\      /  F ield         | foam-extend: Open Source CFD                    |
|  \\    /   O peration     | Version:     5.0                                |
|   \\  /    A nd           | Web:         http://www.foam-extend.org         |
|    \\/     M anipulation  |                                                 |
\*---------------------------------------------------------------------------*/
FoamFile
{
    version     2.0;
    format      ascii;
    class       surfaceScalarField;
    location    "9";
    object      phi;
}
// * * * * * * * * * * * * * * * * * * * * * * * * * * * * * * * * * * * * * //

dimensions      [0 3 -1 0 0 0 0];

internalField   nonuniform List<scalar> 
99
(
1.21682e-06
1.21885e-06
1.22265e-06
1.22088e-06
1.21951e-06
1.22391e-06
1.22151e-06
1.21631e-06
1.21031e-06
1.20087e-06
1.20799e-06
1.20572e-06
1.2079e-06
1.20568e-06
1.20481e-06
1.19939e-06
1.2007e-06
1.20504e-06
1.19709e-06
1.19677e-06
1.19272e-06
1.19502e-06
1.19826e-06
1.19821e-06
1.2056e-06
1.20492e-06
1.21128e-06
1.21137e-06
1.21182e-06
1.21554e-06
1.21948e-06
1.218e-06
1.21816e-06
1.21329e-06
1.2117e-06
1.21359e-06
1.21537e-06
1.21167e-06
1.21593e-06
1.21495e-06
1.21843e-06
1.21578e-06
1.21644e-06
1.21614e-06
1.21721e-06
1.21538e-06
1.21692e-06
1.2195e-06
1.21964e-06
1.21959e-06
1.21804e-06
1.22193e-06
1.21933e-06
1.21977e-06
1.21726e-06
1.2164e-06
1.21529e-06
1.21784e-06
1.21885e-06
1.21689e-06
1.21708e-06
1.21556e-06
1.21686e-06
1.21664e-06
1.21442e-06
1.21126e-06
1.21282e-06
1.21221e-06
1.21415e-06
1.2161e-06
1.21544e-06
1.21525e-06
1.21706e-06
1.21503e-06
1.21465e-06
1.21201e-06
1.21022e-06
1.21139e-06
1.21039e-06
1.20912e-06
1.20805e-06
1.21083e-06
1.21085e-06
1.2099e-06
1.2107e-06
1.20992e-06
1.20664e-06
1.20591e-06
1.20415e-06
1.20185e-06
1.20061e-06
1.19914e-06
1.19557e-06
1.19594e-06
1.19435e-06
1.19026e-06
1.19016e-06
1.18677e-06
1.1856e-06
)
;

boundaryField
{
    inlet
    {
        type            calculated;
        value           uniform -1.225e-06;
    }
    outlet
    {
        type            calculated;
        value           uniform 1.18576e-06;
    }
    yzfaces
    {
        type            empty;
    }
}


// ************************************************************************* //
