/*--------------------------------*- C++ -*----------------------------------*\
| =========                 |                                                 |
| \\      /  F ield         | foam-extend: Open Source CFD                    |
|  \\    /   O peration     | Version:     5.0                                |
|   \\  /    A nd           | Web:         http://www.foam-extend.org         |
|    \\/     M anipulation  |                                                 |
\*---------------------------------------------------------------------------*/
FoamFile
{
    version     2.0;
    format      ascii;
    class       surfaceScalarField;
    location    "9";
    object      phi.water;
}
// * * * * * * * * * * * * * * * * * * * * * * * * * * * * * * * * * * * * * //

dimensions      [0 3 -1 0 0 0 0];

internalField   nonuniform List<scalar> 
99
(
6.26207e-08
1.12939e-07
1.5376e-07
1.83532e-07
2.11481e-07
2.45448e-07
2.78922e-07
3.10596e-07
3.35734e-07
3.61586e-07
3.95571e-07
4.26087e-07
4.64115e-07
4.95539e-07
5.32575e-07
5.7254e-07
6.07213e-07
6.39306e-07
6.67281e-07
6.9803e-07
7.32242e-07
7.69371e-07
7.98134e-07
8.31594e-07
8.67785e-07
8.96597e-07
9.2802e-07
9.49119e-07
9.51599e-07
9.68588e-07
9.79485e-07
9.93681e-07
1.01862e-06
1.04702e-06
1.07142e-06
1.09948e-06
1.13897e-06
1.17005e-06
1.20321e-06
1.23043e-06
1.25228e-06
1.27791e-06
1.30658e-06
1.32575e-06
1.3494e-06
1.37205e-06
1.40605e-06
1.43221e-06
1.4664e-06
1.48731e-06
1.51228e-06
1.5418e-06
1.55194e-06
1.57499e-06
1.59523e-06
1.61279e-06
1.63658e-06
1.67069e-06
1.69538e-06
1.71764e-06
1.7437e-06
1.76251e-06
1.78172e-06
1.80207e-06
1.82417e-06
1.8446e-06
1.87342e-06
1.8925e-06
1.92031e-06
1.94778e-06
1.96858e-06
1.99109e-06
2.01363e-06
2.0319e-06
2.05145e-06
2.0752e-06
2.09289e-06
2.12146e-06
2.14581e-06
2.16928e-06
2.18811e-06
2.21186e-06
2.22874e-06
2.25291e-06
2.27859e-06
2.30112e-06
2.3176e-06
2.34165e-06
2.3569e-06
2.36816e-06
2.38744e-06
2.40125e-06
2.41353e-06
2.43565e-06
2.45093e-06
2.46188e-06
2.48848e-06
2.50576e-06
2.5249e-06
)
;

boundaryField
{
    inlet
    {
        type            fixedValue;
        value           uniform 0;
    }
    outlet
    {
        type            calculated;
        value           uniform 2.54985e-06;
    }
    yzfaces
    {
        type            empty;
    }
}


// ************************************************************************* //
