/*--------------------------------*- C++ -*----------------------------------*\
| =========                 |                                                 |
| \\      /  F ield         | foam-extend: Open Source CFD                    |
|  \\    /   O peration     | Version:     5.0                                |
|   \\  /    A nd           | Web:         http://www.foam-extend.org         |
|    \\/     M anipulation  |                                                 |
\*---------------------------------------------------------------------------*/
FoamFile
{
    version     2.0;
    format      ascii;
    class       volVectorField;
    location    "9";
    object      U.gas;
}
// * * * * * * * * * * * * * * * * * * * * * * * * * * * * * * * * * * * * * //

dimensions      [0 1 -1 0 0 0 0];

internalField   nonuniform List<vector> 
100
(
(0.00589381 0 0)
(0.0063374 0 0)
(0.00667844 0 0)
(0.00691162 0 0)
(0.00711685 0 0)
(0.00735546 0 0)
(0.00758062 0 0)
(0.00776283 0 0)
(0.00788909 0 0)
(0.00800317 0 0)
(0.00817115 0 0)
(0.00835669 0 0)
(0.00853779 0 0)
(0.00870186 0 0)
(0.00886529 0 0)
(0.0090215 0 0)
(0.0091504 0 0)
(0.00929831 0 0)
(0.00941807 0 0)
(0.00950263 0 0)
(0.00962096 0 0)
(0.0097378 0 0)
(0.00985508 0 0)
(0.00998659 0 0)
(0.0101191 0 0)
(0.0102372 0 0)
(0.0103444 0 0)
(0.0104178 0 0)
(0.0104246 0 0)
(0.010491 0 0)
(0.0105433 0 0)
(0.0106193 0 0)
(0.0106921 0 0)
(0.0107578 0 0)
(0.0108055 0 0)
(0.0108851 0 0)
(0.0110055 0 0)
(0.0110802 0 0)
(0.0111538 0 0)
(0.0112334 0 0)
(0.0112863 0 0)
(0.0113626 0 0)
(0.0114112 0 0)
(0.011457 0 0)
(0.0115114 0 0)
(0.0115657 0 0)
(0.011634 0 0)
(0.011706 0 0)
(0.0117886 0 0)
(0.011821 0 0)
(0.0118763 0 0)
(0.0119274 0 0)
(0.0119532 0 0)
(0.0119879 0 0)
(0.0120174 0 0)
(0.0120345 0 0)
(0.0120793 0 0)
(0.0121383 0 0)
(0.0121914 0 0)
(0.0122274 0 0)
(0.0122589 0 0)
(0.0122769 0 0)
(0.0122979 0 0)
(0.0123406 0 0)
(0.0123699 0 0)
(0.012377 0 0)
(0.012403 0 0)
(0.0124341 0 0)
(0.0124824 0 0)
(0.0125346 0 0)
(0.0125645 0 0)
(0.0125825 0 0)
(0.0126143 0 0)
(0.0126383 0 0)
(0.0126551 0 0)
(0.0126733 0 0)
(0.0126713 0 0)
(0.0127042 0 0)
(0.0127266 0 0)
(0.0127366 0 0)
(0.0127422 0 0)
(0.0127688 0 0)
(0.0128001 0 0)
(0.0128251 0 0)
(0.0128468 0 0)
(0.0128658 0 0)
(0.0128609 0 0)
(0.0128578 0 0)
(0.0128513 0 0)
(0.012842 0 0)
(0.0128406 0 0)
(0.0128361 0 0)
(0.012826 0 0)
(0.0128242 0 0)
(0.0128251 0 0)
(0.0128093 0 0)
(0.0128103 0 0)
(0.0127989 0 0)
(0.0127849 0 0)
(0.0127974 0 0)
)
;

boundaryField
{
    inlet
    {
        type            fixedValue;
        value           uniform (0.005 0 0);
    }
    outlet
    {
        type            zeroGradient;
    }
    yzfaces
    {
        type            empty;
    }
}


// ************************************************************************* //
