/*--------------------------------*- C++ -*----------------------------------*\
| =========                 |                                                 |
| \\      /  F ield         | foam-extend: Open Source CFD                    |
|  \\    /   O peration     | Version:     5.0                                |
|   \\  /    A nd           | Web:         http://www.foam-extend.org         |
|    \\/     M anipulation  |                                                 |
\*---------------------------------------------------------------------------*/
FoamFile
{
    version     2.0;
    format      ascii;
    class       volVectorField;
    location    "9";
    object      U.water;
}
// * * * * * * * * * * * * * * * * * * * * * * * * * * * * * * * * * * * * * //

dimensions      [0 1 -1 0 0 0 0];

internalField   nonuniform List<vector> 
100
(
(3.07346e-05 0 0)
(7.22117e-05 0 0)
(0.000108468 0 0)
(0.000137805 0 0)
(0.000161629 0 0)
(0.000186611 0 0)
(0.000214091 0 0)
(0.00024033 0 0)
(0.000264165 0 0)
(0.000285005 0 0)
(0.000309049 0 0)
(0.000335643 0 0)
(0.00036331 0 0)
(0.000391932 0 0)
(0.000419848 0 0)
(0.000450763 0 0)
(0.000481441 0 0)
(0.000509069 0 0)
(0.000533271 0 0)
(0.000557731 0 0)
(0.000583713 0 0)
(0.000612406 0 0)
(0.000640081 0 0)
(0.000665005 0 0)
(0.000693418 0 0)
(0.000720013 0 0)
(0.000744084 0 0)
(0.000765277 0 0)
(0.000776231 0 0)
(0.000783164 0 0)
(0.000795647 0 0)
(0.000805767 0 0)
(0.000821732 0 0)
(0.000843107 0 0)
(0.000864757 0 0)
(0.000886575 0 0)
(0.000913442 0 0)
(0.000942187 0 0)
(0.000968424 0 0)
(0.00099273 0 0)
(0.00101365 0 0)
(0.00103263 0 0)
(0.00105471 0 0)
(0.00107447 0 0)
(0.00109208 0 0)
(0.00111114 0 0)
(0.00113367 0 0)
(0.00115863 0 0)
(0.0011824 0 0)
(0.00120588 0 0)
(0.00122397 0 0)
(0.00124604 0 0)
(0.00126312 0 0)
(0.0012764 0 0)
(0.00129395 0 0)
(0.00130992 0 0)
(0.00132648 0 0)
(0.0013496 0 0)
(0.0013739 0 0)
(0.00139316 0 0)
(0.00141254 0 0)
(0.00143088 0 0)
(0.00144674 0 0)
(0.00146301 0 0)
(0.0014804 0 0)
(0.00149777 0 0)
(0.00151745 0 0)
(0.00153727 0 0)
(0.00155608 0 0)
(0.00157858 0 0)
(0.00159847 0 0)
(0.00161611 0 0)
(0.00163457 0 0)
(0.00165141 0 0)
(0.00166696 0 0)
(0.0016843 0 0)
(0.00170141 0 0)
(0.00171984 0 0)
(0.00174176 0 0)
(0.00176132 0 0)
(0.00177843 0 0)
(0.00179574 0 0)
(0.00181284 0 0)
(0.00182939 0 0)
(0.00184966 0 0)
(0.00186949 0 0)
(0.00188561 0 0)
(0.00190176 0 0)
(0.00191789 0 0)
(0.00192892 0 0)
(0.00194113 0 0)
(0.00195487 0 0)
(0.00196553 0 0)
(0.00197933 0 0)
(0.00199494 0 0)
(0.00200592 0 0)
(0.00202077 0 0)
(0.00203873 0 0)
(0.00205355 0 0)
(0.00207007 0 0)
)
;

boundaryField
{
    inlet
    {
        type            fixedValue;
        value           uniform (0 0 0);
    }
    outlet
    {
        type            zeroGradient;
    }
    yzfaces
    {
        type            empty;
    }
}


// ************************************************************************* //
