/*--------------------------------*- C++ -*----------------------------------*\
| =========                 |                                                 |
| \\      /  F ield         | foam-extend: Open Source CFD                    |
|  \\    /   O peration     | Version:     5.0                                |
|   \\  /    A nd           | Web:         http://www.foam-extend.org         |
|    \\/     M anipulation  |                                                 |
\*---------------------------------------------------------------------------*/
FoamFile
{
    version     2.0;
    format      ascii;
    class       volScalarField;
    location    "0.234505";
    object      alpha.gas;
}
// * * * * * * * * * * * * * * * * * * * * * * * * * * * * * * * * * * * * * //

dimensions      [0 0 0 0 0 0 0];

internalField   nonuniform List<scalar> 
100
(
0.059167
0.0465859
0.0388869
0.0327443
0.0274268
0.0227466
0.0187617
0.0155715
0.0132741
0.0117863
0.0109243
0.0104624
0.0102258
0.01011
0.0100538
0.0100253
0.0100125
0.0100059
0.0100015
0.0100007
0.00999866
0.00999832
0.00999787
0.00999947
0.00999907
0.00999999
0.00999972
0.0100003
0.00999912
0.00999994
0.0100021
0.0100021
0.00999892
0.00999807
0.00999741
0.00999759
0.0099984
0.0100003
0.0100015
0.01
0.00999952
0.00999893
0.00999756
0.00999739
0.00999809
0.0100006
0.0100021
0.00999926
0.00999752
0.00999797
0.00999912
0.00999949
0.00999955
0.0100003
0.0100005
0.0100006
0.0100006
0.0100001
0.0099996
0.00999931
0.0100001
0.0100008
0.00999894
0.00999986
0.0100006
0.00999966
0.01
0.0100004
0.00999965
0.01
0.00999932
0.00999961
0.0100015
0.00999977
0.00999908
0.00999979
0.0100005
0.0100001
0.00999947
0.00999915
0.0100022
0.0100026
0.0100002
0.00999872
0.0100011
0.00999964
0.00999948
0.0099975
0.00999639
0.00999787
0.00999787
0.00999885
0.00999961
0.0100011
0.0100003
0.0100003
0.00999888
0.00999951
0.0100007
0.010001
)
;

boundaryField
{
    inlet
    {
        type            fixedValue;
        value           uniform 0.2;
    }
    outlet
    {
        type            zeroGradient;
    }
    yzfaces
    {
        type            empty;
    }
}


// ************************************************************************* //
