/*--------------------------------*- C++ -*----------------------------------*\
| =========                 |                                                 |
| \\      /  F ield         | foam-extend: Open Source CFD                    |
|  \\    /   O peration     | Version:     5.0                                |
|   \\  /    A nd           | Web:         http://www.foam-extend.org         |
|    \\/     M anipulation  |                                                 |
\*---------------------------------------------------------------------------*/
FoamFile
{
    version     2.0;
    format      ascii;
    class       volScalarField;
    location    "0.234505";
    object      Cl.water;
}
// * * * * * * * * * * * * * * * * * * * * * * * * * * * * * * * * * * * * * //

dimensions      [0 0 0 0 0 0 0];

internalField   nonuniform List<scalar> 
100
(
0
0.0142955
0.0184769
0.0199871
0.0207974
0.0214514
0.0219084
0.0223566
0.0226096
0.0227983
0.0228769
0.0229159
0.023001
0.0229666
0.0230019
0.0230084
0.0230152
0.0230028
0.0230033
0.0229862
0.0229777
0.0230087
0.0229997
0.0229962
0.0230018
0.0229785
0.0229885
0.0230045
0.022987
0.022993
0.0229923
0.0230132
0.0229994
0.0230164
0.0229962
0.0230068
0.0230152
0.0229866
0.023007
0.0229683
0.023016
0.0229777
0.0230082
0.0230055
0.022996
0.0230036
0.0229907
0.0230161
0.0229937
0.0230269
0.0229936
0.0230022
0.0229938
0.0230107
0.0229914
0.0230051
0.0230089
0.0229762
0.0230171
0.0229749
0.0230094
0.0229684
0.0230284
0.0229835
0.0229914
0.0230015
0.0230129
0.0229981
0.0230206
0.0229725
0.0230139
0.0229853
0.0230074
0.0230063
0.0230111
0.0230299
0.0229919
0.0229807
0.0230297
0.022991
0.0229998
0.0230003
0.023012
0.0229819
0.0230186
0.022995
0.0230043
0.0230135
0.0229916
0.0230116
0.0229857
0.0229997
0.0229875
0.0230239
0.0230098
0.0230106
0.0230068
0.0230339
0.0229836
0.0230062
)
;

boundaryField
{
    inlet
    {
        type            fixedValue;
        value           uniform 0;
    }
    outlet
    {
        type            zeroGradient;
    }
    yzfaces
    {
        type            empty;
    }
}


// ************************************************************************* //
