/*--------------------------------*- C++ -*----------------------------------*\
| =========                 |                                                 |
| \\      /  F ield         | foam-extend: Open Source CFD                    |
|  \\    /   O peration     | Version:     5.0                                |
|   \\  /    A nd           | Web:         http://www.foam-extend.org         |
|    \\/     M anipulation  |                                                 |
\*---------------------------------------------------------------------------*/
FoamFile
{
    version     2.0;
    format      ascii;
    class       volScalarField;
    location    "0.234505";
    object      H2O.gas;
}
// * * * * * * * * * * * * * * * * * * * * * * * * * * * * * * * * * * * * * //

dimensions      [0 0 0 0 0 0 0];

internalField   nonuniform List<scalar> 
100
(
6.54273e-06
0.00200941
0.00460596
0.00729863
0.00969987
0.0115021
0.0123906
0.0124712
0.0119556
0.0113043
0.010755
0.0103977
0.0102226
0.0100965
0.0100519
0.0100252
0.0100158
0.0100076
0.0100048
0.00999675
0.00999172
0.0100029
0.00999746
0.00999795
0.00999999
0.00998996
0.00999493
0.0100059
0.00999588
0.00999711
0.00999883
0.0100081
0.00999811
0.0100061
0.00999529
0.0100002
0.0100061
0.00999638
0.0100056
0.00998553
0.0100053
0.00998934
0.0100024
0.0100011
0.00999603
0.0100017
0.00999539
0.0100037
0.00999238
0.0100083
0.00999805
0.0100028
0.00999859
0.0100054
0.00999582
0.0100026
0.0100034
0.00999332
0.0100084
0.00998915
0.0100059
0.00998763
0.0100116
0.00999214
0.0099981
0.00999962
0.0100053
0.00999734
0.0100081
0.00998954
0.0100059
0.00999342
0.0100068
0.0100034
0.010005
0.0100138
0.0099971
0.00999218
0.0100109
0.0099932
0.00999785
0.0099993
0.0100044
0.00998862
0.0100076
0.00999629
0.010001
0.0100033
0.00999356
0.0100035
0.00999107
0.00999779
0.00999396
0.0100108
0.0100028
0.0100023
0.00999927
0.0100133
0.0099974
0.0100027
)
;

boundaryField
{
    inlet
    {
        type            fixedValue;
        value           uniform 0;
    }
    outlet
    {
        type            zeroGradient;
    }
    yzfaces
    {
        type            empty;
    }
}


// ************************************************************************* //
