/*--------------------------------*- C++ -*----------------------------------*\
| =========                 |                                                 |
| \\      /  F ield         | foam-extend: Open Source CFD                    |
|  \\    /   O peration     | Version:     5.0                                |
|   \\  /    A nd           | Web:         http://www.foam-extend.org         |
|    \\/     M anipulation  |                                                 |
\*---------------------------------------------------------------------------*/
FoamFile
{
    version     2.0;
    format      ascii;
    class       volScalarField;
    location    "0.234505";
    object      Na.water;
}
// * * * * * * * * * * * * * * * * * * * * * * * * * * * * * * * * * * * * * //

dimensions      [0 0 0 0 0 0 0];

internalField   nonuniform List<scalar> 
100
(
0
0.0142968
0.018472
0.0199913
0.0208033
0.0214569
0.0219021
0.0223531
0.0226129
0.0228034
0.0228801
0.0229142
0.0230069
0.02297
0.0229922
0.0229987
0.0230042
0.0230061
0.0230061
0.0229912
0.0229796
0.0230024
0.0229965
0.0229984
0.0230063
0.0229804
0.0229887
0.0230085
0.0229836
0.0229891
0.0229933
0.0230155
0.0229908
0.0230126
0.0229906
0.0230017
0.0230102
0.022983
0.0230047
0.0229658
0.0230146
0.022982
0.0230078
0.0230089
0.0229948
0.0230011
0.0229858
0.0230166
0.0229905
0.0230277
0.022997
0.023009
0.0229961
0.0230075
0.0229829
0.0230026
0.0230059
0.0229845
0.0230149
0.0229691
0.0230082
0.0229609
0.0230255
0.0229833
0.0229938
0.022996
0.0230026
0.0229879
0.0230146
0.0229717
0.0230157
0.0229827
0.0230041
0.0230025
0.0230126
0.0230314
0.0229947
0.0229922
0.0230318
0.0229946
0.0229874
0.0229921
0.0230054
0.0229747
0.0230188
0.0229976
0.0230014
0.0230049
0.0229814
0.0230075
0.0229797
0.0229977
0.0229871
0.0230279
0.0230067
0.02301
0.022998
0.0230319
0.0229938
0.0230154
)
;

boundaryField
{
    inlet
    {
        type            fixedValue;
        value           uniform 0;
    }
    outlet
    {
        type            zeroGradient;
    }
    yzfaces
    {
        type            empty;
    }
}


// ************************************************************************* //
