/*--------------------------------*- C++ -*----------------------------------*\
| =========                 |                                                 |
| \\      /  F ield         | foam-extend: Open Source CFD                    |
|  \\    /   O peration     | Version:     5.0                                |
|   \\  /    A nd           | Web:         http://www.foam-extend.org         |
|    \\/     M anipulation  |                                                 |
\*---------------------------------------------------------------------------*/
FoamFile
{
    version     2.0;
    format      ascii;
    class       surfaceScalarField;
    location    "0.234505";
    object      phi;
}
// * * * * * * * * * * * * * * * * * * * * * * * * * * * * * * * * * * * * * //

dimensions      [0 3 -1 0 0 0 0];

internalField   nonuniform List<scalar> 
99
(
1.21668e-06
1.21916e-06
1.22312e-06
1.22475e-06
1.22533e-06
1.22542e-06
1.22586e-06
1.22718e-06
1.22453e-06
1.22355e-06
1.22536e-06
1.22499e-06
1.22603e-06
1.22435e-06
1.22879e-06
1.2264e-06
1.22779e-06
1.22756e-06
1.22953e-06
1.22902e-06
1.22809e-06
1.22899e-06
1.23168e-06
1.23077e-06
1.22907e-06
1.2327e-06
1.23397e-06
1.23354e-06
1.23239e-06
1.23395e-06
1.23396e-06
1.23504e-06
1.23333e-06
1.23401e-06
1.23431e-06
1.23553e-06
1.23441e-06
1.23396e-06
1.23342e-06
1.23378e-06
1.23515e-06
1.23412e-06
1.23336e-06
1.2331e-06
1.2334e-06
1.23199e-06
1.23333e-06
1.23151e-06
1.23401e-06
1.23263e-06
1.23301e-06
1.23279e-06
1.23109e-06
1.23242e-06
1.23035e-06
1.23017e-06
1.23304e-06
1.23091e-06
1.23171e-06
1.22959e-06
1.23146e-06
1.23051e-06
1.23249e-06
1.23044e-06
1.23336e-06
1.23255e-06
1.23629e-06
1.23484e-06
1.23466e-06
1.23369e-06
1.23524e-06
1.23277e-06
1.23591e-06
1.23699e-06
1.23563e-06
1.2353e-06
1.23464e-06
1.23494e-06
1.23666e-06
1.23251e-06
1.23483e-06
1.23334e-06
1.23389e-06
1.23448e-06
1.23674e-06
1.23532e-06
1.23505e-06
1.23605e-06
1.23517e-06
1.23556e-06
1.2341e-06
1.23426e-06
1.23444e-06
1.23673e-06
1.23272e-06
1.2343e-06
1.23254e-06
1.23264e-06
1.23164e-06
)
;

boundaryField
{
    inlet
    {
        type            calculated;
        value           uniform -1.225e-06;
    }
    outlet
    {
        type            calculated;
        value           uniform 1.23104e-06;
    }
    yzfaces
    {
        type            empty;
    }
}


// ************************************************************************* //
