/*--------------------------------*- C++ -*----------------------------------*\
| =========                 |                                                 |
| \\      /  F ield         | foam-extend: Open Source CFD                    |
|  \\    /   O peration     | Version:     5.0                                |
|   \\  /    A nd           | Web:         http://www.foam-extend.org         |
|    \\/     M anipulation  |                                                 |
\*---------------------------------------------------------------------------*/
FoamFile
{
    version     2.0;
    format      ascii;
    class       volScalarField;
    location    "0.234505";
    object      S.gas;
}
// * * * * * * * * * * * * * * * * * * * * * * * * * * * * * * * * * * * * * //

dimensions      [0 0 0 0 0 0 0];

internalField   nonuniform List<scalar> 
100
(
0.295835
0.23293
0.194435
0.163721
0.137134
0.113733
0.0938083
0.0778574
0.0663705
0.0589316
0.0546213
0.0523122
0.051129
0.0505501
0.0502692
0.0501267
0.0500626
0.0500294
0.0500077
0.0500035
0.0499933
0.0499916
0.0499893
0.0499973
0.0499954
0.0499999
0.0499986
0.0500014
0.0499956
0.0499997
0.0500107
0.0500103
0.0499946
0.0499904
0.049987
0.0499879
0.049992
0.0500013
0.0500074
0.05
0.0499976
0.0499947
0.0499878
0.0499869
0.0499905
0.0500028
0.0500105
0.0499963
0.0499876
0.0499898
0.0499956
0.0499974
0.0499978
0.0500017
0.0500025
0.0500032
0.050003
0.0500004
0.049998
0.0499965
0.0500006
0.0500039
0.0499947
0.0499993
0.0500029
0.0499983
0.0500002
0.0500022
0.0499983
0.0500001
0.0499966
0.0499981
0.0500077
0.0499988
0.0499954
0.0499989
0.0500025
0.0500005
0.0499974
0.0499958
0.0500112
0.0500132
0.0500009
0.0499936
0.0500055
0.0499982
0.0499974
0.0499875
0.0499819
0.0499893
0.0499894
0.0499942
0.049998
0.0500053
0.0500014
0.0500017
0.0499944
0.0499975
0.0500037
0.050005
)
;

boundaryField
{
    inlet
    {
        type            calculated;
        value           uniform 1;
    }
    outlet
    {
        type            calculated;
        value           uniform 0.050005;
    }
    yzfaces
    {
        type            empty;
    }
}


// ************************************************************************* //
