/*--------------------------------*- C++ -*----------------------------------*\
| =========                 |                                                 |
| \\      /  F ield         | foam-extend: Open Source CFD                    |
|  \\    /   O peration     | Version:     5.0                                |
|   \\  /    A nd           | Web:         http://www.foam-extend.org         |
|    \\/     M anipulation  |                                                 |
\*---------------------------------------------------------------------------*/
FoamFile
{
    version     2.0;
    format      ascii;
    class       volVectorField;
    location    "0.234505";
    object      U.gas;
}
// * * * * * * * * * * * * * * * * * * * * * * * * * * * * * * * * * * * * * //

dimensions      [0 1 -1 0 0 0 0];

internalField   nonuniform List<vector> 
100
(
(0.0148012 0 0)
(0.0146762 0 0)
(0.0144183 0 0)
(0.0138678 0 0)
(0.0129538 0 0)
(0.011709 0 0)
(0.0102246 0 0)
(0.00868521 0 0)
(0.00728187 0 0)
(0.00619987 0 0)
(0.00549342 0 0)
(0.00508579 0 0)
(0.00486746 0 0)
(0.00475525 0 0)
(0.00470637 0 0)
(0.00468398 0 0)
(0.00466856 0 0)
(0.00466461 0 0)
(0.00466458 0 0)
(0.00466478 0 0)
(0.00466214 0 0)
(0.00466155 0 0)
(0.00466789 0 0)
(0.00467099 0 0)
(0.0046671 0 0)
(0.00467128 0 0)
(0.004681 0 0)
(0.00468177 0 0)
(0.00467807 0 0)
(0.00467824 0 0)
(0.00468226 0 0)
(0.00468584 0 0)
(0.00468509 0 0)
(0.00468149 0 0)
(0.00468206 0 0)
(0.00468447 0 0)
(0.00468531 0 0)
(0.00468276 0 0)
(0.00468187 0 0)
(0.00468226 0 0)
(0.00468526 0 0)
(0.00468539 0 0)
(0.00468101 0 0)
(0.00467798 0 0)
(0.00467799 0 0)
(0.00467707 0 0)
(0.0046785 0 0)
(0.00467784 0 0)
(0.00467749 0 0)
(0.00467887 0 0)
(0.0046775 0 0)
(0.00467888 0 0)
(0.0046749 0 0)
(0.00467323 0 0)
(0.00467236 0 0)
(0.00466907 0 0)
(0.0046743 0 0)
(0.00467563 0 0)
(0.00467243 0 0)
(0.0046695 0 0)
(0.00466909 0 0)
(0.00467183 0 0)
(0.00467391 0 0)
(0.00467256 0 0)
(0.00467475 0 0)
(0.00467879 0 0)
(0.00468364 0 0)
(0.00468833 0 0)
(0.00468608 0 0)
(0.00468293 0 0)
(0.00468424 0 0)
(0.00468277 0 0)
(0.00468411 0 0)
(0.00469285 0 0)
(0.00469141 0 0)
(0.00468788 0 0)
(0.00468658 0 0)
(0.004686 0 0)
(0.00468954 0 0)
(0.00468531 0 0)
(0.00468144 0 0)
(0.00468409 0 0)
(0.0046824 0 0)
(0.00468305 0 0)
(0.00468763 0 0)
(0.00469058 0 0)
(0.0046872 0 0)
(0.00468862 0 0)
(0.00468828 0 0)
(0.00468662 0 0)
(0.00468451 0 0)
(0.00468205 0 0)
(0.00468371 0 0)
(0.00468867 0 0)
(0.00468557 0 0)
(0.00468041 0 0)
(0.0046801 0 0)
(0.00467634 0 0)
(0.00467524 0 0)
(0.0046729 0 0)
)
;

boundaryField
{
    inlet
    {
        type            fixedValue;
        value           uniform (0.005 0 0);
    }
    outlet
    {
        type            zeroGradient;
    }
    yzfaces
    {
        type            empty;
    }
}


// ************************************************************************* //
