/*--------------------------------*- C++ -*----------------------------------*\
| =========                 |                                                 |
| \\      /  F ield         | foam-extend: Open Source CFD                    |
|  \\    /   O peration     | Version:     5.0                                |
|   \\  /    A nd           | Web:         http://www.foam-extend.org         |
|    \\/     M anipulation  |                                                 |
\*---------------------------------------------------------------------------*/
FoamFile
{
    version     2.0;
    format      ascii;
    class       volVectorField;
    location    "0.234505";
    object      U.water;
}
// * * * * * * * * * * * * * * * * * * * * * * * * * * * * * * * * * * * * * //

dimensions      [0 1 -1 0 0 0 0];

internalField   nonuniform List<vector> 
100
(
(0.00085817 0 0)
(0.00202405 0 0)
(0.00270721 0 0)
(0.00325871 0 0)
(0.0037361 0 0)
(0.00414077 0 0)
(0.00446202 0 0)
(0.00469557 0 0)
(0.0048415 0 0)
(0.00492069 0 0)
(0.00496915 0 0)
(0.00499603 0 0)
(0.00500934 0 0)
(0.00501385 0 0)
(0.00502228 0 0)
(0.00502782 0 0)
(0.00502648 0 0)
(0.00502916 0 0)
(0.00503289 0 0)
(0.00503602 0 0)
(0.00503305 0 0)
(0.00503302 0 0)
(0.00504041 0 0)
(0.00504407 0 0)
(0.00503867 0 0)
(0.00504259 0 0)
(0.0050526 0 0)
(0.00505437 0 0)
(0.00505115 0 0)
(0.00505203 0 0)
(0.0050552 0 0)
(0.00505736 0 0)
(0.00505603 0 0)
(0.00505401 0 0)
(0.00505609 0 0)
(0.00505921 0 0)
(0.0050594 0 0)
(0.00505617 0 0)
(0.00505408 0 0)
(0.00505366 0 0)
(0.00505722 0 0)
(0.00505794 0 0)
(0.00505433 0 0)
(0.00505231 0 0)
(0.00505239 0 0)
(0.00505005 0 0)
(0.00504983 0 0)
(0.00504882 0 0)
(0.00505031 0 0)
(0.00505264 0 0)
(0.00505057 0 0)
(0.00505084 0 0)
(0.00504692 0 0)
(0.00504621 0 0)
(0.00504466 0 0)
(0.00504 0 0)
(0.00504551 0 0)
(0.00504704 0 0)
(0.00504435 0 0)
(0.00504166 0 0)
(0.00504114 0 0)
(0.00504299 0 0)
(0.00504509 0 0)
(0.00504501 0 0)
(0.00504678 0 0)
(0.00505109 0 0)
(0.00505713 0 0)
(0.00506179 0 0)
(0.0050584 0 0)
(0.00505611 0 0)
(0.0050573 0 0)
(0.00505539 0 0)
(0.00505676 0 0)
(0.00506536 0 0)
(0.00506483 0 0)
(0.0050614 0 0)
(0.00505935 0 0)
(0.0050586 0 0)
(0.00506276 0 0)
(0.00505776 0 0)
(0.00505402 0 0)
(0.00505567 0 0)
(0.00505374 0 0)
(0.00505614 0 0)
(0.00506202 0 0)
(0.00506368 0 0)
(0.00506022 0 0)
(0.00506171 0 0)
(0.00506198 0 0)
(0.00506102 0 0)
(0.00505883 0 0)
(0.00505616 0 0)
(0.00505682 0 0)
(0.00506187 0 0)
(0.00505834 0 0)
(0.00505339 0 0)
(0.00505301 0 0)
(0.00504966 0 0)
(0.00504778 0 0)
(0.00504446 0 0)
)
;

boundaryField
{
    inlet
    {
        type            fixedValue;
        value           uniform (0 0 0);
    }
    outlet
    {
        type            zeroGradient;
    }
    yzfaces
    {
        type            empty;
    }
}


// ************************************************************************* //
