/*--------------------------------*- C++ -*----------------------------------*\
| =========                 |                                                 |
| \\      /  F ield         | foam-extend: Open Source CFD                    |
|  \\    /   O peration     | Version:     5.0                                |
|   \\  /    A nd           | Web:         http://www.foam-extend.org         |
|    \\/     M anipulation  |                                                 |
\*---------------------------------------------------------------------------*/
FoamFile
{
    version     2.0;
    format      ascii;
    class       volScalarField;
    location    "6";
    object      Ns;
}
// * * * * * * * * * * * * * * * * * * * * * * * * * * * * * * * * * * * * * //

dimensions      [0 -3 0 0 1 0 0];

internalField   nonuniform List<scalar> 
100
(
0.540747
0.120793
2.36076
1.67026
5.69647
0.373361
1.5683
1.50075
1.54876
1.86577
1.29181
0.338287
2.01471
1.90995
1.58604
0.471096
2.37621
1.90478
3.68023
3.06675
1.54322
0.0587776
0.65379
1.3558
0.680395
1.0338
0.455379
0.963743
0.236346
1.19249
0.329144
0.187749
0.227481
0.300581
0.119287
1.76838
0.231452
0.121766
0.414246
0.244711
1.13117
0.293167
3.25889
0.898334
0.138585
0.915065
0.53036
0.355047
1.00204
2.22032
4.77355
5.23117
5.3562
12.0183
26.451
2
2
2
2
2
2
2
2
2
2
2
2
2
2
2
2
2
2
2
2
2
2
2
2
2
2
2
2
2
2
2
2
2
2
2
2
2
2
2
2
2
2
2
2
2
)
;

boundaryField
{
    inlet
    {
        type            fixedValue;
        value           uniform 0;
    }
    outlet
    {
        type            zeroGradient;
    }
    yzfaces
    {
        type            empty;
    }
}


// ************************************************************************* //
