/*--------------------------------*- C++ -*----------------------------------*\
| =========                 |                                                 |
| \\      /  F ield         | foam-extend: Open Source CFD                    |
|  \\    /   O peration     | Version:     5.0                                |
|   \\  /    A nd           | Web:         http://www.foam-extend.org         |
|    \\/     M anipulation  |                                                 |
\*---------------------------------------------------------------------------*/
FoamFile
{
    version     2.0;
    format      ascii;
    class       volVectorField;
    location    "6";
    object      U.water;
}
// * * * * * * * * * * * * * * * * * * * * * * * * * * * * * * * * * * * * * //

dimensions      [0 1 -1 0 0 0 0];

internalField   nonuniform List<vector> 
100
(
(4.18321e-05 0 0)
(9.83491e-05 0 0)
(0.00014764 0 0)
(0.000190597 0 0)
(0.000220595 0 0)
(0.000256453 0 0)
(0.000307879 0 0)
(0.000357693 0 0)
(0.000404164 0 0)
(0.000447646 0 0)
(0.000484852 0 0)
(0.000520573 0 0)
(0.000562122 0 0)
(0.000596669 0 0)
(0.000630346 0 0)
(0.000666628 0 0)
(0.000696791 0 0)
(0.000733232 0 0)
(0.000775356 0 0)
(0.000803109 0 0)
(0.000827888 0 0)
(0.00085574 0 0)
(0.000885511 0 0)
(0.000925611 0 0)
(0.00096253 0 0)
(0.00099229 0 0)
(0.00102654 0 0)
(0.00106152 0 0)
(0.00109307 0 0)
(0.00112435 0 0)
(0.00115392 0 0)
(0.0011895 0 0)
(0.00122956 0 0)
(0.00126336 0 0)
(0.00129253 0 0)
(0.00132668 0 0)
(0.00136658 0 0)
(0.00140772 0 0)
(0.00144435 0 0)
(0.00147964 0 0)
(0.00151599 0 0)
(0.00155461 0 0)
(0.00159856 0 0)
(0.0016422 0 0)
(0.0016942 0 0)
(0.00174958 0 0)
(0.00180906 0 0)
(0.00188064 0 0)
(0.00196067 0 0)
(0.00205558 0 0)
(0.00217122 0 0)
(0.00233073 0 0)
(0.00258301 0 0)
(0.00303218 0 0)
(0.00387048 0 0)
(0.00458748 0 0)
(0.00438848 0 0)
(0.00427969 0 0)
(0.00420829 0 0)
(0.00416187 0 0)
(0.00413147 0 0)
(0.00410983 0 0)
(0.00409637 0 0)
(0.00408876 0 0)
(0.00408346 0 0)
(0.00407812 0 0)
(0.00407245 0 0)
(0.00406739 0 0)
(0.00405934 0 0)
(0.00405235 0 0)
(0.00405052 0 0)
(0.00404892 0 0)
(0.0040485 0 0)
(0.00404446 0 0)
(0.00403814 0 0)
(0.00403293 0 0)
(0.00402444 0 0)
(0.00401842 0 0)
(0.0040214 0 0)
(0.00402067 0 0)
(0.00401697 0 0)
(0.00402114 0 0)
(0.00402888 0 0)
(0.00403671 0 0)
(0.0040446 0 0)
(0.00405879 0 0)
(0.00407739 0 0)
(0.00410799 0 0)
(0.00414637 0 0)
(0.00418564 0 0)
(0.00423006 0 0)
(0.00428593 0 0)
(0.00435388 0 0)
(0.00442929 0 0)
(0.00450821 0 0)
(0.00458096 0 0)
(0.00465053 0 0)
(0.0047172 0 0)
(0.00476883 0 0)
(0.00481035 0 0)
)
;

boundaryField
{
    inlet
    {
        type            fixedValue;
        value           uniform (0 0 0);
    }
    outlet
    {
        type            zeroGradient;
    }
    yzfaces
    {
        type            empty;
    }
}


// ************************************************************************* //
