/*--------------------------------*- C++ -*----------------------------------*\
| =========                 |                                                 |
| \\      /  F ield         | foam-extend: Open Source CFD                    |
|  \\    /   O peration     | Version:     5.0                                |
|   \\  /    A nd           | Web:         http://www.foam-extend.org         |
|    \\/     M anipulation  |                                                 |
\*---------------------------------------------------------------------------*/
FoamFile
{
    version     2.0;
    format      ascii;
    class       volScalarField;
    location    "7";
    object      alpha.gas;
}
// * * * * * * * * * * * * * * * * * * * * * * * * * * * * * * * * * * * * * //

dimensions      [0 0 0 0 0 0 0];

internalField   nonuniform List<scalar> 
100
(
0.167463
0.136618
0.122242
0.110574
0.101606
0.0987226
0.100973
0.100984
0.101966
0.102257
0.10317
0.101237
0.0993122
0.10241
0.103971
0.0965888
0.0939542
0.0825109
0.0845406
0.0803463
0.0795155
0.0794604
0.0801019
0.0807848
0.0798053
0.0788715
0.0796295
0.0802737
0.0798909
0.0781717
0.0752325
0.0739985
0.07512
0.0735885
0.0720287
0.0729791
0.0705279
0.0686222
0.069501
0.0687816
0.0691271
0.0681938
0.0672568
0.0688123
0.06756
0.0648422
0.0648718
0.0628601
0.060295
0.0580678
0.059207
0.0567424
0.0571079
0.0573655
0.0566273
0.0545279
0.0523997
0.0489045
0.046391
0.0456378
0.043371
0.039979
0.0334079
0.0146601
0.0210964
0.023224
0.0239876
0.0242412
0.0243353
0.0243843
0.0244528
0.0245297
0.024621
0.0247133
0.0248092
0.0248989
0.0249919
0.0250802
0.0251632
0.0252425
0.0253207
0.0254084
0.0254925
0.0255855
0.0256641
0.0257507
0.0258266
0.0258826
0.0259468
0.0259997
0.0260306
0.0260516
0.026056
0.0260586
0.0260392
0.0259893
0.025911
0.0258066
0.0256596
0.0254525
)
;

boundaryField
{
    inlet
    {
        type            fixedValue;
        value           uniform 0.2;
    }
    outlet
    {
        type            zeroGradient;
    }
    yzfaces
    {
        type            empty;
    }
}


// ************************************************************************* //
