/*--------------------------------*- C++ -*----------------------------------*\
| =========                 |                                                 |
| \\      /  F ield         | foam-extend: Open Source CFD                    |
|  \\    /   O peration     | Version:     5.0                                |
|   \\  /    A nd           | Web:         http://www.foam-extend.org         |
|    \\/     M anipulation  |                                                 |
\*---------------------------------------------------------------------------*/
FoamFile
{
    version     2.0;
    format      ascii;
    class       volScalarField;
    location    "7";
    object      CO2.gas;
}
// * * * * * * * * * * * * * * * * * * * * * * * * * * * * * * * * * * * * * //

dimensions      [0 0 0 0 0 0 0];

internalField   nonuniform List<scalar> 
100
(
0.167136
0.136352
0.122004
0.110358
0.101409
0.0985304
0.100776
0.100787
0.101767
0.102057
0.102969
0.10104
0.0991188
0.102211
0.103768
0.0964007
0.0937713
0.0823502
0.084376
0.0801899
0.0793607
0.0793057
0.0799459
0.0806274
0.0796499
0.0787179
0.0794744
0.0801174
0.0797353
0.0780194
0.075086
0.0738543
0.0749737
0.0734451
0.0718885
0.072837
0.0703906
0.0684886
0.0693656
0.0686477
0.0689924
0.068061
0.0671258
0.0686783
0.0674284
0.064716
0.0647454
0.0627377
0.0601776
0.0579547
0.0590917
0.0566319
0.0569967
0.0572538
0.0565171
0.0544217
0.0522976
0.0488093
0.0463007
0.0455489
0.0432865
0.0399012
0.0333429
0.0146315
0.0206124
0.0223375
0.0226406
0.0223855
0.0219138
0.0213481
0.0207553
0.020113
0.019442
0.0187262
0.0179644
0.0171686
0.01634
0.0154739
0.0145936
0.0137042
0.0128081
0.0119203
0.0110295
0.0101647
0.00930975
0.0084798
0.00768311
0.00691157
0.00618247
0.00549448
0.00484417
0.00424492
0.00369116
0.0031839
0.00272124
0.00230394
0.00193156
0.00160065
0.00130939
0.00105526
)
;

boundaryField
{
    inlet
    {
        type            fixedValue;
        value           uniform 0.2;
    }
    outlet
    {
        type            zeroGradient;
    }
    yzfaces
    {
        type            empty;
    }
}


// ************************************************************************* //
