/*--------------------------------*- C++ -*----------------------------------*\
| =========                 |                                                 |
| \\      /  F ield         | foam-extend: Open Source CFD                    |
|  \\    /   O peration     | Version:     5.0                                |
|   \\  /    A nd           | Web:         http://www.foam-extend.org         |
|    \\/     M anipulation  |                                                 |
\*---------------------------------------------------------------------------*/
FoamFile
{
    version     2.0;
    format      ascii;
    class       volScalarField;
    location    "7";
    object      CO2.water;
}
// * * * * * * * * * * * * * * * * * * * * * * * * * * * * * * * * * * * * * //

dimensions      [0 0 0 0 0 0 0];

internalField   nonuniform List<scalar> 
100
(
0.000854582
0.0016647
0.00204228
0.00234874
0.00258426
0.00266
0.0026009
0.00260062
0.00257482
0.00256719
0.00254319
0.00259397
0.00264452
0.00256315
0.00252216
0.00271605
0.00278524
0.0030858
0.00303249
0.00314265
0.00316447
0.00316592
0.00314907
0.00313113
0.00315686
0.00318138
0.00316148
0.00314456
0.00315461
0.00319977
0.00327696
0.00330937
0.00327992
0.00332014
0.00336111
0.00333614
0.00340052
0.00345058
0.0034275
0.00344639
0.00343732
0.00346183
0.00348644
0.00344558
0.00347848
0.00354986
0.00354908
0.00360192
0.00366929
0.00372779
0.00369786
0.00376259
0.003753
0.00374623
0.00376562
0.00382076
0.00387665
0.00396845
0.00403447
0.00405425
0.00411379
0.00420288
0.00437546
0.00486787
0.00146966
0.000480814
0.000169267
6.23002e-05
2.33864e-05
8.82706e-06
3.33058e-06
1.25213e-06
4.69206e-07
1.75363e-07
6.54281e-08
2.44225e-08
9.12974e-09
3.41813e-09
1.28569e-09
4.87027e-10
1.86132e-10
7.1909e-11
2.80969e-11
1.11469e-11
4.4836e-12
1.82973e-12
7.56804e-13
3.1648e-13
1.33814e-13
5.70479e-14
2.44673e-14
1.0556e-14
4.57206e-15
1.98791e-15
8.66343e-16
3.78501e-16
1.66008e-16
7.30968e-17
3.23492e-17
1.43892e-17
)
;

boundaryField
{
    inlet
    {
        type            fixedValue;
        value           uniform 0;
    }
    outlet
    {
        type            zeroGradient;
    }
    yzfaces
    {
        type            empty;
    }
}


// ************************************************************************* //
