/*--------------------------------*- C++ -*----------------------------------*\
| =========                 |                                                 |
| \\      /  F ield         | foam-extend: Open Source CFD                    |
|  \\    /   O peration     | Version:     5.0                                |
|   \\  /    A nd           | Web:         http://www.foam-extend.org         |
|    \\/     M anipulation  |                                                 |
\*---------------------------------------------------------------------------*/
FoamFile
{
    version     2.0;
    format      ascii;
    class       volScalarField;
    location    "7";
    object      H2O.gas;
}
// * * * * * * * * * * * * * * * * * * * * * * * * * * * * * * * * * * * * * //

dimensions      [0 0 0 0 0 0 0];

internalField   nonuniform List<scalar> 
100
(
0.000326128
0.00026606
0.000238062
0.000215339
0.000197876
0.000192259
0.000196642
0.000196663
0.000198576
0.000199142
0.000200921
0.000197156
0.000193408
0.000199441
0.00020248
0.000188104
0.000182973
0.000160688
0.00016464
0.000156472
0.000154854
0.000154747
0.000155996
0.000157326
0.000155419
0.0001536
0.000155076
0.000156331
0.000155585
0.000152237
0.000146513
0.00014411
0.000146294
0.000143311
0.000140274
0.000142125
0.000137351
0.00013364
0.000135351
0.00013395
0.000134623
0.000132805
0.000130981
0.00013401
0.000131571
0.000126278
0.000126336
0.000122418
0.000117423
0.000113085
0.000115304
0.000110504
0.000111216
0.000111718
0.00011028
0.000106191
0.000102047
9.52402e-05
9.03452e-05
8.88782e-05
8.44637e-05
7.7858e-05
6.5061e-05
2.85501e-05
0.000484344
0.000898832
0.00135831
0.00186937
0.00243084
0.00304525
0.0037123
0.00443115
0.00519858
0.00601147
0.00686183
0.00775462
0.00867844
0.00961567
0.0105751
0.0115508
0.0125277
0.0135113
0.0144672
0.015427
0.0163562
0.0172646
0.0181515
0.0189694
0.0197624
0.0205002
0.0211655
0.0217897
0.0223584
0.0228763
0.0233131
0.023685
0.0239941
0.0242267
0.0243678
0.0244002
)
;

boundaryField
{
    inlet
    {
        type            fixedValue;
        value           uniform 0;
    }
    outlet
    {
        type            zeroGradient;
    }
    yzfaces
    {
        type            empty;
    }
}


// ************************************************************************* //
