/*--------------------------------*- C++ -*----------------------------------*\
| =========                 |                                                 |
| \\      /  F ield         | foam-extend: Open Source CFD                    |
|  \\    /   O peration     | Version:     5.0                                |
|   \\  /    A nd           | Web:         http://www.foam-extend.org         |
|    \\/     M anipulation  |                                                 |
\*---------------------------------------------------------------------------*/
FoamFile
{
    version     2.0;
    format      ascii;
    class       surfaceScalarField;
    location    "7";
    object      phi;
}
// * * * * * * * * * * * * * * * * * * * * * * * * * * * * * * * * * * * * * //

dimensions      [0 3 -1 0 0 0 0];

internalField   nonuniform List<scalar> 
99
(
1.2281e-06
1.21852e-06
1.22378e-06
1.22358e-06
1.22145e-06
1.21755e-06
1.22322e-06
1.22094e-06
1.2171e-06
1.21659e-06
1.21562e-06
1.20737e-06
1.20826e-06
1.21384e-06
1.21643e-06
1.20979e-06
1.21606e-06
1.20859e-06
1.20909e-06
1.20827e-06
1.20864e-06
1.20795e-06
1.20403e-06
1.20528e-06
1.20541e-06
1.20487e-06
1.20544e-06
1.19946e-06
1.20327e-06
1.20795e-06
1.21007e-06
1.20916e-06
1.20888e-06
1.2107e-06
1.20967e-06
1.20644e-06
1.20564e-06
1.20624e-06
1.20892e-06
1.20966e-06
1.21371e-06
1.21154e-06
1.21426e-06
1.21583e-06
1.21719e-06
1.21442e-06
1.21571e-06
1.21689e-06
1.21382e-06
1.21175e-06
1.21194e-06
1.20898e-06
1.20789e-06
1.20954e-06
1.20996e-06
1.20978e-06
1.21047e-06
1.20874e-06
1.20705e-06
1.2087e-06
1.20765e-06
1.20678e-06
1.20755e-06
1.20754e-06
1.20739e-06
1.20699e-06
1.20589e-06
1.20714e-06
1.20644e-06
1.20864e-06
1.20907e-06
1.20969e-06
1.20906e-06
1.20948e-06
1.20787e-06
1.20968e-06
1.20905e-06
1.20899e-06
1.2086e-06
1.21036e-06
1.21042e-06
1.21063e-06
1.21098e-06
1.20973e-06
1.21031e-06
1.21015e-06
1.20761e-06
1.20888e-06
1.2074e-06
1.20643e-06
1.20729e-06
1.20821e-06
1.21009e-06
1.21054e-06
1.21067e-06
1.21432e-06
1.21446e-06
1.21549e-06
1.21612e-06
)
;

boundaryField
{
    inlet
    {
        type            calculated;
        value           uniform -1.225e-06;
    }
    outlet
    {
        type            calculated;
        value           uniform 1.21513e-06;
    }
    yzfaces
    {
        type            empty;
    }
}


// ************************************************************************* //
