/*--------------------------------*- C++ -*----------------------------------*\
| =========                 |                                                 |
| \\      /  F ield         | foam-extend: Open Source CFD                    |
|  \\    /   O peration     | Version:     5.0                                |
|   \\  /    A nd           | Web:         http://www.foam-extend.org         |
|    \\/     M anipulation  |                                                 |
\*---------------------------------------------------------------------------*/
FoamFile
{
    version     2.0;
    format      ascii;
    class       surfaceScalarField;
    location    "7";
    object      phi.water;
}
// * * * * * * * * * * * * * * * * * * * * * * * * * * * * * * * * * * * * * //

dimensions      [0 3 -1 0 0 0 0];

internalField   nonuniform List<scalar> 
99
(
5.64791e-08
2.0211e-07
3.40087e-07
4.67058e-07
6.08312e-07
6.86751e-07
6.45327e-07
6.50544e-07
5.9726e-07
6.14327e-07
5.86865e-07
6.21504e-07
6.62519e-07
6.1481e-07
5.64594e-07
6.87956e-07
7.28132e-07
9.9034e-07
1.0143e-06
1.10236e-06
1.14157e-06
1.16117e-06
1.11665e-06
1.10372e-06
1.15418e-06
1.17048e-06
1.15031e-06
1.08574e-06
1.15109e-06
1.27773e-06
1.30978e-06
1.36144e-06
1.3265e-06
1.41192e-06
1.41254e-06
1.38124e-06
1.46844e-06
1.57798e-06
1.60763e-06
1.60411e-06
1.61039e-06
1.60264e-06
1.70494e-06
1.64306e-06
1.66495e-06
1.73059e-06
1.79941e-06
1.87866e-06
1.95681e-06
2.07202e-06
2.10834e-06
2.15186e-06
2.19866e-06
2.2183e-06
2.2534e-06
2.35578e-06
2.54387e-06
2.80378e-06
2.95013e-06
3.05817e-06
3.21764e-06
3.48181e-06
4.04654e-06
5.96746e-06
5.45286e-06
5.24586e-06
5.16409e-06
5.14466e-06
5.13234e-06
5.13691e-06
5.13238e-06
5.12783e-06
5.11545e-06
5.10909e-06
5.09281e-06
5.09162e-06
5.08185e-06
5.07526e-06
5.06464e-06
5.06394e-06
5.05658e-06
5.05009e-06
5.0454e-06
5.03076e-06
5.02777e-06
5.01706e-06
4.99889e-06
4.99997e-06
4.98809e-06
4.9804e-06
4.98228e-06
4.98205e-06
4.98732e-06
4.98907e-06
4.99028e-06
5.00864e-06
5.0149e-06
5.0278e-06
5.04518e-06
)
;

boundaryField
{
    inlet
    {
        type            fixedValue;
        value           uniform 0;
    }
    outlet
    {
        type            calculated;
        value           uniform 5.06414e-06;
    }
    yzfaces
    {
        type            empty;
    }
}


// ************************************************************************* //
