/*--------------------------------*- C++ -*----------------------------------*\
| =========                 |                                                 |
| \\      /  F ield         | foam-extend: Open Source CFD                    |
|  \\    /   O peration     | Version:     5.0                                |
|   \\  /    A nd           | Web:         http://www.foam-extend.org         |
|    \\/     M anipulation  |                                                 |
\*---------------------------------------------------------------------------*/
FoamFile
{
    version     2.0;
    format      ascii;
    class       volVectorField;
    location    "7";
    object      U.gas;
}
// * * * * * * * * * * * * * * * * * * * * * * * * * * * * * * * * * * * * * //

dimensions      [0 1 -1 0 0 0 0];

internalField   nonuniform List<vector> 
100
(
(0.00598883 0 0)
(0.00722517 0 0)
(0.00807314 0 0)
(0.00876612 0 0)
(0.00935908 0 0)
(0.0095516 0 0)
(0.00935764 0 0)
(0.00938647 0 0)
(0.00917235 0 0)
(0.00922927 0 0)
(0.00913224 0 0)
(0.00928382 0 0)
(0.00936028 0 0)
(0.00915547 0 0)
(0.0090828 0 0)
(0.00962675 0 0)
(0.00982386 0 0)
(0.0107314 0 0)
(0.0106437 0 0)
(0.0109086 0 0)
(0.010966 0 0)
(0.0109801 0 0)
(0.010828 0 0)
(0.010822 0 0)
(0.0109868 0 0)
(0.0109905 0 0)
(0.0108996 0 0)
(0.0107436 0 0)
(0.0109956 0 0)
(0.0113449 0 0)
(0.0113815 0 0)
(0.0114947 0 0)
(0.0113843 0 0)
(0.0116392 0 0)
(0.0115762 0 0)
(0.0115112 0 0)
(0.0117747 0 0)
(0.0119665 0 0)
(0.0119436 0 0)
(0.0119346 0 0)
(0.0119665 0 0)
(0.011985 0 0)
(0.0122011 0 0)
(0.0119959 0 0)
(0.012136 0 0)
(0.0122895 0 0)
(0.0123812 0 0)
(0.0125237 0 0)
(0.0126351 0 0)
(0.0127729 0 0)
(0.0127128 0 0)
(0.0127616 0 0)
(0.0127813 0 0)
(0.0127706 0 0)
(0.0128486 0 0)
(0.0130339 0 0)
(0.0132804 0 0)
(0.0134832 0 0)
(0.0133329 0 0)
(0.0132821 0 0)
(0.0133847 0 0)
(0.0135353 0 0)
(0.0139523 0 0)
(0.0170675 0 0)
(0.00693267 0 0)
(0.00911417 0 0)
(0.00984056 0 0)
(0.0101003 0 0)
(0.0101874 0 0)
(0.0102258 0 0)
(0.010249 0 0)
(0.0102712 0 0)
(0.0102927 0 0)
(0.0103188 0 0)
(0.0103412 0 0)
(0.0103702 0 0)
(0.010399 0 0)
(0.0104228 0 0)
(0.010449 0 0)
(0.0104798 0 0)
(0.0105069 0 0)
(0.0105277 0 0)
(0.0105551 0 0)
(0.0105755 0 0)
(0.0105989 0 0)
(0.0106227 0 0)
(0.0106371 0 0)
(0.0106522 0 0)
(0.010665 0 0)
(0.0106721 0 0)
(0.010687 0 0)
(0.0107041 0 0)
(0.010725 0 0)
(0.0107357 0 0)
(0.0107415 0 0)
(0.0107556 0 0)
(0.0107572 0 0)
(0.0107427 0 0)
(0.0107264 0 0)
(0.0106924 0 0)
)
;

boundaryField
{
    inlet
    {
        type            fixedValue;
        value           uniform (0.005 0 0);
    }
    outlet
    {
        type            zeroGradient;
    }
    yzfaces
    {
        type            empty;
    }
}


// ************************************************************************* //
