/*--------------------------------*- C++ -*----------------------------------*\
| =========                 |                                                 |
| \\      /  F ield         | foam-extend: Open Source CFD                    |
|  \\    /   O peration     | Version:     5.0                                |
|   \\  /    A nd           | Web:         http://www.foam-extend.org         |
|    \\/     M anipulation  |                                                 |
\*---------------------------------------------------------------------------*/
FoamFile
{
    version     2.0;
    format      ascii;
    class       volVectorField;
    location    "7";
    object      U.water;
}
// * * * * * * * * * * * * * * * * * * * * * * * * * * * * * * * * * * * * * //

dimensions      [0 1 -1 0 0 0 0];

internalField   nonuniform List<vector> 
100
(
(3.34625e-05 0 0)
(0.000110545 0 0)
(0.00022229 0 0)
(0.000330153 0 0)
(0.000435048 0 0)
(0.00052174 0 0)
(0.000546325 0 0)
(0.000525903 0 0)
(0.000513535 0 0)
(0.00049253 0 0)
(0.000494456 0 0)
(0.00049257 0 0)
(0.000518736 0 0)
(0.000522972 0 0)
(0.000491458 0 0)
(0.00050817 0 0)
(0.000588082 0 0)
(0.000691278 0 0)
(0.000821354 0 0)
(0.000861509 0 0)
(0.000914786 0 0)
(0.000937129 0 0)
(0.000931688 0 0)
(0.000909352 0 0)
(0.000919668 0 0)
(0.000946726 0 0)
(0.000946256 0 0)
(0.000919433 0 0)
(0.00091498 0 0)
(0.000986372 0 0)
(0.00105642 0 0)
(0.00108656 0 0)
(0.0011021 0 0)
(0.00111346 0 0)
(0.00115207 0 0)
(0.00114613 0 0)
(0.00116358 0 0)
(0.00123941 0 0)
(0.00129851 0 0)
(0.00131054 0 0)
(0.00131175 0 0)
(0.00131504 0 0)
(0.00134253 0 0)
(0.00137011 0 0)
(0.00135215 0 0)
(0.00138584 0 0)
(0.00144139 0 0)
(0.00150161 0 0)
(0.00156739 0 0)
(0.0016416 0 0)
(0.00170732 0 0)
(0.00173926 0 0)
(0.00177481 0 0)
(0.00180382 0 0)
(0.00182835 0 0)
(0.00188495 0 0)
(0.00200247 0 0)
(0.00217828 0 0)
(0.00234736 0 0)
(0.0024557 0 0)
(0.00256796 0 0)
(0.0027528 0 0)
(0.00313341 0 0)
(0.00396338 0 0)
(0.00469209 0 0)
(0.00437727 0 0)
(0.00425425 0 0)
(0.00421069 0 0)
(0.00419674 0 0)
(0.00419323 0 0)
(0.00419377 0 0)
(0.00419045 0 0)
(0.00418423 0 0)
(0.00417686 0 0)
(0.00416755 0 0)
(0.00416074 0 0)
(0.00415607 0 0)
(0.0041479 0 0)
(0.00414011 0 0)
(0.00413599 0 0)
(0.00413346 0 0)
(0.00412786 0 0)
(0.0041221 0 0)
(0.00411356 0 0)
(0.00410562 0 0)
(0.00409988 0 0)
(0.00408858 0 0)
(0.00408123 0 0)
(0.00407641 0 0)
(0.00406761 0 0)
(0.00406396 0 0)
(0.00406477 0 0)
(0.00406804 0 0)
(0.00407181 0 0)
(0.00407306 0 0)
(0.00408172 0 0)
(0.00409336 0 0)
(0.00410224 0 0)
(0.00411413 0 0)
(0.0041261 0 0)
)
;

boundaryField
{
    inlet
    {
        type            fixedValue;
        value           uniform (0 0 0);
    }
    outlet
    {
        type            zeroGradient;
    }
    yzfaces
    {
        type            empty;
    }
}


// ************************************************************************* //
