/*--------------------------------*- C++ -*----------------------------------*\
| =========                 |                                                 |
| \\      /  F ield         | foam-extend: Open Source CFD                    |
|  \\    /   O peration     | Version:     5.0                                |
|   \\  /    A nd           | Web:         http://www.foam-extend.org         |
|    \\/     M anipulation  |                                                 |
\*---------------------------------------------------------------------------*/
FoamFile
{
    version     2.0;
    format      ascii;
    class       volScalarField;
    location    "9";
    object      alpha.gas;
}
// * * * * * * * * * * * * * * * * * * * * * * * * * * * * * * * * * * * * * //

dimensions      [0 0 0 0 0 0 0];

internalField   nonuniform List<scalar> 
100
(
0.16803
0.154797
0.146616
0.13893
0.135462
0.134954
0.133047
0.130267
0.125767
0.121149
0.116979
0.113686
0.111224
0.108754
0.105968
0.103849
0.101611
0.0995623
0.097741
0.0964574
0.0950747
0.0934229
0.0918992
0.0906388
0.0892344
0.0878861
0.0868157
0.0867258
0.0863915
0.0861762
0.0856499
0.0848175
0.0838169
0.0828131
0.0819155
0.0807948
0.0796732
0.0788407
0.0781338
0.0772403
0.0766132
0.075903
0.0754567
0.0749034
0.0741882
0.0735783
0.0729369
0.0723255
0.0717854
0.0711837
0.0705703
0.0701941
0.0697814
0.0693206
0.068852
0.0683336
0.0677751
0.0672977
0.0667737
0.0662798
0.06582
0.0655355
0.0650455
0.0645805
0.064086
0.0637077
0.0632064
0.0627974
0.0623045
0.0618937
0.0615616
0.0612407
0.0608211
0.0603279
0.0599191
0.0594911
0.0590854
0.058729
0.0583852
0.0580532
0.0577269
0.0573465
0.057024
0.0566403
0.0562759
0.0559311
0.0555954
0.0553285
0.054985
0.0547615
0.054495
0.0541459
0.053819
0.0535199
0.053236
0.0529426
0.0526998
0.0523874
0.0520625
0.0517318
)
;

boundaryField
{
    inlet
    {
        type            fixedValue;
        value           uniform 0.2;
    }
    outlet
    {
        type            zeroGradient;
    }
    yzfaces
    {
        type            empty;
    }
}


// ************************************************************************* //
