/*--------------------------------*- C++ -*----------------------------------*\
| =========                 |                                                 |
| \\      /  F ield         | foam-extend: Open Source CFD                    |
|  \\    /   O peration     | Version:     5.0                                |
|   \\  /    A nd           | Web:         http://www.foam-extend.org         |
|    \\/     M anipulation  |                                                 |
\*---------------------------------------------------------------------------*/
FoamFile
{
    version     2.0;
    format      ascii;
    class       volScalarField;
    location    "9";
    object      CO2.water;
}
// * * * * * * * * * * * * * * * * * * * * * * * * * * * * * * * * * * * * * //

dimensions      [0 0 0 0 0 0 0];

internalField   nonuniform List<scalar> 
100
(
0.000839681
0.00118723
0.0014021
0.00160397
0.00169506
0.00170841
0.00175849
0.0018315
0.00194971
0.00207099
0.0021805
0.00226699
0.00233167
0.00239653
0.00246969
0.00252535
0.00258413
0.00263795
0.00268579
0.0027195
0.00275582
0.0027992
0.00283922
0.00287232
0.00290921
0.00294462
0.00297273
0.0029751
0.00298388
0.00298953
0.00300335
0.00302522
0.0030515
0.00307786
0.00310143
0.00313087
0.00316033
0.00318219
0.00320076
0.00322423
0.0032407
0.00325935
0.00327107
0.0032856
0.00330439
0.00332041
0.00333725
0.00335331
0.0033675
0.0033833
0.00339941
0.00340929
0.00342013
0.00343223
0.00344454
0.00345816
0.00347283
0.00348536
0.00349913
0.0035121
0.00352417
0.00353165
0.00354452
0.00355673
0.00356972
0.00357966
0.00359282
0.00360356
0.00361651
0.0036273
0.00363602
0.00364445
0.00365547
0.00366842
0.00367916
0.0036904
0.00370106
0.00371042
0.00371945
0.00372817
0.00373674
0.00374673
0.0037552
0.00376528
0.00377485
0.0037839
0.00379272
0.00379973
0.00380875
0.00381462
0.00382162
0.00383079
0.00383938
0.00384723
0.00385469
0.0038624
0.00386877
0.00387698
0.00388551
0.00389419
)
;

boundaryField
{
    inlet
    {
        type            fixedValue;
        value           uniform 0;
    }
    outlet
    {
        type            zeroGradient;
    }
    yzfaces
    {
        type            empty;
    }
}


// ************************************************************************* //
