/*--------------------------------*- C++ -*----------------------------------*\
| =========                 |                                                 |
| \\      /  F ield         | foam-extend: Open Source CFD                    |
|  \\    /   O peration     | Version:     5.0                                |
|   \\  /    A nd           | Web:         http://www.foam-extend.org         |
|    \\/     M anipulation  |                                                 |
\*---------------------------------------------------------------------------*/
FoamFile
{
    version     2.0;
    format      ascii;
    class       volScalarField;
    location    "9";
    object      Na.water;
}
// * * * * * * * * * * * * * * * * * * * * * * * * * * * * * * * * * * * * * //

dimensions      [0 0 0 0 0 0 0];

internalField   nonuniform List<scalar> 
100
(
0.0036716
0.00518873
0.00612738
0.00700749
0.00740708
0.00746503
0.00768593
0.0080047
0.00852239
0.00905289
0.00953111
0.0099081
0.0101907
0.0104733
0.0107919
0.0110373
0.0112999
0.011533
0.0117439
0.0118874
0.0120449
0.012235
0.0124087
0.0125528
0.0127155
0.0128663
0.0129909
0.0130025
0.013042
0.0130676
0.0131297
0.0132239
0.0133393
0.0134535
0.0135546
0.0136842
0.0138152
0.0139118
0.0139897
0.0140928
0.0141635
0.0142476
0.0142992
0.0143622
0.0144429
0.0145115
0.0145869
0.014664
0.014725
0.014793
0.0148626
0.0149062
0.0149565
0.0150067
0.0150579
0.0151168
0.0151767
0.0152293
0.015289
0.015347
0.0154006
0.0154326
0.0154922
0.0155482
0.0156047
0.0156498
0.0157086
0.0157562
0.0158119
0.0158572
0.0158942
0.0159325
0.0159834
0.0160393
0.0160887
0.0161378
0.0161832
0.0162269
0.0162691
0.0163108
0.016346
0.0163897
0.0164211
0.0164639
0.0165053
0.0165441
0.0165792
0.0166123
0.0166499
0.0166786
0.0167085
0.0167455
0.0167817
0.0168154
0.0168499
0.0168869
0.0169114
0.0169515
0.0169875
0.017027
)
;

boundaryField
{
    inlet
    {
        type            fixedValue;
        value           uniform 0;
    }
    outlet
    {
        type            zeroGradient;
    }
    yzfaces
    {
        type            empty;
    }
}


// ************************************************************************* //
