/*--------------------------------*- C++ -*----------------------------------*\
| =========                 |                                                 |
| \\      /  F ield         | foam-extend: Open Source CFD                    |
|  \\    /   O peration     | Version:     5.0                                |
|   \\  /    A nd           | Web:         http://www.foam-extend.org         |
|    \\/     M anipulation  |                                                 |
\*---------------------------------------------------------------------------*/
FoamFile
{
    version     2.0;
    format      ascii;
    class       volScalarField;
    location    "9";
    object      Ns;
}
// * * * * * * * * * * * * * * * * * * * * * * * * * * * * * * * * * * * * * //

dimensions      [0 -3 0 0 1 0 0];

internalField   nonuniform List<scalar> 
100
(
49.6985
69.1225
81.0251
124.016
272.988
276.433
264.522
270.838
131.267
153.727
153.852
85.091
95.7185
122.648
89.1491
97.057
50.156
82.3346
85.9171
103.618
106.149
75.1889
76.0493
116.502
72.3595
131.43
67.3238
112.508
113.945
150.707
112.104
112.658
130.814
135.635
101.871
103.559
100.679
96.0055
119.608
103.222
140.867
104.602
131.753
112.843
91.6779
114.804
104.758
113.677
111.682
136.827
109.459
111.686
109.727
115.801
119.45
137.647
105.948
137.494
92.058
112.959
93.4922
111.624
109.181
125.647
103.014
141.069
107.425
140.485
123.04
131.354
122.745
114.735
133.007
119.49
121.313
113.933
118.487
137.547
110.951
126.679
121.421
137.676
117.197
128.67
114.897
123.685
123.799
126.123
131.469
131.48
119.011
112.975
124.735
124.927
126.739
117.687
127.724
119.483
114.94
122.911
)
;

boundaryField
{
    inlet
    {
        type            fixedValue;
        value           uniform 0;
    }
    outlet
    {
        type            zeroGradient;
    }
    yzfaces
    {
        type            empty;
    }
}


// ************************************************************************* //
