/*--------------------------------*- C++ -*----------------------------------*\
| =========                 |                                                 |
| \\      /  F ield         | foam-extend: Open Source CFD                    |
|  \\    /   O peration     | Version:     5.0                                |
|   \\  /    A nd           | Web:         http://www.foam-extend.org         |
|    \\/     M anipulation  |                                                 |
\*---------------------------------------------------------------------------*/
FoamFile
{
    version     2.0;
    format      ascii;
    class       surfaceScalarField;
    location    "9";
    object      phi;
}
// * * * * * * * * * * * * * * * * * * * * * * * * * * * * * * * * * * * * * //

dimensions      [0 3 -1 0 0 0 0];

internalField   nonuniform List<scalar> 
99
(
1.22345e-06
1.2327e-06
1.22998e-06
1.24236e-06
1.24476e-06
1.23975e-06
1.24451e-06
1.23356e-06
1.22865e-06
1.2062e-06
1.2035e-06
1.2003e-06
1.20498e-06
1.19691e-06
1.19275e-06
1.1898e-06
1.19179e-06
1.19169e-06
1.19397e-06
1.20013e-06
1.20417e-06
1.19726e-06
1.20442e-06
1.20782e-06
1.20982e-06
1.20924e-06
1.2118e-06
1.21958e-06
1.22193e-06
1.2221e-06
1.23258e-06
1.23016e-06
1.2245e-06
1.22363e-06
1.22362e-06
1.22002e-06
1.21808e-06
1.2213e-06
1.22549e-06
1.2285e-06
1.22568e-06
1.22865e-06
1.22525e-06
1.22532e-06
1.22562e-06
1.22594e-06
1.22585e-06
1.22698e-06
1.22939e-06
1.22826e-06
1.23128e-06
1.22755e-06
1.2286e-06
1.23369e-06
1.23505e-06
1.23576e-06
1.23749e-06
1.23735e-06
1.23627e-06
1.23756e-06
1.23787e-06
1.23648e-06
1.23755e-06
1.24167e-06
1.24319e-06
1.24369e-06
1.24413e-06
1.24396e-06
1.24383e-06
1.24645e-06
1.24655e-06
1.24796e-06
1.24803e-06
1.25143e-06
1.24848e-06
1.24901e-06
1.24912e-06
1.25023e-06
1.2507e-06
1.252e-06
1.25231e-06
1.25222e-06
1.25292e-06
1.25479e-06
1.25461e-06
1.25274e-06
1.25417e-06
1.24833e-06
1.2485e-06
1.24756e-06
1.24181e-06
1.24251e-06
1.24673e-06
1.24585e-06
1.24725e-06
1.25019e-06
1.24674e-06
1.24321e-06
1.24205e-06
)
;

boundaryField
{
    inlet
    {
        type            calculated;
        value           uniform -1.225e-06;
    }
    outlet
    {
        type            calculated;
        value           uniform 1.24205e-06;
    }
    yzfaces
    {
        type            empty;
    }
}


// ************************************************************************* //
