/*--------------------------------*- C++ -*----------------------------------*\
| =========                 |                                                 |
| \\      /  F ield         | foam-extend: Open Source CFD                    |
|  \\    /   O peration     | Version:     5.0                                |
|   \\  /    A nd           | Web:         http://www.foam-extend.org         |
|    \\/     M anipulation  |                                                 |
\*---------------------------------------------------------------------------*/
FoamFile
{
    version     2.0;
    format      ascii;
    class       volVectorField;
    location    "9";
    object      U.water;
}
// * * * * * * * * * * * * * * * * * * * * * * * * * * * * * * * * * * * * * //

dimensions      [0 1 -1 0 0 0 0];

internalField   nonuniform List<vector> 
100
(
(3.20769e-05 0 0)
(7.6386e-05 0 0)
(0.000115774 0 0)
(0.000151679 0 0)
(0.000185607 0 0)
(0.000200792 0 0)
(0.000205984 0 0)
(0.000218699 0 0)
(0.000239612 0 0)
(0.000270541 0 0)
(0.00030432 0 0)
(0.000338446 0 0)
(0.000368547 0 0)
(0.000394318 0 0)
(0.000421824 0 0)
(0.000451697 0 0)
(0.00047963 0 0)
(0.000509917 0 0)
(0.000539106 0 0)
(0.000566013 0 0)
(0.000589624 0 0)
(0.000614593 0 0)
(0.000642627 0 0)
(0.000671406 0 0)
(0.000698683 0 0)
(0.000726891 0 0)
(0.000754237 0 0)
(0.000772943 0 0)
(0.000779209 0 0)
(0.000787089 0 0)
(0.000798211 0 0)
(0.000814907 0 0)
(0.000833064 0 0)
(0.000854751 0 0)
(0.00087842 0 0)
(0.000902129 0 0)
(0.000929521 0 0)
(0.000957017 0 0)
(0.000981623 0 0)
(0.00100748 0 0)
(0.00103144 0 0)
(0.0010512 0 0)
(0.00106949 0 0)
(0.00108276 0 0)
(0.00110221 0 0)
(0.00112424 0 0)
(0.00114468 0 0)
(0.00116624 0 0)
(0.00118749 0 0)
(0.00120799 0 0)
(0.00123089 0 0)
(0.00124895 0 0)
(0.00126193 0 0)
(0.00128106 0 0)
(0.00130185 0 0)
(0.0013219 0 0)
(0.00134373 0 0)
(0.00136546 0 0)
(0.00138424 0 0)
(0.00140593 0 0)
(0.00142698 0 0)
(0.00144238 0 0)
(0.0014574 0 0)
(0.00148059 0 0)
(0.0015052 0 0)
(0.00152653 0 0)
(0.00154576 0 0)
(0.00156749 0 0)
(0.00158817 0 0)
(0.00161106 0 0)
(0.00163055 0 0)
(0.00164721 0 0)
(0.00166562 0 0)
(0.00169033 0 0)
(0.00171404 0 0)
(0.00173369 0 0)
(0.00175522 0 0)
(0.00177568 0 0)
(0.00179494 0 0)
(0.00181405 0 0)
(0.00183238 0 0)
(0.00185058 0 0)
(0.00187037 0 0)
(0.00189156 0 0)
(0.00191402 0 0)
(0.00193281 0 0)
(0.00195154 0 0)
(0.00196566 0 0)
(0.00197898 0 0)
(0.00199558 0 0)
(0.00200346 0 0)
(0.00201622 0 0)
(0.0020402 0 0)
(0.00206237 0 0)
(0.00208006 0 0)
(0.00210039 0 0)
(0.00211731 0 0)
(0.00212882 0 0)
(0.00214444 0 0)
(0.00216409 0 0)
)
;

boundaryField
{
    inlet
    {
        type            fixedValue;
        value           uniform (0 0 0);
    }
    outlet
    {
        type            zeroGradient;
    }
    yzfaces
    {
        type            empty;
    }
}


// ************************************************************************* //
