/*--------------------------------*- C++ -*----------------------------------*\
| =========                 |                                                 |
| \\      /  F ield         | foam-extend: Open Source CFD                    |
|  \\    /   O peration     | Version:     5.0                                |
|   \\  /    A nd           | Web:         http://www.foam-extend.org         |
|    \\/     M anipulation  |                                                 |
\*---------------------------------------------------------------------------*/
FoamFile
{
    version     2.0;
    format      ascii;
    class       volScalarField;
    location    "9";
    object      CO2.gas;
}
// * * * * * * * * * * * * * * * * * * * * * * * * * * * * * * * * * * * * * //

dimensions      [0 0 0 0 0 0 0];

internalField   nonuniform List<scalar> 
100
(
0.166882
0.155515
0.148036
0.144467
0.138851
0.133374
0.127857
0.124727
0.123977
0.12179
0.118542
0.114797
0.111792
0.108673
0.106196
0.103948
0.101603
0.099732
0.0977606
0.095758
0.0943764
0.0930666
0.0916623
0.0904705
0.0891205
0.0878099
0.0869732
0.0866512
0.086254
0.0859966
0.0852823
0.0846147
0.0840267
0.0832351
0.0822444
0.0812157
0.0803535
0.0792873
0.0783405
0.0773012
0.0764969
0.0758247
0.0752474
0.0747592
0.0742526
0.0737233
0.0730593
0.0724361
0.0718813
0.0711974
0.0705137
0.070008
0.0696212
0.0691174
0.0685523
0.0680236
0.0674801
0.0669988
0.0663898
0.0659095
0.0654216
0.0649868
0.0645583
0.0641383
0.0636825
0.0632004
0.0627873
0.0623119
0.0618903
0.061559
0.0611573
0.0607503
0.0604169
0.0599739
0.0595805
0.0591325
0.0587124
0.0583332
0.0579932
0.0577331
0.0574373
0.0570727
0.0566416
0.0563048
0.0559992
0.0556989
0.0553952
0.0550601
0.0547269
0.0545055
0.0542739
0.0539861
0.0536682
0.0533498
0.0531373
0.05293
0.0526084
0.0522481
0.0519574
0.0515611
)
;

boundaryField
{
    inlet
    {
        type            fixedValue;
        value           uniform 0.2;
    }
    outlet
    {
        type            zeroGradient;
    }
    yzfaces
    {
        type            empty;
    }
}


// ************************************************************************* //
