/*--------------------------------*- C++ -*----------------------------------*\
| =========                 |                                                 |
| \\      /  F ield         | foam-extend: Open Source CFD                    |
|  \\    /   O peration     | Version:     5.0                                |
|   \\  /    A nd           | Web:         http://www.foam-extend.org         |
|    \\/     M anipulation  |                                                 |
\*---------------------------------------------------------------------------*/
FoamFile
{
    version     2.0;
    format      ascii;
    class       volScalarField;
    location    "9";
    object      CO2.water;
}
// * * * * * * * * * * * * * * * * * * * * * * * * * * * * * * * * * * * * * //

dimensions      [0 0 0 0 0 0 0];

internalField   nonuniform List<scalar> 
100
(
0.000859522
0.00115993
0.00135881
0.00146587
0.0016011
0.00175712
0.001901
0.00198668
0.00198603
0.00203156
0.00213988
0.00223161
0.00232092
0.00240116
0.00245988
0.00252196
0.00257849
0.00263246
0.00268737
0.00271574
0.00275399
0.00278997
0.00283238
0.00286738
0.00290678
0.00293294
0.00295477
0.00297042
0.00298449
0.00300016
0.00301418
0.00303203
0.00304778
0.0030677
0.00309326
0.00312131
0.00315058
0.00317933
0.00319919
0.00322057
0.00323863
0.00325711
0.00327691
0.00328949
0.00330677
0.00332554
0.00334026
0.00335578
0.00336918
0.00338527
0.00339786
0.00341158
0.00342621
0.00343724
0.00344727
0.00346399
0.00347679
0.00348971
0.00350229
0.00351635
0.00352847
0.00354125
0.00355299
0.00356459
0.00357418
0.00358323
0.00359726
0.0036097
0.00362318
0.00363289
0.00364272
0.00365056
0.00366168
0.00367343
0.00368477
0.00369642
0.00370584
0.00371525
0.00372229
0.00373383
0.00374454
0.00375439
0.0037628
0.00377125
0.00377794
0.00378784
0.0037955
0.00380449
0.00381256
0.00381942
0.00382637
0.00383428
0.00384256
0.00385055
0.00385651
0.00386435
0.00387273
0.00387958
0.00388641
0.00389621
)
;

boundaryField
{
    inlet
    {
        type            fixedValue;
        value           uniform 0;
    }
    outlet
    {
        type            zeroGradient;
    }
    yzfaces
    {
        type            empty;
    }
}


// ************************************************************************* //
