/*--------------------------------*- C++ -*----------------------------------*\
| =========                 |                                                 |
| \\      /  F ield         | foam-extend: Open Source CFD                    |
|  \\    /   O peration     | Version:     5.0                                |
|   \\  /    A nd           | Web:         http://www.foam-extend.org         |
|    \\/     M anipulation  |                                                 |
\*---------------------------------------------------------------------------*/
FoamFile
{
    version     2.0;
    format      ascii;
    class       volScalarField;
    location    "9";
    object      CO2.water;
}
// * * * * * * * * * * * * * * * * * * * * * * * * * * * * * * * * * * * * * //

dimensions      [0 0 0 0 0 0 0];

internalField   nonuniform List<scalar> 
100
(
0.000861278
0.0011604
0.00135723
0.00145114
0.00159892
0.00174307
0.00188824
0.00197063
0.00199037
0.00204792
0.00213337
0.00223192
0.00231101
0.00239309
0.00245829
0.00251743
0.00257914
0.00262838
0.00268026
0.00273296
0.00276932
0.00280379
0.00284074
0.0028721
0.00290763
0.00294212
0.00296414
0.00297261
0.00298307
0.00298984
0.00300864
0.00302621
0.00304168
0.00306251
0.00308858
0.00311565
0.00313834
0.0031664
0.00319132
0.00321867
0.00323983
0.00325752
0.00327271
0.00328556
0.00329889
0.00331282
0.00333029
0.0033467
0.00336129
0.00337929
0.00339728
0.00341059
0.00342077
0.00343403
0.0034489
0.00346281
0.00347712
0.00348978
0.00350581
0.00351845
0.00353129
0.00354273
0.00355401
0.00356506
0.00357705
0.00358974
0.00360061
0.00361312
0.00362422
0.00363293
0.00364351
0.00365422
0.00366299
0.00367465
0.003685
0.00369679
0.00370785
0.00371782
0.00372677
0.00373362
0.0037414
0.00375099
0.00376234
0.0037712
0.00377924
0.00378715
0.00379514
0.00380396
0.00381273
0.00381855
0.00382465
0.00383222
0.00384059
0.00384897
0.00385456
0.00386001
0.00386848
0.00387796
0.00388561
0.00389604
)
;

boundaryField
{
    inlet
    {
        type            fixedValue;
        value           uniform 0;
    }
    outlet
    {
        type            zeroGradient;
    }
    yzfaces
    {
        type            empty;
    }
}


// ************************************************************************* //
