/*--------------------------------*- C++ -*----------------------------------*\
| =========                 |                                                 |
| \\      /  F ield         | foam-extend: Open Source CFD                    |
|  \\    /   O peration     | Version:     5.0                                |
|   \\  /    A nd           | Web:         http://www.foam-extend.org         |
|    \\/     M anipulation  |                                                 |
\*---------------------------------------------------------------------------*/
FoamFile
{
    version     2.0;
    format      ascii;
    class       volScalarField;
    location    "9";
    object      H2O.water;
}
// * * * * * * * * * * * * * * * * * * * * * * * * * * * * * * * * * * * * * //

dimensions      [0 0 0 0 0 0 0];

internalField   nonuniform List<scalar> 
100
(
0.0195937
0.0252741
0.0284677
0.028935
0.0321007
0.0363796
0.0396659
0.0415046
0.039892
0.0413826
0.045325
0.0475585
0.050043
0.0519672
0.0532887
0.0550303
0.0562498
0.0574894
0.0588326
0.059083
0.0598354
0.060649
0.061702
0.0626503
0.0634745
0.0635446
0.0636858
0.0637119
0.0640778
0.0645055
0.0648076
0.0652698
0.0654549
0.0661063
0.0670103
0.0678698
0.0683842
0.0690252
0.0693122
0.0697577
0.0699784
0.0703261
0.0706975
0.0708038
0.0712875
0.0717863
0.0720995
0.0724955
0.0729175
0.0733031
0.0734482
0.0737616
0.0740713
0.0742636
0.0744313
0.074842
0.0749058
0.0752564
0.075561
0.0759037
0.0761154
0.0764394
0.0767266
0.0769671
0.0771047
0.0772531
0.0775839
0.0777813
0.0780792
0.0781763
0.0783564
0.0784046
0.0787169
0.0789063
0.0792118
0.0794965
0.0795621
0.0798177
0.0799896
0.0804217
0.0805106
0.0806389
0.0808023
0.0809269
0.0809654
0.0813095
0.0814944
0.0817275
0.0819182
0.0820182
0.0821909
0.0824515
0.0826116
0.0827793
0.0828327
0.0830213
0.0831593
0.0832888
0.0834306
0.0837872
)
;

boundaryField
{
    inlet
    {
        type            fixedValue;
        value           uniform 0;
    }
    outlet
    {
        type            zeroGradient;
    }
    yzfaces
    {
        type            empty;
    }
}


// ************************************************************************* //
