/*--------------------------------*- C++ -*----------------------------------*\
| =========                 |                                                 |
| \\      /  F ield         | foam-extend: Open Source CFD                    |
|  \\    /   O peration     | Version:     5.0                                |
|   \\  /    A nd           | Web:         http://www.foam-extend.org         |
|    \\/     M anipulation  |                                                 |
\*---------------------------------------------------------------------------*/
FoamFile
{
    version     2.0;
    format      ascii;
    class       volScalarField;
    location    "9";
    object      H2O.water;
}
// * * * * * * * * * * * * * * * * * * * * * * * * * * * * * * * * * * * * * //

dimensions      [0 0 0 0 0 0 0];

internalField   nonuniform List<scalar> 
100
(
0.0196143
0.0252827
0.0282693
0.0287189
0.032328
0.035562
0.0393178
0.0404892
0.0404942
0.0424176
0.0449972
0.047702
0.049562
0.0517211
0.053359
0.0548426
0.0562874
0.057182
0.058363
0.0594199
0.0602387
0.0607869
0.0616046
0.0620646
0.0629621
0.0639317
0.064035
0.0638557
0.0640883
0.0642106
0.0648961
0.0652984
0.0655537
0.0661361
0.0668525
0.0674142
0.0677882
0.0684138
0.0689579
0.0696885
0.0702303
0.070543
0.0707047
0.0708926
0.0711232
0.0716188
0.0720582
0.072395
0.0727081
0.0730604
0.0733972
0.0735755
0.0737006
0.0740713
0.0744085
0.0746203
0.0749561
0.0751633
0.0755683
0.075843
0.0760998
0.076309
0.0765701
0.0767868
0.0770491
0.0773169
0.0775528
0.0777125
0.0780105
0.0781253
0.0783753
0.0786197
0.078756
0.0790848
0.0792225
0.0794553
0.0796833
0.0798605
0.0799195
0.0800748
0.0802899
0.0805782
0.0809151
0.0810291
0.0811499
0.0812065
0.081395
0.0817248
0.0819544
0.0820169
0.0820895
0.0822818
0.0825046
0.0827051
0.0827715
0.0828177
0.0830555
0.0833042
0.083444
0.0837488
)
;

boundaryField
{
    inlet
    {
        type            fixedValue;
        value           uniform 0;
    }
    outlet
    {
        type            zeroGradient;
    }
    yzfaces
    {
        type            empty;
    }
}


// ************************************************************************* //
