/*--------------------------------*- C++ -*----------------------------------*\
| =========                 |                                                 |
| \\      /  F ield         | foam-extend: Open Source CFD                    |
|  \\    /   O peration     | Version:     5.0                                |
|   \\  /    A nd           | Web:         http://www.foam-extend.org         |
|    \\/     M anipulation  |                                                 |
\*---------------------------------------------------------------------------*/
FoamFile
{
    version     2.0;
    format      ascii;
    class       surfaceScalarField;
    location    "9";
    object      phi;
}
// * * * * * * * * * * * * * * * * * * * * * * * * * * * * * * * * * * * * * //

dimensions      [0 3 -1 0 0 0 0];

internalField   nonuniform List<scalar> 
99
(
1.2195e-06
1.23214e-06
1.24022e-06
1.25117e-06
1.23635e-06
1.23709e-06
1.23068e-06
1.23936e-06
1.24569e-06
1.24366e-06
1.23056e-06
1.22812e-06
1.22178e-06
1.22486e-06
1.23189e-06
1.2282e-06
1.23579e-06
1.239e-06
1.24326e-06
1.24181e-06
1.24166e-06
1.23886e-06
1.24967e-06
1.24844e-06
1.24722e-06
1.24658e-06
1.25502e-06
1.25316e-06
1.24798e-06
1.24393e-06
1.24456e-06
1.25174e-06
1.24985e-06
1.24968e-06
1.25488e-06
1.25525e-06
1.25239e-06
1.2469e-06
1.24334e-06
1.24274e-06
1.24365e-06
1.24205e-06
1.24134e-06
1.23775e-06
1.24124e-06
1.23838e-06
1.23582e-06
1.23522e-06
1.23338e-06
1.23131e-06
1.22964e-06
1.23162e-06
1.23073e-06
1.23098e-06
1.23076e-06
1.22905e-06
1.23098e-06
1.23174e-06
1.23073e-06
1.23557e-06
1.23429e-06
1.23708e-06
1.23582e-06
1.23846e-06
1.23552e-06
1.24001e-06
1.24153e-06
1.24165e-06
1.24521e-06
1.24468e-06
1.24304e-06
1.23913e-06
1.23634e-06
1.23624e-06
1.23484e-06
1.23431e-06
1.23474e-06
1.23906e-06
1.23937e-06
1.23606e-06
1.23341e-06
1.23259e-06
1.23442e-06
1.23664e-06
1.23533e-06
1.23296e-06
1.23381e-06
1.2364e-06
1.23833e-06
1.23591e-06
1.23159e-06
1.22768e-06
1.2293e-06
1.23102e-06
1.23099e-06
1.22789e-06
1.22618e-06
1.22654e-06
1.22323e-06
)
;

boundaryField
{
    inlet
    {
        type            calculated;
        value           uniform -1.225e-06;
    }
    outlet
    {
        type            calculated;
        value           uniform 1.22762e-06;
    }
    yzfaces
    {
        type            empty;
    }
}


// ************************************************************************* //
