/*--------------------------------*- C++ -*----------------------------------*\
| =========                 |                                                 |
| \\      /  F ield         | foam-extend: Open Source CFD                    |
|  \\    /   O peration     | Version:     5.0                                |
|   \\  /    A nd           | Web:         http://www.foam-extend.org         |
|    \\/     M anipulation  |                                                 |
\*---------------------------------------------------------------------------*/
FoamFile
{
    version     2.0;
    format      ascii;
    class       volVectorField;
    location    "9";
    object      U.gas;
}
// * * * * * * * * * * * * * * * * * * * * * * * * * * * * * * * * * * * * * //

dimensions      [0 1 -1 0 0 0 0];

internalField   nonuniform List<vector> 
100
(
(0.00595781 0 0)
(0.00637734 0 0)
(0.00671204 0 0)
(0.00685829 0 0)
(0.00705036 0 0)
(0.0073019 0 0)
(0.00756801 0 0)
(0.00774625 0 0)
(0.0076566 0 0)
(0.00765085 0 0)
(0.00782173 0 0)
(0.0079575 0 0)
(0.00814429 0 0)
(0.00835592 0 0)
(0.00852166 0 0)
(0.00867991 0 0)
(0.00879845 0 0)
(0.00894304 0 0)
(0.0091032 0 0)
(0.00918049 0 0)
(0.00929246 0 0)
(0.00936841 0 0)
(0.00946604 0 0)
(0.00953483 0 0)
(0.00964002 0 0)
(0.00969508 0 0)
(0.00973375 0 0)
(0.00980369 0 0)
(0.00985406 0 0)
(0.00987627 0 0)
(0.00988232 0 0)
(0.00992538 0 0)
(0.00996156 0 0)
(0.00998676 0 0)
(0.0100339 0 0)
(0.0100748 0 0)
(0.0101439 0 0)
(0.0102412 0 0)
(0.0103081 0 0)
(0.0103945 0 0)
(0.0104333 0 0)
(0.0104756 0 0)
(0.0105471 0 0)
(0.0105935 0 0)
(0.0106618 0 0)
(0.0107208 0 0)
(0.0107546 0 0)
(0.0108045 0 0)
(0.0108551 0 0)
(0.0109134 0 0)
(0.0109427 0 0)
(0.0109833 0 0)
(0.0110435 0 0)
(0.0111086 0 0)
(0.0111291 0 0)
(0.0111642 0 0)
(0.0111881 0 0)
(0.0112214 0 0)
(0.0112504 0 0)
(0.0112954 0 0)
(0.0113463 0 0)
(0.0114003 0 0)
(0.0114514 0 0)
(0.0114946 0 0)
(0.0115304 0 0)
(0.0115484 0 0)
(0.0115853 0 0)
(0.0116098 0 0)
(0.011646 0 0)
(0.0116698 0 0)
(0.0116909 0 0)
(0.0116882 0 0)
(0.0117012 0 0)
(0.011709 0 0)
(0.0117141 0 0)
(0.01173 0 0)
(0.0117416 0 0)
(0.0117643 0 0)
(0.0117744 0 0)
(0.0118141 0 0)
(0.0118459 0 0)
(0.0118895 0 0)
(0.01192 0 0)
(0.0119299 0 0)
(0.0119206 0 0)
(0.0119436 0 0)
(0.0119255 0 0)
(0.01193 0 0)
(0.0119526 0 0)
(0.0119612 0 0)
(0.0119821 0 0)
(0.0120076 0 0)
(0.0120239 0 0)
(0.0120434 0 0)
(0.0120314 0 0)
(0.0120157 0 0)
(0.0120008 0 0)
(0.0119795 0 0)
(0.011957 0 0)
(0.0119422 0 0)
)
;

boundaryField
{
    inlet
    {
        type            fixedValue;
        value           uniform (0.005 0 0);
    }
    outlet
    {
        type            zeroGradient;
    }
    yzfaces
    {
        type            empty;
    }
}


// ************************************************************************* //
