/*--------------------------------*- C++ -*----------------------------------*\
| =========                 |                                                 |
| \\      /  F ield         | foam-extend: Open Source CFD                    |
|  \\    /   O peration     | Version:     5.0                                |
|   \\  /    A nd           | Web:         http://www.foam-extend.org         |
|    \\/     M anipulation  |                                                 |
\*---------------------------------------------------------------------------*/
FoamFile
{
    version     2.0;
    format      ascii;
    class       volVectorField;
    location    "9";
    object      U.water;
}
// * * * * * * * * * * * * * * * * * * * * * * * * * * * * * * * * * * * * * //

dimensions      [0 1 -1 0 0 0 0];

internalField   nonuniform List<vector> 
100
(
(3.31284e-05 0 0)
(7.59283e-05 0 0)
(0.000110467 0 0)
(0.000136558 0 0)
(0.000156049 0 0)
(0.000183195 0 0)
(0.000217743 0 0)
(0.000250193 0 0)
(0.000264287 0 0)
(0.00026422 0 0)
(0.000280887 0 0)
(0.000311152 0 0)
(0.000342766 0 0)
(0.000376482 0 0)
(0.000408141 0 0)
(0.000434923 0 0)
(0.000462307 0 0)
(0.000490313 0 0)
(0.000520027 0 0)
(0.000546555 0 0)
(0.000565384 0 0)
(0.000586857 0 0)
(0.00060993 0 0)
(0.00063483 0 0)
(0.000659094 0 0)
(0.000683011 0 0)
(0.000699417 0 0)
(0.000715708 0 0)
(0.000728344 0 0)
(0.000737905 0 0)
(0.000747691 0 0)
(0.000758793 0 0)
(0.000771667 0 0)
(0.000784523 0 0)
(0.000801017 0 0)
(0.000819313 0 0)
(0.000843784 0 0)
(0.000872563 0 0)
(0.000898276 0 0)
(0.000920233 0 0)
(0.000939896 0 0)
(0.000957512 0 0)
(0.00097844 0 0)
(0.000998959 0 0)
(0.00101545 0 0)
(0.00103526 0 0)
(0.00105429 0 0)
(0.0010723 0 0)
(0.00109154 0 0)
(0.00110934 0 0)
(0.00112688 0 0)
(0.00114321 0 0)
(0.00116346 0 0)
(0.00118475 0 0)
(0.00119773 0 0)
(0.00121196 0 0)
(0.00123176 0 0)
(0.00124847 0 0)
(0.00126517 0 0)
(0.00128433 0 0)
(0.00130643 0 0)
(0.00132595 0 0)
(0.00134592 0 0)
(0.0013651 0 0)
(0.00138264 0 0)
(0.00139656 0 0)
(0.00141248 0 0)
(0.00143212 0 0)
(0.00145268 0 0)
(0.00147355 0 0)
(0.00148992 0 0)
(0.0015032 0 0)
(0.00151507 0 0)
(0.00153124 0 0)
(0.00154854 0 0)
(0.00156703 0 0)
(0.00158527 0 0)
(0.0016018 0 0)
(0.00161705 0 0)
(0.00163253 0 0)
(0.0016544 0 0)
(0.00167761 0 0)
(0.00169674 0 0)
(0.00171136 0 0)
(0.0017242 0 0)
(0.0017387 0 0)
(0.00175218 0 0)
(0.00176523 0 0)
(0.00178403 0 0)
(0.00179921 0 0)
(0.00181405 0 0)
(0.00183002 0 0)
(0.0018472 0 0)
(0.00186491 0 0)
(0.0018769 0 0)
(0.00188564 0 0)
(0.00189737 0 0)
(0.00190933 0 0)
(0.00191921 0 0)
(0.0019331 0 0)
)
;

boundaryField
{
    inlet
    {
        type            fixedValue;
        value           uniform (0 0 0);
    }
    outlet
    {
        type            zeroGradient;
    }
    yzfaces
    {
        type            empty;
    }
}


// ************************************************************************* //
