/*--------------------------------*- C++ -*----------------------------------*\
| =========                 |                                                 |
| \\      /  F ield         | foam-extend: Open Source CFD                    |
|  \\    /   O peration     | Version:     5.0                                |
|   \\  /    A nd           | Web:         http://www.foam-extend.org         |
|    \\/     M anipulation  |                                                 |
\*---------------------------------------------------------------------------*/
FoamFile
{
    version     2.0;
    format      ascii;
    class       volVectorField;
    location    "9";
    object      U.water;
}
// * * * * * * * * * * * * * * * * * * * * * * * * * * * * * * * * * * * * * //

dimensions      [0 1 -1 0 0 0 0];

internalField   nonuniform List<vector> 
100
(
(3.31542e-05 0 0)
(7.63824e-05 0 0)
(0.000111197 0 0)
(0.000138222 0 0)
(0.000158099 0 0)
(0.000187031 0 0)
(0.000220109 0 0)
(0.000253325 0 0)
(0.000272815 0 0)
(0.000282512 0 0)
(0.000302008 0 0)
(0.000330688 0 0)
(0.000363316 0 0)
(0.000395449 0 0)
(0.000430655 0 0)
(0.000461138 0 0)
(0.00049243 0 0)
(0.000525439 0 0)
(0.000555719 0 0)
(0.000588488 0 0)
(0.000617947 0 0)
(0.0006411 0 0)
(0.000668455 0 0)
(0.000696542 0 0)
(0.000721051 0 0)
(0.000748547 0 0)
(0.00077567 0 0)
(0.000791946 0 0)
(0.000797529 0 0)
(0.000802172 0 0)
(0.000810588 0 0)
(0.000829256 0 0)
(0.000846233 0 0)
(0.000862213 0 0)
(0.000885162 0 0)
(0.000912598 0 0)
(0.000937545 0 0)
(0.000960285 0 0)
(0.000985396 0 0)
(0.0010116 0 0)
(0.00103962 0 0)
(0.00106273 0 0)
(0.00108148 0 0)
(0.00109626 0 0)
(0.00111254 0 0)
(0.00112937 0 0)
(0.00114589 0 0)
(0.0011665 0 0)
(0.00118571 0 0)
(0.00120484 0 0)
(0.00122741 0 0)
(0.00124944 0 0)
(0.00126684 0 0)
(0.00128225 0 0)
(0.00130193 0 0)
(0.00132216 0 0)
(0.00134302 0 0)
(0.00136533 0 0)
(0.00138643 0 0)
(0.00141153 0 0)
(0.00143372 0 0)
(0.00145417 0 0)
(0.00147352 0 0)
(0.00149322 0 0)
(0.00151176 0 0)
(0.00153342 0 0)
(0.00155812 0 0)
(0.00157954 0 0)
(0.0016028 0 0)
(0.00162282 0 0)
(0.00163917 0 0)
(0.00165508 0 0)
(0.00166893 0 0)
(0.00168533 0 0)
(0.00170475 0 0)
(0.00172433 0 0)
(0.00174714 0 0)
(0.00177078 0 0)
(0.00179286 0 0)
(0.00180758 0 0)
(0.00181798 0 0)
(0.00183225 0 0)
(0.00185351 0 0)
(0.00187832 0 0)
(0.00189719 0 0)
(0.00191099 0 0)
(0.00192629 0 0)
(0.00194666 0 0)
(0.00196957 0 0)
(0.00198572 0 0)
(0.0019936 0 0)
(0.00200211 0 0)
(0.00201803 0 0)
(0.00203916 0 0)
(0.00205676 0 0)
(0.00206709 0 0)
(0.00207814 0 0)
(0.00209751 0 0)
(0.00211517 0 0)
(0.00213405 0 0)
)
;

boundaryField
{
    inlet
    {
        type            fixedValue;
        value           uniform (0 0 0);
    }
    outlet
    {
        type            zeroGradient;
    }
    yzfaces
    {
        type            empty;
    }
}


// ************************************************************************* //
