/*--------------------------------*- C++ -*----------------------------------*\
| =========                 |                                                 |
| \\      /  F ield         | foam-extend: Open Source CFD                    |
|  \\    /   O peration     | Version:     5.0                                |
|   \\  /    A nd           | Web:         http://www.foam-extend.org         |
|    \\/     M anipulation  |                                                 |
\*---------------------------------------------------------------------------*/
FoamFile
{
    version     2.0;
    format      ascii;
    class       volScalarField;
    location    "1.948775837764319";
    object      alpha.gas;
}
// * * * * * * * * * * * * * * * * * * * * * * * * * * * * * * * * * * * * * //

dimensions      [0 0 0 0 0 0 0];

internalField   nonuniform List<scalar> 
100
(
0.132741
0.115339
0.104788
0.0968527
0.0910311
0.0857503
0.0815245
0.0776458
0.0741023
0.0710091
0.0678548
0.064773
0.0620133
0.0593381
0.0566115
0.053743
0.0508331
0.0480671
0.0369878
0.0347385
0.0348561
0.0353873
0.0357803
0.0358867
0.0356659
0.0352011
0.034573
0.0337392
0.0327762
0.0316443
0.0303906
0.0289482
0.0273447
0.025567
0.0236317
0.0215831
0.0194656
0.0173926
0.0154719
0.01382
0.0125169
0.0115839
0.0109576
0.0105582
0.0103221
0.0101832
0.0101028
0.0100582
0.0100316
0.0100173
0.0100071
0.0100035
0.0100016
0.0099986
0.00999807
0.00999984
0.0100011
0.0100006
0.0100018
0.0100022
0.0099984
0.00999857
0.00999889
0.0099992
0.010002
0.0100017
0.0100001
0.0100013
0.0100004
0.0100004
0.0100024
0.0100024
0.0100026
0.0100044
0.0100023
0.0100023
0.0100007
0.0100019
0.0100027
0.0100017
0.010001
0.0100009
0.00999998
0.00999923
0.00999778
0.00999719
0.00999663
0.00999925
0.0100001
0.0099991
0.010001
0.0100001
0.0100002
0.00999953
0.0100008
0.00999895
0.00999591
0.00999637
0.00999363
0.00999733
)
;

boundaryField
{
    inlet
    {
        type            fixedValue;
        value           uniform 0.2;
    }
    outlet
    {
        type            zeroGradient;
    }
    yzfaces
    {
        type            empty;
    }
}


// ************************************************************************* //
