/*--------------------------------*- C++ -*----------------------------------*\
| =========                 |                                                 |
| \\      /  F ield         | foam-extend: Open Source CFD                    |
|  \\    /   O peration     | Version:     5.0                                |
|   \\  /    A nd           | Web:         http://www.foam-extend.org         |
|    \\/     M anipulation  |                                                 |
\*---------------------------------------------------------------------------*/
FoamFile
{
    version     2.0;
    format      ascii;
    class       volScalarField;
    location    "1.948775837764319";
    object      Cl.water;
}
// * * * * * * * * * * * * * * * * * * * * * * * * * * * * * * * * * * * * * //

dimensions      [0 0 0 0 0 0 0];

internalField   nonuniform List<scalar> 
100
(
0
0.00436552
0.00790175
0.0065278
0.00662143
0.00840511
0.00743811
0.00732656
0.00888921
0.0111172
0.00894411
0.00865808
0.0106616
0.0131709
0.00886117
0.00949274
0.0126309
0.0154509
0.00379276
0.0135544
0.0179693
0.0193514
0.0197271
0.0198333
0.0198663
0.019929
0.0200167
0.0201107
0.0202311
0.0203652
0.020527
0.0206919
0.0208832
0.0211057
0.021341
0.0216015
0.0218565
0.0221243
0.0223537
0.0225342
0.0226851
0.022796
0.022884
0.0229227
0.022943
0.0229714
0.0229868
0.0229923
0.0230021
0.0229905
0.0229889
0.0229903
0.0229761
0.0229827
0.022989
0.0229943
0.0230117
0.0230275
0.0230261
0.0230132
0.0230332
0.0229992
0.0229892
0.0229887
0.0229895
0.0229974
0.0229824
0.0230029
0.0230011
0.0229842
0.0229759
0.0229864
0.0230046
0.0230046
0.0230173
0.0230179
0.0230142
0.0230167
0.0230081
0.0230192
0.023012
0.0230257
0.0230304
0.0230176
0.0230342
0.0230175
0.0229919
0.0229946
0.022992
0.0229968
0.023004
0.0230193
0.0230029
0.0229928
0.0229816
0.0229791
0.0229766
0.0229656
0.0229508
0.0229604
)
;

boundaryField
{
    inlet
    {
        type            fixedValue;
        value           uniform 0;
    }
    outlet
    {
        type            zeroGradient;
    }
    yzfaces
    {
        type            empty;
    }
}


// ************************************************************************* //
