/*--------------------------------*- C++ -*----------------------------------*\
| =========                 |                                                 |
| \\      /  F ield         | foam-extend: Open Source CFD                    |
|  \\    /   O peration     | Version:     5.0                                |
|   \\  /    A nd           | Web:         http://www.foam-extend.org         |
|    \\/     M anipulation  |                                                 |
\*---------------------------------------------------------------------------*/
FoamFile
{
    version     2.0;
    format      ascii;
    class       volScalarField;
    location    "1.948775837764319";
    object      H2O.gas;
}
// * * * * * * * * * * * * * * * * * * * * * * * * * * * * * * * * * * * * * //

dimensions      [0 0 0 0 0 0 0];

internalField   nonuniform List<scalar> 
100
(
5.82274e-11
5.37078e-09
3.9741e-08
1.66155e-07
5.22205e-07
1.35519e-06
3.12006e-06
6.50136e-06
1.25379e-05
2.31328e-05
4.02414e-05
6.68282e-05
0.000108217
0.000173749
0.000261449
0.000384473
0.000580735
0.000900453
0.000760907
0.00153854
0.00264973
0.00395347
0.00542124
0.00703956
0.00875538
0.0105504
0.0123957
0.0141754
0.0158687
0.0173746
0.0186556
0.0195806
0.0201269
0.0202488
0.0199041
0.0191281
0.0179582
0.0165579
0.0150458
0.0136195
0.0124308
0.0115474
0.0109468
0.0105497
0.0103135
0.0101804
0.0100996
0.0100565
0.0100346
0.0100137
0.0100009
0.00999959
0.00999106
0.00999001
0.0099905
0.00999426
0.0100021
0.0100042
0.0100036
0.010003
0.0100104
0.00999737
0.00999252
0.00999409
0.00999464
0.00999703
0.00999111
0.0100017
0.0100019
0.00999767
0.00999723
0.0100018
0.0100089
0.010006
0.0100103
0.0100085
0.0100087
0.0100097
0.0100067
0.0100105
0.0100067
0.0100114
0.01001
0.0100042
0.0100126
0.0100046
0.00999476
0.00999488
0.00999343
0.00999368
0.00999887
0.0100034
0.00999786
0.00999625
0.00999384
0.00999207
0.00998885
0.00998367
0.00997673
0.00998436
)
;

boundaryField
{
    inlet
    {
        type            fixedValue;
        value           uniform 0;
    }
    outlet
    {
        type            zeroGradient;
    }
    yzfaces
    {
        type            empty;
    }
}


// ************************************************************************* //
