/*--------------------------------*- C++ -*----------------------------------*\
| =========                 |                                                 |
| \\      /  F ield         | foam-extend: Open Source CFD                    |
|  \\    /   O peration     | Version:     5.0                                |
|   \\  /    A nd           | Web:         http://www.foam-extend.org         |
|    \\/     M anipulation  |                                                 |
\*---------------------------------------------------------------------------*/
FoamFile
{
    version     2.0;
    format      ascii;
    class       volScalarField;
    location    "1.948775837764319";
    object      Na.water;
}
// * * * * * * * * * * * * * * * * * * * * * * * * * * * * * * * * * * * * * //

dimensions      [0 0 0 0 0 0 0];

internalField   nonuniform List<scalar> 
100
(
0
0.00436681
0.00790444
0.00652671
0.00662313
0.00840927
0.00744095
0.00732683
0.00888488
0.0111143
0.0089405
0.00866113
0.0106656
0.0131708
0.00885997
0.00948688
0.0126277
0.0154527
0.00379134
0.0135558
0.0179691
0.0193518
0.0197201
0.019828
0.0198658
0.0199287
0.020029
0.0201176
0.0202353
0.0203737
0.0205397
0.0206972
0.0208826
0.021107
0.0213408
0.0215923
0.0218433
0.0221115
0.0223457
0.0225323
0.0226787
0.0227902
0.0228758
0.0229132
0.0229315
0.0229608
0.022969
0.0229784
0.02299
0.0229747
0.0229686
0.0229779
0.0229733
0.0229809
0.0229867
0.0229915
0.0230129
0.0230193
0.0230178
0.0230109
0.0230322
0.0229991
0.022988
0.0229887
0.0229834
0.0229903
0.0229887
0.0230068
0.0230109
0.0230003
0.0229843
0.0229942
0.0230088
0.022996
0.0230056
0.0230034
0.0230048
0.023008
0.0230065
0.0230226
0.0230146
0.0230237
0.0230209
0.0230094
0.0230371
0.0230214
0.0229987
0.0229966
0.0229896
0.0229904
0.0229953
0.0230058
0.022992
0.0229925
0.0229847
0.0229791
0.0229824
0.0229694
0.0229577
0.0229718
)
;

boundaryField
{
    inlet
    {
        type            fixedValue;
        value           uniform 0;
    }
    outlet
    {
        type            zeroGradient;
    }
    yzfaces
    {
        type            empty;
    }
}


// ************************************************************************* //
