/*--------------------------------*- C++ -*----------------------------------*\
| =========                 |                                                 |
| \\      /  F ield         | foam-extend: Open Source CFD                    |
|  \\    /   O peration     | Version:     5.0                                |
|   \\  /    A nd           | Web:         http://www.foam-extend.org         |
|    \\/     M anipulation  |                                                 |
\*---------------------------------------------------------------------------*/
FoamFile
{
    version     2.0;
    format      ascii;
    class       surfaceScalarField;
    location    "1.948775837764319";
    object      phi;
}
// * * * * * * * * * * * * * * * * * * * * * * * * * * * * * * * * * * * * * //

dimensions      [0 3 -1 0 0 0 0];

internalField   nonuniform List<scalar> 
99
(
1.21896e-06
1.24021e-06
1.23645e-06
1.24801e-06
1.23958e-06
1.24206e-06
1.24688e-06
1.24129e-06
1.24038e-06
1.23319e-06
1.22696e-06
1.22811e-06
1.22744e-06
1.23208e-06
1.23357e-06
1.23256e-06
1.23257e-06
1.23315e-06
1.23285e-06
1.23241e-06
1.23282e-06
1.23425e-06
1.23628e-06
1.2331e-06
1.23422e-06
1.23499e-06
1.23314e-06
1.23469e-06
1.23353e-06
1.23672e-06
1.23522e-06
1.23763e-06
1.23699e-06
1.23777e-06
1.23817e-06
1.23684e-06
1.23754e-06
1.23691e-06
1.23557e-06
1.23459e-06
1.23612e-06
1.23792e-06
1.23783e-06
1.23753e-06
1.23747e-06
1.23739e-06
1.2387e-06
1.23916e-06
1.23958e-06
1.23997e-06
1.23842e-06
1.23852e-06
1.23742e-06
1.23699e-06
1.23593e-06
1.23615e-06
1.23639e-06
1.23498e-06
1.23389e-06
1.23514e-06
1.23416e-06
1.23266e-06
1.23113e-06
1.23147e-06
1.23266e-06
1.23143e-06
1.23372e-06
1.23379e-06
1.23212e-06
1.23219e-06
1.2344e-06
1.23491e-06
1.23532e-06
1.23542e-06
1.23461e-06
1.23507e-06
1.23465e-06
1.23415e-06
1.23429e-06
1.23319e-06
1.2345e-06
1.23508e-06
1.23549e-06
1.23487e-06
1.23493e-06
1.23456e-06
1.23344e-06
1.23274e-06
1.23329e-06
1.23273e-06
1.23469e-06
1.2362e-06
1.2362e-06
1.23638e-06
1.23755e-06
1.23754e-06
1.23713e-06
1.23611e-06
1.23607e-06
)
;

boundaryField
{
    inlet
    {
        type            calculated;
        value           uniform -1.225e-06;
    }
    outlet
    {
        type            calculated;
        value           uniform 1.23593e-06;
    }
    yzfaces
    {
        type            empty;
    }
}


// ************************************************************************* //
