/*--------------------------------*- C++ -*----------------------------------*\
| =========                 |                                                 |
| \\      /  F ield         | foam-extend: Open Source CFD                    |
|  \\    /   O peration     | Version:     5.0                                |
|   \\  /    A nd           | Web:         http://www.foam-extend.org         |
|    \\/     M anipulation  |                                                 |
\*---------------------------------------------------------------------------*/
FoamFile
{
    version     2.0;
    format      ascii;
    class       volScalarField;
    location    "1.948775837764319";
    object      S.gas;
}
// * * * * * * * * * * * * * * * * * * * * * * * * * * * * * * * * * * * * * //

dimensions      [0 0 0 0 0 0 0];

internalField   nonuniform List<scalar> 
100
(
0.663706
0.576694
0.523938
0.484263
0.455156
0.428751
0.407623
0.388229
0.370512
0.355045
0.339274
0.323865
0.310067
0.29669
0.283058
0.268715
0.254166
0.240336
0.184939
0.173692
0.174281
0.176937
0.178901
0.179433
0.17833
0.176006
0.172865
0.168696
0.163881
0.158222
0.151953
0.144741
0.136724
0.127835
0.118158
0.107916
0.0973279
0.0869628
0.0773593
0.0691002
0.0625846
0.0579196
0.0547879
0.052791
0.0516103
0.050916
0.0505139
0.0502908
0.050158
0.0500867
0.0500355
0.0500174
0.0500079
0.049993
0.0499904
0.0499992
0.0500056
0.050003
0.0500092
0.0500111
0.049992
0.0499929
0.0499945
0.049996
0.0500101
0.0500086
0.0500006
0.0500067
0.050002
0.0500019
0.0500122
0.0500121
0.0500129
0.0500222
0.0500116
0.0500113
0.0500035
0.0500097
0.0500135
0.0500087
0.0500052
0.0500044
0.0499999
0.0499962
0.0499889
0.0499859
0.0499831
0.0499962
0.0500003
0.0499955
0.0500052
0.0500006
0.0500011
0.0499976
0.0500042
0.0499948
0.0499795
0.0499818
0.0499681
0.0499866
)
;

boundaryField
{
    inlet
    {
        type            calculated;
        value           uniform 1;
    }
    outlet
    {
        type            calculated;
        value           uniform 0.0499866;
    }
    yzfaces
    {
        type            empty;
    }
}


// ************************************************************************* //
