/*--------------------------------*- C++ -*----------------------------------*\
| =========                 |                                                 |
| \\      /  F ield         | foam-extend: Open Source CFD                    |
|  \\    /   O peration     | Version:     5.0                                |
|   \\  /    A nd           | Web:         http://www.foam-extend.org         |
|    \\/     M anipulation  |                                                 |
\*---------------------------------------------------------------------------*/
FoamFile
{
    version     2.0;
    format      ascii;
    class       volVectorField;
    location    "1.948775837764319";
    object      U.gas;
}
// * * * * * * * * * * * * * * * * * * * * * * * * * * * * * * * * * * * * * //

dimensions      [0 1 -1 0 0 0 0];

internalField   nonuniform List<vector> 
100
(
(0.00746085 0 0)
(0.00851005 0 0)
(0.00928783 0 0)
(0.00991806 0 0)
(0.0103966 0 0)
(0.010827 0 0)
(0.011223 0 0)
(0.0115711 0 0)
(0.0118614 0 0)
(0.0120944 0 0)
(0.0123188 0 0)
(0.0125646 0 0)
(0.0127839 0 0)
(0.0130108 0 0)
(0.0132506 0 0)
(0.0134536 0 0)
(0.0136086 0 0)
(0.0137073 0 0)
(0.0151474 0 0)
(0.0132168 0 0)
(0.0126553 0 0)
(0.012635 0 0)
(0.0127355 0 0)
(0.0128089 0 0)
(0.0128492 0 0)
(0.0128643 0 0)
(0.0128215 0 0)
(0.0127605 0 0)
(0.012658 0 0)
(0.0125352 0 0)
(0.0123575 0 0)
(0.0121359 0 0)
(0.0118454 0 0)
(0.0114692 0 0)
(0.0110012 0 0)
(0.0104106 0 0)
(0.00971639 0 0)
(0.00892658 0 0)
(0.00807777 0 0)
(0.00723925 0 0)
(0.00649022 0 0)
(0.0058879 0 0)
(0.00544947 0 0)
(0.00515126 0 0)
(0.00496062 0 0)
(0.00484828 0 0)
(0.00478469 0 0)
(0.00475062 0 0)
(0.00473139 0 0)
(0.00471933 0 0)
(0.00471048 0 0)
(0.00470377 0 0)
(0.00469981 0 0)
(0.00469574 0 0)
(0.00469222 0 0)
(0.00469005 0 0)
(0.00469134 0 0)
(0.00468936 0 0)
(0.00468472 0 0)
(0.00468616 0 0)
(0.00468695 0 0)
(0.00468062 0 0)
(0.00467425 0 0)
(0.00467195 0 0)
(0.00467541 0 0)
(0.00467693 0 0)
(0.0046789 0 0)
(0.00468244 0 0)
(0.00468002 0 0)
(0.00467578 0 0)
(0.00467954 0 0)
(0.00468609 0 0)
(0.0046886 0 0)
(0.00468971 0 0)
(0.00468883 0 0)
(0.00468757 0 0)
(0.00468759 0 0)
(0.00468517 0 0)
(0.00468473 0 0)
(0.00468275 0 0)
(0.0046824 0 0)
(0.00468567 0 0)
(0.00468833 0 0)
(0.0046872 0 0)
(0.0046857 0 0)
(0.00468481 0 0)
(0.00468121 0 0)
(0.0046779 0 0)
(0.00467942 0 0)
(0.00467953 0 0)
(0.00468113 0 0)
(0.00468862 0 0)
(0.00469126 0 0)
(0.00469212 0 0)
(0.00469429 0 0)
(0.00469668 0 0)
(0.00469537 0 0)
(0.00469045 0 0)
(0.00468824 0 0)
(0.00468562 0 0)
)
;

boundaryField
{
    inlet
    {
        type            fixedValue;
        value           uniform (0.005 0 0);
    }
    outlet
    {
        type            zeroGradient;
    }
    yzfaces
    {
        type            empty;
    }
}


// ************************************************************************* //
