/*--------------------------------*- C++ -*----------------------------------*\
| =========                 |                                                 |
| \\      /  F ield         | foam-extend: Open Source CFD                    |
|  \\    /   O peration     | Version:     5.0                                |
|   \\  /    A nd           | Web:         http://www.foam-extend.org         |
|    \\/     M anipulation  |                                                 |
\*---------------------------------------------------------------------------*/
FoamFile
{
    version     2.0;
    format      ascii;
    class       volVectorField;
    location    "1.948775837764319";
    object      U.water;
}
// * * * * * * * * * * * * * * * * * * * * * * * * * * * * * * * * * * * * * //

dimensions      [0 1 -1 0 0 0 0];

internalField   nonuniform List<vector> 
100
(
(0.000106675 0 0)
(0.00026229 0 0)
(0.000395206 0 0)
(0.000518434 0 0)
(0.000632557 0 0)
(0.000739571 0 0)
(0.000852014 0 0)
(0.000957323 0 0)
(0.00106412 0 0)
(0.00116912 0 0)
(0.00127324 0 0)
(0.0013919 0 0)
(0.00151822 0 0)
(0.00164825 0 0)
(0.00178712 0 0)
(0.00193872 0 0)
(0.00210777 0 0)
(0.00228751 0 0)
(0.00273761 0 0)
(0.00331049 0 0)
(0.00342186 0 0)
(0.00340099 0 0)
(0.0033656 0 0)
(0.00334063 0 0)
(0.0033395 0 0)
(0.00336778 0 0)
(0.0034101 0 0)
(0.00346893 0 0)
(0.00354351 0 0)
(0.00363279 0 0)
(0.00373447 0 0)
(0.00384687 0 0)
(0.00397406 0 0)
(0.00410973 0 0)
(0.00425592 0 0)
(0.0044027 0 0)
(0.00454658 0 0)
(0.00468065 0 0)
(0.00479167 0 0)
(0.00487799 0 0)
(0.00494559 0 0)
(0.00499748 0 0)
(0.00502954 0 0)
(0.0050462 0 0)
(0.00505594 0 0)
(0.0050616 0 0)
(0.00506752 0 0)
(0.00507306 0 0)
(0.00507593 0 0)
(0.00507829 0 0)
(0.00507625 0 0)
(0.00507347 0 0)
(0.00507152 0 0)
(0.00506843 0 0)
(0.00506541 0 0)
(0.00506375 0 0)
(0.00506468 0 0)
(0.00506226 0 0)
(0.00505714 0 0)
(0.0050574 0 0)
(0.00505794 0 0)
(0.00505295 0 0)
(0.00504676 0 0)
(0.00504433 0 0)
(0.00504745 0 0)
(0.00504727 0 0)
(0.00504943 0 0)
(0.00505431 0 0)
(0.00505102 0 0)
(0.0050478 0 0)
(0.0050525 0 0)
(0.00505802 0 0)
(0.00505985 0 0)
(0.00506089 0 0)
(0.00505943 0 0)
(0.00505873 0 0)
(0.00505881 0 0)
(0.00505698 0 0)
(0.00505623 0 0)
(0.00505426 0 0)
(0.00505473 0 0)
(0.00505861 0 0)
(0.00506059 0 0)
(0.0050602 0 0)
(0.00505907 0 0)
(0.00505846 0 0)
(0.00505544 0 0)
(0.0050517 0 0)
(0.00505131 0 0)
(0.0050513 0 0)
(0.00505422 0 0)
(0.00506128 0 0)
(0.00506438 0 0)
(0.00506472 0 0)
(0.00506752 0 0)
(0.00506987 0 0)
(0.00506902 0 0)
(0.00506621 0 0)
(0.00506406 0 0)
(0.00506381 0 0)
)
;

boundaryField
{
    inlet
    {
        type            fixedValue;
        value           uniform (0 0 0);
    }
    outlet
    {
        type            zeroGradient;
    }
    yzfaces
    {
        type            empty;
    }
}


// ************************************************************************* //
