/*--------------------------------*- C++ -*----------------------------------*\
| =========                 |                                                 |
| \\      /  F ield         | foam-extend: Open Source CFD                    |
|  \\    /   O peration     | Version:     5.0                                |
|   \\  /    A nd           | Web:         http://www.foam-extend.org         |
|    \\/     M anipulation  |                                                 |
\*---------------------------------------------------------------------------*/
FoamFile
{
    version     2.0;
    format      ascii;
    class       volScalarField;
    location    "1";
    object      alpha.gas;
}
// * * * * * * * * * * * * * * * * * * * * * * * * * * * * * * * * * * * * * //

dimensions      [0 0 0 0 0 0 0];

internalField   nonuniform List<scalar> 
100
(
0.115592
0.0972715
0.0863469
0.0786119
0.0724695
0.0674659
0.0630368
0.0591895
0.0557573
0.0526039
0.0495618
0.0467371
0.043962
0.0411975
0.0384793
0.0357599
0.032978
0.0301315
0.0271996
0.0242268
0.0212697
0.018448
0.0159288
0.0138692
0.0123546
0.0113473
0.0107374
0.0103931
0.0102054
0.0101069
0.0100539
0.0100254
0.0100106
0.010005
0.0100033
0.0100032
0.0100011
0.0100017
0.010002
0.0100029
0.0100005
0.0100014
0.0100007
0.00999777
0.0099976
0.00999847
0.009998
0.0099967
0.00999762
0.00999849
0.0099996
0.0100001
0.00999882
0.00999824
0.0100001
0.0100002
0.0100014
0.00999974
0.0100008
0.0100012
0.0100007
0.0100007
0.0100001
0.010001
0.00999814
0.00999824
0.00999811
0.01
0.00999988
0.0100008
0.0100013
0.0100024
0.0100016
0.0100006
0.00999836
0.00999841
0.00999819
0.00999812
0.00999713
0.00999683
0.00999758
0.0099976
0.00999767
0.0099973
0.00999885
0.00999837
0.00999756
0.00999807
0.00999833
0.00999792
0.00999942
0.00999665
0.00999766
0.00999833
0.0100013
0.0100008
0.00999637
0.00999812
0.00999856
0.00999641
)
;

boundaryField
{
    inlet
    {
        type            fixedValue;
        value           uniform 0.2;
    }
    outlet
    {
        type            zeroGradient;
    }
    yzfaces
    {
        type            empty;
    }
}


// ************************************************************************* //
