/*--------------------------------*- C++ -*----------------------------------*\
| =========                 |                                                 |
| \\      /  F ield         | foam-extend: Open Source CFD                    |
|  \\    /   O peration     | Version:     5.0                                |
|   \\  /    A nd           | Web:         http://www.foam-extend.org         |
|    \\/     M anipulation  |                                                 |
\*---------------------------------------------------------------------------*/
FoamFile
{
    version     2.0;
    format      ascii;
    class       volScalarField;
    location    "1";
    object      Cl.water;
}
// * * * * * * * * * * * * * * * * * * * * * * * * * * * * * * * * * * * * * //

dimensions      [0 0 0 0 0 0 0];

internalField   nonuniform List<scalar> 
100
(
0.017754
0.0216469
0.0239907
0.0255954
0.0268407
0.0278758
0.0287934
0.0296342
0.0303706
0.0310373
0.0316638
0.0323003
0.0328625
0.0334252
0.0340097
0.0345695
0.0351651
0.0357923
0.036404
0.0370337
0.0376329
0.0382489
0.0387303
0.0391676
0.0394999
0.0397046
0.0398231
0.0398932
0.0399626
0.0399755
0.0399744
0.0400022
0.039999
0.039978
0.039999
0.0399989
0.0400328
0.0400159
0.0400039
0.0400087
0.0400008
0.0400037
0.0399819
0.0400013
0.0400409
0.0400213
0.0400106
0.0400044
0.0399999
0.0399648
0.0399841
0.03999
0.0399966
0.0400075
0.0399956
0.0399917
0.0399956
0.0400155
0.0400178
0.0400204
0.0400151
0.0399736
0.0399784
0.0400137
0.0399969
0.0399874
0.0400172
0.0400084
0.0400326
0.0400119
0.039999
0.0399919
0.0399944
0.039983
0.0400081
0.0399988
0.0399929
0.0400093
0.0399853
0.0399968
0.0399811
0.0399654
0.0399807
0.0399734
0.0399422
0.0399539
0.0399584
0.0399684
0.0400133
0.040002
0.0399784
0.0400182
0.0400007
0.0400337
0.0399906
0.0399957
0.0400163
0.0399947
0.0399888
0.0399852
)
;

boundaryField
{
    inlet
    {
        type            fixedValue;
        value           uniform 0;
    }
    outlet
    {
        type            zeroGradient;
    }
    yzfaces
    {
        type            empty;
    }
}


// ************************************************************************* //
