/*--------------------------------*- C++ -*----------------------------------*\
| =========                 |                                                 |
| \\      /  F ield         | foam-extend: Open Source CFD                    |
|  \\    /   O peration     | Version:     5.0                                |
|   \\  /    A nd           | Web:         http://www.foam-extend.org         |
|    \\/     M anipulation  |                                                 |
\*---------------------------------------------------------------------------*/
FoamFile
{
    version     2.0;
    format      ascii;
    class       volScalarField;
    location    "1";
    object      H2O.gas;
}
// * * * * * * * * * * * * * * * * * * * * * * * * * * * * * * * * * * * * * //

dimensions      [0 0 0 0 0 0 0];

internalField   nonuniform List<scalar> 
100
(
4.60902e-06
2.02555e-05
5.89562e-05
0.00013747
0.000278866
0.000513353
0.000875168
0.00140698
0.00214568
0.00312249
0.00435009
0.00585226
0.00757762
0.00946666
0.0114454
0.0133743
0.0151058
0.0164898
0.01734
0.0175728
0.0171281
0.0161377
0.014765
0.0133589
0.0121599
0.011279
0.010713
0.0103834
0.0102079
0.0101074
0.0100516
0.0100273
0.0100124
0.0100014
0.010003
0.0100006
0.0100066
0.0100027
0.00999933
0.0100036
0.00999969
0.0100006
0.0099957
0.00999728
0.010005
0.0100053
0.010005
0.0100011
0.0100012
0.00999247
0.00999931
0.0100015
0.0100003
0.00999989
0.00999582
0.00999734
0.00999926
0.0100048
0.0100085
0.0100092
0.0100077
0.00999619
0.00999748
0.0100052
0.00999977
0.00999667
0.0100055
0.0100051
0.0100121
0.0100059
0.0100043
0.0100035
0.0100015
0.00999777
0.010003
0.0100028
0.0100012
0.0100012
0.00999241
0.00999304
0.00998974
0.00998687
0.00999242
0.00999108
0.00998721
0.00999176
0.00999046
0.00998858
0.00999919
0.00999501
0.00999372
0.0100014
0.00999855
0.0100083
0.0100044
0.0100025
0.0100038
0.00999949
0.010002
0.00999859
)
;

boundaryField
{
    inlet
    {
        type            fixedValue;
        value           uniform 0;
    }
    outlet
    {
        type            zeroGradient;
    }
    yzfaces
    {
        type            empty;
    }
}


// ************************************************************************* //
