/*--------------------------------*- C++ -*----------------------------------*\
| =========                 |                                                 |
| \\      /  F ield         | foam-extend: Open Source CFD                    |
|  \\    /   O peration     | Version:     5.0                                |
|   \\  /    A nd           | Web:         http://www.foam-extend.org         |
|    \\/     M anipulation  |                                                 |
\*---------------------------------------------------------------------------*/
FoamFile
{
    version     2.0;
    format      ascii;
    class       volScalarField;
    location    "1";
    object      Na.water;
}
// * * * * * * * * * * * * * * * * * * * * * * * * * * * * * * * * * * * * * //

dimensions      [0 0 0 0 0 0 0];

internalField   nonuniform List<scalar> 
100
(
0.0177534
0.0216501
0.0239975
0.0256015
0.0268454
0.0278874
0.0288143
0.0296404
0.0303802
0.031039
0.0316524
0.0322782
0.032853
0.0334157
0.0339914
0.0345544
0.0351557
0.0357763
0.0363995
0.0370308
0.0376249
0.0382456
0.0387232
0.0391586
0.0394906
0.0397066
0.0398401
0.0399158
0.0399819
0.0399942
0.0399877
0.0400036
0.0399961
0.0399686
0.0399838
0.0399766
0.0400099
0.0400016
0.0399768
0.0399846
0.0399843
0.039975
0.0399703
0.0399917
0.0400205
0.0400268
0.0400331
0.0400128
0.0400138
0.0399738
0.0400015
0.0400133
0.0400219
0.0400201
0.0399934
0.0399843
0.0399765
0.0400137
0.040023
0.0400263
0.0400158
0.0399669
0.0399723
0.0399976
0.0399924
0.0399779
0.040023
0.040012
0.0400371
0.0400191
0.0400083
0.0399966
0.039989
0.0399883
0.0400157
0.0400148
0.0400052
0.0400091
0.0399661
0.0399703
0.0399572
0.0399472
0.0399632
0.0399668
0.0399525
0.0399695
0.0399733
0.0399798
0.0400187
0.0399807
0.0399737
0.040008
0.0399953
0.0400263
0.0399966
0.039998
0.0400221
0.0399921
0.0400024
0.0399981
)
;

boundaryField
{
    inlet
    {
        type            fixedValue;
        value           uniform 0;
    }
    outlet
    {
        type            zeroGradient;
    }
    yzfaces
    {
        type            empty;
    }
}


// ************************************************************************* //
