/*--------------------------------*- C++ -*----------------------------------*\
| =========                 |                                                 |
| \\      /  F ield         | foam-extend: Open Source CFD                    |
|  \\    /   O peration     | Version:     5.0                                |
|   \\  /    A nd           | Web:         http://www.foam-extend.org         |
|    \\/     M anipulation  |                                                 |
\*---------------------------------------------------------------------------*/
FoamFile
{
    version     2.0;
    format      ascii;
    class       surfaceScalarField;
    location    "1";
    object      phi;
}
// * * * * * * * * * * * * * * * * * * * * * * * * * * * * * * * * * * * * * //

dimensions      [0 3 -1 0 0 0 0];

internalField   nonuniform List<scalar> 
99
(
1.23019e-06
1.2236e-06
1.22734e-06
1.22551e-06
1.22466e-06
1.22337e-06
1.2233e-06
1.22315e-06
1.22328e-06
1.22079e-06
1.22172e-06
1.21983e-06
1.21808e-06
1.21987e-06
1.22133e-06
1.22056e-06
1.22198e-06
1.22194e-06
1.22202e-06
1.2226e-06
1.2216e-06
1.22037e-06
1.22033e-06
1.21973e-06
1.2193e-06
1.21797e-06
1.21947e-06
1.22198e-06
1.2213e-06
1.22213e-06
1.2228e-06
1.22089e-06
1.2221e-06
1.22192e-06
1.22094e-06
1.22162e-06
1.22153e-06
1.22227e-06
1.22174e-06
1.22111e-06
1.22177e-06
1.22119e-06
1.2229e-06
1.22313e-06
1.22472e-06
1.22427e-06
1.22391e-06
1.22303e-06
1.22279e-06
1.22271e-06
1.22287e-06
1.22244e-06
1.22299e-06
1.2215e-06
1.22282e-06
1.22303e-06
1.22214e-06
1.22126e-06
1.22186e-06
1.22169e-06
1.22065e-06
1.22252e-06
1.22258e-06
1.22335e-06
1.22441e-06
1.22406e-06
1.22292e-06
1.22274e-06
1.22047e-06
1.21941e-06
1.21838e-06
1.21605e-06
1.21525e-06
1.2161e-06
1.21619e-06
1.21539e-06
1.21655e-06
1.21477e-06
1.21465e-06
1.21644e-06
1.21474e-06
1.21639e-06
1.21593e-06
1.21536e-06
1.21715e-06
1.21705e-06
1.21803e-06
1.21806e-06
1.21704e-06
1.21718e-06
1.21912e-06
1.21741e-06
1.21783e-06
1.21652e-06
1.21777e-06
1.21772e-06
1.21619e-06
1.21662e-06
1.21776e-06
)
;

boundaryField
{
    inlet
    {
        type            calculated;
        value           uniform -1.225e-06;
    }
    outlet
    {
        type            calculated;
        value           uniform 1.21772e-06;
    }
    yzfaces
    {
        type            empty;
    }
}


// ************************************************************************* //
