/*--------------------------------*- C++ -*----------------------------------*\
| =========                 |                                                 |
| \\      /  F ield         | foam-extend: Open Source CFD                    |
|  \\    /   O peration     | Version:     5.0                                |
|   \\  /    A nd           | Web:         http://www.foam-extend.org         |
|    \\/     M anipulation  |                                                 |
\*---------------------------------------------------------------------------*/
FoamFile
{
    version     2.0;
    format      ascii;
    class       volScalarField;
    location    "1";
    object      S.gas;
}
// * * * * * * * * * * * * * * * * * * * * * * * * * * * * * * * * * * * * * //

dimensions      [0 0 0 0 0 0 0];

internalField   nonuniform List<scalar> 
100
(
0.577962
0.486358
0.431735
0.393059
0.362348
0.33733
0.315184
0.295948
0.278786
0.263019
0.247809
0.233686
0.21981
0.205988
0.192397
0.178799
0.16489
0.150658
0.135998
0.121134
0.106348
0.0922402
0.079644
0.0693461
0.0617732
0.0567363
0.053687
0.0519655
0.051027
0.0505343
0.0502695
0.0501271
0.0500532
0.0500252
0.0500167
0.0500161
0.0500056
0.0500085
0.05001
0.0500144
0.0500023
0.0500071
0.0500036
0.0499888
0.049988
0.0499924
0.04999
0.0499835
0.0499881
0.0499924
0.049998
0.0500007
0.0499941
0.0499912
0.0500007
0.0500008
0.0500069
0.0499987
0.0500039
0.0500058
0.0500034
0.0500033
0.0500004
0.0500048
0.0499907
0.0499912
0.0499906
0.0500002
0.0499994
0.0500041
0.0500067
0.0500118
0.0500082
0.0500031
0.0499918
0.049992
0.0499909
0.0499906
0.0499857
0.0499841
0.0499879
0.049988
0.0499883
0.0499865
0.0499943
0.0499919
0.0499878
0.0499904
0.0499916
0.0499896
0.0499971
0.0499833
0.0499883
0.0499917
0.0500064
0.0500042
0.0499818
0.0499906
0.0499928
0.0499821
)
;

boundaryField
{
    inlet
    {
        type            calculated;
        value           uniform 1;
    }
    outlet
    {
        type            calculated;
        value           uniform 0.0499821;
    }
    yzfaces
    {
        type            empty;
    }
}


// ************************************************************************* //
