/*--------------------------------*- C++ -*----------------------------------*\
| =========                 |                                                 |
| \\      /  F ield         | foam-extend: Open Source CFD                    |
|  \\    /   O peration     | Version:     5.0                                |
|   \\  /    A nd           | Web:         http://www.foam-extend.org         |
|    \\/     M anipulation  |                                                 |
\*---------------------------------------------------------------------------*/
FoamFile
{
    version     2.0;
    format      ascii;
    class       volVectorField;
    location    "1";
    object      U.gas;
}
// * * * * * * * * * * * * * * * * * * * * * * * * * * * * * * * * * * * * * //

dimensions      [0 1 -1 0 0 0 0];

internalField   nonuniform List<vector> 
100
(
(0.00854182 0 0)
(0.00983863 0 0)
(0.0107215 0 0)
(0.0114064 0 0)
(0.0119451 0 0)
(0.0123718 0 0)
(0.0127438 0 0)
(0.0130341 0 0)
(0.0132618 0 0)
(0.0134262 0 0)
(0.0135554 0 0)
(0.0136153 0 0)
(0.0136216 0 0)
(0.0135864 0 0)
(0.0134898 0 0)
(0.0133027 0 0)
(0.0130249 0 0)
(0.0126346 0 0)
(0.0121029 0 0)
(0.0114114 0 0)
(0.0105551 0 0)
(0.00954423 0 0)
(0.00844801 0 0)
(0.00737491 0 0)
(0.00644126 0 0)
(0.00573162 0 0)
(0.00525669 0 0)
(0.00497692 0 0)
(0.00481943 0 0)
(0.00473195 0 0)
(0.00468892 0 0)
(0.00466173 0 0)
(0.00464694 0 0)
(0.00464281 0 0)
(0.00463795 0 0)
(0.00463687 0 0)
(0.00463767 0 0)
(0.00463765 0 0)
(0.00463836 0 0)
(0.00463547 0 0)
(0.00463611 0 0)
(0.00463608 0 0)
(0.00463878 0 0)
(0.00464171 0 0)
(0.00464399 0 0)
(0.00464562 0 0)
(0.00464397 0 0)
(0.00464147 0 0)
(0.00463938 0 0)
(0.0046392 0 0)
(0.00463929 0 0)
(0.00463886 0 0)
(0.00463982 0 0)
(0.00463793 0 0)
(0.00463678 0 0)
(0.00464067 0 0)
(0.00463953 0 0)
(0.00463737 0 0)
(0.00463625 0 0)
(0.00463704 0 0)
(0.00463457 0 0)
(0.00463573 0 0)
(0.00463972 0 0)
(0.00464143 0 0)
(0.00464535 0 0)
(0.00464567 0 0)
(0.004643 0 0)
(0.00463986 0 0)
(0.00463583 0 0)
(0.00462974 0 0)
(0.00462591 0 0)
(0.00461972 0 0)
(0.00461475 0 0)
(0.00461456 0 0)
(0.00461505 0 0)
(0.00461194 0 0)
(0.00461413 0 0)
(0.00461368 0 0)
(0.0046094 0 0)
(0.00461175 0 0)
(0.00461116 0 0)
(0.00461187 0 0)
(0.00461359 0 0)
(0.00461114 0 0)
(0.0046146 0 0)
(0.00461894 0 0)
(0.00462023 0 0)
(0.00462191 0 0)
(0.00462014 0 0)
(0.00461816 0 0)
(0.00462188 0 0)
(0.00462338 0 0)
(0.0046195 0 0)
(0.00461801 0 0)
(0.00461868 0 0)
(0.00462174 0 0)
(0.00461821 0 0)
(0.00461444 0 0)
(0.00461782 0 0)
(0.00462223 0 0)
)
;

boundaryField
{
    inlet
    {
        type            fixedValue;
        value           uniform (0.005 0 0);
    }
    outlet
    {
        type            zeroGradient;
    }
    yzfaces
    {
        type            empty;
    }
}


// ************************************************************************* //
