/*--------------------------------*- C++ -*----------------------------------*\
| =========                 |                                                 |
| \\      /  F ield         | foam-extend: Open Source CFD                    |
|  \\    /   O peration     | Version:     5.0                                |
|   \\  /    A nd           | Web:         http://www.foam-extend.org         |
|    \\/     M anipulation  |                                                 |
\*---------------------------------------------------------------------------*/
FoamFile
{
    version     2.0;
    format      ascii;
    class       volVectorField;
    location    "1";
    object      U.water;
}
// * * * * * * * * * * * * * * * * * * * * * * * * * * * * * * * * * * * * * //

dimensions      [0 1 -1 0 0 0 0];

internalField   nonuniform List<vector> 
100
(
(0.000174723 0 0)
(0.000433458 0 0)
(0.000656541 0 0)
(0.000860752 0 0)
(0.00105396 0 0)
(0.00124136 0 0)
(0.00142603 0 0)
(0.0016126 0 0)
(0.00179627 0 0)
(0.00197635 0 0)
(0.0021611 0 0)
(0.00235028 0 0)
(0.00253934 0 0)
(0.00274149 0 0)
(0.00295522 0 0)
(0.00317211 0 0)
(0.00339728 0 0)
(0.00363115 0 0)
(0.00386769 0 0)
(0.00410382 0 0)
(0.00432568 0 0)
(0.00452019 0 0)
(0.004681 0 0)
(0.00480124 0 0)
(0.00488125 0 0)
(0.00492846 0 0)
(0.00495837 0 0)
(0.00498286 0 0)
(0.00499526 0 0)
(0.00500016 0 0)
(0.00500557 0 0)
(0.00500428 0 0)
(0.00500354 0 0)
(0.00500596 0 0)
(0.00500372 0 0)
(0.00500313 0 0)
(0.00500434 0 0)
(0.00500575 0 0)
(0.00500618 0 0)
(0.00500383 0 0)
(0.00500385 0 0)
(0.00500402 0 0)
(0.00500631 0 0)
(0.00501033 0 0)
(0.0050141 0 0)
(0.00501648 0 0)
(0.00501482 0 0)
(0.00501228 0 0)
(0.00500999 0 0)
(0.00500932 0 0)
(0.0050095 0 0)
(0.00500893 0 0)
(0.00500914 0 0)
(0.00500722 0 0)
(0.00500691 0 0)
(0.00500999 0 0)
(0.00500859 0 0)
(0.00500491 0 0)
(0.00500437 0 0)
(0.00500526 0 0)
(0.00500279 0 0)
(0.0050045 0 0)
(0.00500842 0 0)
(0.00501011 0 0)
(0.00501385 0 0)
(0.00501537 0 0)
(0.00501231 0 0)
(0.00500964 0 0)
(0.00500458 0 0)
(0.00499774 0 0)
(0.00499346 0 0)
(0.00498657 0 0)
(0.00498011 0 0)
(0.00498023 0 0)
(0.00498222 0 0)
(0.00498085 0 0)
(0.0049815 0 0)
(0.00498019 0 0)
(0.00497634 0 0)
(0.00497981 0 0)
(0.00498004 0 0)
(0.00497988 0 0)
(0.00498235 0 0)
(0.00498028 0 0)
(0.00498272 0 0)
(0.00498611 0 0)
(0.00498794 0 0)
(0.00499003 0 0)
(0.00498799 0 0)
(0.0049862 0 0)
(0.00499047 0 0)
(0.00499089 0 0)
(0.00498832 0 0)
(0.00498647 0 0)
(0.00498633 0 0)
(0.00498874 0 0)
(0.00498552 0 0)
(0.00498336 0 0)
(0.00498656 0 0)
(0.00498869 0 0)
)
;

boundaryField
{
    inlet
    {
        type            fixedValue;
        value           uniform (0 0 0);
    }
    outlet
    {
        type            zeroGradient;
    }
    yzfaces
    {
        type            empty;
    }
}


// ************************************************************************* //
