/*--------------------------------*- C++ -*----------------------------------*\
| =========                 |                                                 |
| \\      /  F ield         | foam-extend: Open Source CFD                    |
|  \\    /   O peration     | Version:     5.0                                |
|   \\  /    A nd           | Web:         http://www.foam-extend.org         |
|    \\/     M anipulation  |                                                 |
\*---------------------------------------------------------------------------*/
FoamFile
{
    version     2.0;
    format      ascii;
    class       volScalarField;
    location    "4";
    object      alpha.gas;
}
// * * * * * * * * * * * * * * * * * * * * * * * * * * * * * * * * * * * * * //

dimensions      [0 0 0 0 0 0 0];

internalField   nonuniform List<scalar> 
100
(
0.152236
0.135824
0.127913
0.118834
0.111763
0.107039
0.10274
0.0987316
0.0949385
0.0920146
0.0891998
0.0867177
0.0846472
0.0827278
0.0808467
0.0786592
0.076951
0.0753039
0.0737438
0.0722342
0.0706688
0.0691292
0.0676589
0.0661941
0.0649487
0.0636004
0.0621408
0.0608507
0.0593186
0.0576871
0.0558034
0.053836
0.0513772
0.0482576
0.0437525
0.0363487
0.0213444
0.0237048
0.0242053
0.0243772
0.0244541
0.02454
0.0246586
0.0248015
0.024958
0.0250857
0.0252118
0.0253192
0.0254075
0.0254665
0.0254924
0.0254882
0.0254548
0.0253684
0.0252517
0.0250689
0.0248121
0.0244707
0.0240396
0.0234846
0.022805
0.0219859
0.0210104
0.0198814
0.0186104
0.0172507
0.0158575
0.0145144
0.0133117
0.0123151
0.01155
0.0110022
0.0106352
0.0103929
0.0102389
0.0101437
0.0100855
0.0100492
0.0100281
0.0100143
0.0100063
0.0100025
0.010001
0.00999812
0.00999724
0.00999732
0.00999893
0.00999921
0.01
0.010001
0.0100016
0.00999934
0.0100001
0.0100001
0.0100026
0.0100015
0.0100007
0.0100017
0.0100029
0.0100022
)
;

boundaryField
{
    inlet
    {
        type            fixedValue;
        value           uniform 0.2;
    }
    outlet
    {
        type            zeroGradient;
    }
    yzfaces
    {
        type            empty;
    }
}


// ************************************************************************* //
