/*--------------------------------*- C++ -*----------------------------------*\
| =========                 |                                                 |
| \\      /  F ield         | foam-extend: Open Source CFD                    |
|  \\    /   O peration     | Version:     5.0                                |
|   \\  /    A nd           | Web:         http://www.foam-extend.org         |
|    \\/     M anipulation  |                                                 |
\*---------------------------------------------------------------------------*/
FoamFile
{
    version     2.0;
    format      ascii;
    class       volScalarField;
    location    "4";
    object      Na.water;
}
// * * * * * * * * * * * * * * * * * * * * * * * * * * * * * * * * * * * * * //

dimensions      [0 0 0 0 0 0 0];

internalField   nonuniform List<scalar> 
100
(
0.00547239
0.00730395
0.00825262
0.00931434
0.0101097
0.0106767
0.0111652
0.0115547
0.0119609
0.0123185
0.012628
0.0129539
0.0132193
0.0134607
0.0136819
0.013871
0.0140818
0.0142651
0.0144369
0.0146011
0.0147845
0.0149767
0.01515
0.01532
0.0155
0.0156624
0.0157986
0.0159651
0.0161244
0.0163065
0.016529
0.0167812
0.0170441
0.0174197
0.0179315
0.0187595
0.0203765
0.0208238
0.021069
0.0211731
0.0211872
0.0211988
0.021205
0.0211912
0.0211743
0.0211428
0.0211515
0.0211404
0.0211248
0.0211368
0.0211347
0.0211252
0.0211401
0.021148
0.0211598
0.0211824
0.0212179
0.0212551
0.021312
0.0213698
0.0214623
0.0215748
0.0216797
0.0218122
0.0219681
0.0221519
0.0223137
0.0224645
0.0226266
0.0227297
0.0228398
0.0229047
0.0229499
0.022981
0.0229881
0.0230098
0.0230079
0.0230054
0.0230168
0.023011
0.0230043
0.0230005
0.0230099
0.0230187
0.0229987
0.0230017
0.0229844
0.0230152
0.0230175
0.0230271
0.0230147
0.0230112
0.0230035
0.0230138
0.023016
0.0230237
0.0230076
0.0230123
0.0230158
0.0230007
)
;

boundaryField
{
    inlet
    {
        type            fixedValue;
        value           uniform 0;
    }
    outlet
    {
        type            zeroGradient;
    }
    yzfaces
    {
        type            empty;
    }
}


// ************************************************************************* //
