/*--------------------------------*- C++ -*----------------------------------*\
| =========                 |                                                 |
| \\      /  F ield         | foam-extend: Open Source CFD                    |
|  \\    /   O peration     | Version:     5.0                                |
|   \\  /    A nd           | Web:         http://www.foam-extend.org         |
|    \\/     M anipulation  |                                                 |
\*---------------------------------------------------------------------------*/
FoamFile
{
    version     2.0;
    format      ascii;
    class       volVectorField;
    location    "4";
    object      U.gas;
}
// * * * * * * * * * * * * * * * * * * * * * * * * * * * * * * * * * * * * * //

dimensions      [0 1 -1 0 0 0 0];

internalField   nonuniform List<vector> 
100
(
(0.00655166 0 0)
(0.00730932 0 0)
(0.00770558 0 0)
(0.0082156 0 0)
(0.00869862 0 0)
(0.00900159 0 0)
(0.00925142 0 0)
(0.00952714 0 0)
(0.00981247 0 0)
(0.0100766 0 0)
(0.0103518 0 0)
(0.0105677 0 0)
(0.0107236 0 0)
(0.0108352 0 0)
(0.0109733 0 0)
(0.0111523 0 0)
(0.0113139 0 0)
(0.0114928 0 0)
(0.0116388 0 0)
(0.0117693 0 0)
(0.0119084 0 0)
(0.0120517 0 0)
(0.0121921 0 0)
(0.0123442 0 0)
(0.0124428 0 0)
(0.0125354 0 0)
(0.0127166 0 0)
(0.0128384 0 0)
(0.0129746 0 0)
(0.0130985 0 0)
(0.0132481 0 0)
(0.0133806 0 0)
(0.0135508 0 0)
(0.0137656 0 0)
(0.0140444 0 0)
(0.0144723 0 0)
(0.0155249 0 0)
(0.00964531 0 0)
(0.0102323 0 0)
(0.0104084 0 0)
(0.0104759 0 0)
(0.0105217 0 0)
(0.0105597 0 0)
(0.0106025 0 0)
(0.0106407 0 0)
(0.0106814 0 0)
(0.0107308 0 0)
(0.0107834 0 0)
(0.0108155 0 0)
(0.0108371 0 0)
(0.0108619 0 0)
(0.0108725 0 0)
(0.0108634 0 0)
(0.0108675 0 0)
(0.0108565 0 0)
(0.0108267 0 0)
(0.0107815 0 0)
(0.0107076 0 0)
(0.0106102 0 0)
(0.0104948 0 0)
(0.0103399 0 0)
(0.0101309 0 0)
(0.00986003 0 0)
(0.00952095 0 0)
(0.00910792 0 0)
(0.0086175 0 0)
(0.00806153 0 0)
(0.00746808 0 0)
(0.00686802 0 0)
(0.00630897 0 0)
(0.00584179 0 0)
(0.00547878 0 0)
(0.00521605 0 0)
(0.00503661 0 0)
(0.00491966 0 0)
(0.00484549 0 0)
(0.00479744 0 0)
(0.00476733 0 0)
(0.00475005 0 0)
(0.00474213 0 0)
(0.00473544 0 0)
(0.00473221 0 0)
(0.00473293 0 0)
(0.0047333 0 0)
(0.00473108 0 0)
(0.00472591 0 0)
(0.0047245 0 0)
(0.00472994 0 0)
(0.0047326 0 0)
(0.00473482 0 0)
(0.00473314 0 0)
(0.00472934 0 0)
(0.00472971 0 0)
(0.00473299 0 0)
(0.00473195 0 0)
(0.0047332 0 0)
(0.00473293 0 0)
(0.00473514 0 0)
(0.00474055 0 0)
(0.00474265 0 0)
)
;

boundaryField
{
    inlet
    {
        type            fixedValue;
        value           uniform (0.005 0 0);
    }
    outlet
    {
        type            zeroGradient;
    }
    yzfaces
    {
        type            empty;
    }
}


// ************************************************************************* //
