/*--------------------------------*- C++ -*----------------------------------*\
| =========                 |                                                 |
| \\      /  F ield         | foam-extend: Open Source CFD                    |
|  \\    /   O peration     | Version:     5.0                                |
|   \\  /    A nd           | Web:         http://www.foam-extend.org         |
|    \\/     M anipulation  |                                                 |
\*---------------------------------------------------------------------------*/
FoamFile
{
    version     2.0;
    format      ascii;
    class       volVectorField;
    location    "4";
    object      U.water;
}
// * * * * * * * * * * * * * * * * * * * * * * * * * * * * * * * * * * * * * //

dimensions      [0 1 -1 0 0 0 0];

internalField   nonuniform List<vector> 
100
(
(5.81473e-05 0 0)
(0.000141215 0 0)
(0.000209912 0 0)
(0.00026758 0 0)
(0.000339901 0 0)
(0.000405543 0 0)
(0.000458962 0 0)
(0.000513898 0 0)
(0.000573083 0 0)
(0.000634759 0 0)
(0.000690976 0 0)
(0.000746152 0 0)
(0.000795763 0 0)
(0.000839129 0 0)
(0.000884344 0 0)
(0.000936041 0 0)
(0.000992388 0 0)
(0.00104474 0 0)
(0.00109509 0 0)
(0.00114453 0 0)
(0.00119719 0 0)
(0.00125425 0 0)
(0.00131256 0 0)
(0.00137293 0 0)
(0.00142967 0 0)
(0.00148155 0 0)
(0.00154769 0 0)
(0.00161788 0 0)
(0.00168584 0 0)
(0.00176587 0 0)
(0.00185845 0 0)
(0.00196566 0 0)
(0.00209241 0 0)
(0.0022637 0 0)
(0.00251071 0 0)
(0.00292839 0 0)
(0.00371983 0 0)
(0.0044017 0 0)
(0.00432267 0 0)
(0.00429481 0 0)
(0.0042881 0 0)
(0.00429103 0 0)
(0.00429001 0 0)
(0.00428391 0 0)
(0.00427048 0 0)
(0.0042567 0 0)
(0.00425122 0 0)
(0.00424732 0 0)
(0.00423951 0 0)
(0.00423096 0 0)
(0.00422884 0 0)
(0.00422803 0 0)
(0.00422624 0 0)
(0.00423409 0 0)
(0.00424569 0 0)
(0.00425695 0 0)
(0.00427422 0 0)
(0.00429456 0 0)
(0.00432363 0 0)
(0.00436448 0 0)
(0.00441463 0 0)
(0.00446963 0 0)
(0.00453235 0 0)
(0.0046035 0 0)
(0.004681 0 0)
(0.00476113 0 0)
(0.00483697 0 0)
(0.00491014 0 0)
(0.00496956 0 0)
(0.00501339 0 0)
(0.00504879 0 0)
(0.00507288 0 0)
(0.00508858 0 0)
(0.00509551 0 0)
(0.00509978 0 0)
(0.00510234 0 0)
(0.00510184 0 0)
(0.00510097 0 0)
(0.00510134 0 0)
(0.00510391 0 0)
(0.00510409 0 0)
(0.00510463 0 0)
(0.00510736 0 0)
(0.00510848 0 0)
(0.00510771 0 0)
(0.0051033 0 0)
(0.00510223 0 0)
(0.0051066 0 0)
(0.00510877 0 0)
(0.00511091 0 0)
(0.00510849 0 0)
(0.00510397 0 0)
(0.00510636 0 0)
(0.0051102 0 0)
(0.00510882 0 0)
(0.00510865 0 0)
(0.00510856 0 0)
(0.00511131 0 0)
(0.00511613 0 0)
(0.00511849 0 0)
)
;

boundaryField
{
    inlet
    {
        type            fixedValue;
        value           uniform (0 0 0);
    }
    outlet
    {
        type            zeroGradient;
    }
    yzfaces
    {
        type            empty;
    }
}


// ************************************************************************* //
