/*--------------------------------*- C++ -*----------------------------------*\
| =========                 |                                                 |
| \\      /  F ield         | foam-extend: Open Source CFD                    |
|  \\    /   O peration     | Version:     5.0                                |
|   \\  /    A nd           | Web:         http://www.foam-extend.org         |
|    \\/     M anipulation  |                                                 |
\*---------------------------------------------------------------------------*/
FoamFile
{
    version     2.0;
    format      ascii;
    class       volScalarField;
    location    "10";
    object      alpha.gas;
}
// * * * * * * * * * * * * * * * * * * * * * * * * * * * * * * * * * * * * * //

dimensions      [0 0 0 0 0 0 0];

internalField   nonuniform List<scalar> 
100
(
0.169218
0.158867
0.149588
0.146466
0.142863
0.137197
0.131164
0.126672
0.124499
0.124485
0.12285
0.11954
0.115232
0.112759
0.11009
0.10788
0.10584
0.103778
0.101498
0.0999257
0.0986705
0.0969316
0.0955861
0.0948024
0.0934157
0.0921152
0.0908483
0.0892596
0.088316
0.0870322
0.0866568
0.0865561
0.0862094
0.085865
0.0852142
0.0845032
0.0839635
0.0832876
0.08244
0.0813614
0.0805226
0.079364
0.0786419
0.0779093
0.0772308
0.0764973
0.0759393
0.0753817
0.07498
0.0744224
0.0738791
0.0733288
0.0726845
0.0720748
0.0715357
0.0710542
0.0704746
0.0700956
0.0696537
0.0691716
0.0688781
0.0683392
0.0679021
0.0675061
0.0670098
0.0664249
0.0659462
0.0654126
0.0650022
0.0646824
0.0644332
0.0639694
0.0635764
0.0630956
0.062753
0.0624129
0.0619314
0.0614969
0.0611607
0.0608126
0.0604148
0.0601009
0.0597897
0.0595396
0.0590843
0.0587059
0.0584831
0.0581241
0.0578441
0.0575465
0.0572071
0.0569443
0.0566036
0.0562844
0.0559323
0.0557121
0.0554023
0.0551373
0.0549202
0.0546872
)
;

boundaryField
{
    inlet
    {
        type            fixedValue;
        value           uniform 0.2;
    }
    outlet
    {
        type            zeroGradient;
    }
    yzfaces
    {
        type            empty;
    }
}


// ************************************************************************* //
