/*--------------------------------*- C++ -*----------------------------------*\
| =========                 |                                                 |
| \\      /  F ield         | foam-extend: Open Source CFD                    |
|  \\    /   O peration     | Version:     5.0                                |
|   \\  /    A nd           | Web:         http://www.foam-extend.org         |
|    \\/     M anipulation  |                                                 |
\*---------------------------------------------------------------------------*/
FoamFile
{
    version     2.0;
    format      ascii;
    class       volScalarField;
    location    "10";
    object      alpha.gas;
}
// * * * * * * * * * * * * * * * * * * * * * * * * * * * * * * * * * * * * * //

dimensions      [0 0 0 0 0 0 0];

internalField   nonuniform List<scalar> 
100
(
0.169265
0.158623
0.150182
0.147866
0.143433
0.13768
0.132467
0.128093
0.125458
0.124259
0.123399
0.11943
0.115938
0.112704
0.110424
0.107682
0.106053
0.104055
0.101833
0.0998656
0.0981267
0.0967945
0.0952337
0.0943182
0.0929006
0.0912388
0.0899081
0.0888317
0.0880142
0.0871598
0.086754
0.0866796
0.0861185
0.0857885
0.0853854
0.0847033
0.0838006
0.08283
0.0822191
0.0811349
0.0800199
0.0791879
0.0783262
0.0774907
0.0768795
0.0761689
0.0755806
0.075063
0.0746005
0.0741538
0.0735538
0.0730286
0.072432
0.0719005
0.0713346
0.0708265
0.0703996
0.0699621
0.0695592
0.0692227
0.0687368
0.0681999
0.0677214
0.0671338
0.0666814
0.0662645
0.065848
0.0654803
0.0651525
0.064717
0.064303
0.0639779
0.0635993
0.0632159
0.0627835
0.062347
0.0620361
0.0616675
0.0612944
0.060964
0.0606476
0.0603548
0.059955
0.0595281
0.0591099
0.0588248
0.0585074
0.0581222
0.057847
0.0575269
0.0572397
0.056933
0.0566777
0.0563784
0.0560615
0.0557623
0.0554385
0.0551392
0.0548583
0.0546734
)
;

boundaryField
{
    inlet
    {
        type            fixedValue;
        value           uniform 0.2;
    }
    outlet
    {
        type            zeroGradient;
    }
    yzfaces
    {
        type            empty;
    }
}


// ************************************************************************* //
