/*--------------------------------*- C++ -*----------------------------------*\
| =========                 |                                                 |
| \\      /  F ield         | foam-extend: Open Source CFD                    |
|  \\    /   O peration     | Version:     5.0                                |
|   \\  /    A nd           | Web:         http://www.foam-extend.org         |
|    \\/     M anipulation  |                                                 |
\*---------------------------------------------------------------------------*/
FoamFile
{
    version     2.0;
    format      ascii;
    class       volScalarField;
    location    "10";
    object      Cl.water;
}
// * * * * * * * * * * * * * * * * * * * * * * * * * * * * * * * * * * * * * //

dimensions      [0 0 0 0 0 0 0];

internalField   nonuniform List<scalar> 
100
(
0.00579701
0.00848361
0.0104464
0.0123368
0.0129861
0.0137396
0.0146469
0.0155989
0.016302
0.0167067
0.0168682
0.0169405
0.0174363
0.0178992
0.0183584
0.018623
0.0191935
0.0194614
0.0196206
0.0199193
0.0202078
0.0205072
0.0208471
0.0211939
0.0213734
0.0216605
0.0220353
0.0224555
0.0227386
0.0229217
0.0230862
0.0231765
0.0232296
0.0233153
0.0233602
0.0235408
0.0236303
0.0237349
0.0240077
0.0240885
0.0242879
0.0244694
0.0246317
0.0247846
0.0249925
0.0250964
0.0252139
0.0253371
0.0254554
0.0255515
0.0256256
0.0257232
0.0258894
0.0260431
0.026084
0.0262068
0.0263421
0.0264469
0.026572
0.0266474
0.0266498
0.0267765
0.0269223
0.027034
0.0271381
0.0272905
0.0274145
0.0275228
0.027565
0.027618
0.0276989
0.0277992
0.0278994
0.0280269
0.0280568
0.0280932
0.0282109
0.0282488
0.0283029
0.0283434
0.0284803
0.0285225
0.0286361
0.0287682
0.0288408
0.0288973
0.0289635
0.0289879
0.0291265
0.0291883
0.0292525
0.0292769
0.02935
0.0294017
0.0294373
0.0294745
0.0295148
0.0296018
0.029683
0.0297724
)
;

boundaryField
{
    inlet
    {
        type            fixedValue;
        value           uniform 0;
    }
    outlet
    {
        type            zeroGradient;
    }
    yzfaces
    {
        type            empty;
    }
}


// ************************************************************************* //
