/*--------------------------------*- C++ -*----------------------------------*\
| =========                 |                                                 |
| \\      /  F ield         | foam-extend: Open Source CFD                    |
|  \\    /   O peration     | Version:     5.0                                |
|   \\  /    A nd           | Web:         http://www.foam-extend.org         |
|    \\/     M anipulation  |                                                 |
\*---------------------------------------------------------------------------*/
FoamFile
{
    version     2.0;
    format      ascii;
    class       volScalarField;
    location    "10";
    object      Cl.water;
}
// * * * * * * * * * * * * * * * * * * * * * * * * * * * * * * * * * * * * * //

dimensions      [0 0 0 0 0 0 0];

internalField   nonuniform List<scalar> 
100
(
0.00572854
0.0085837
0.0102736
0.0120275
0.013021
0.013669
0.014476
0.0154323
0.0164258
0.0170214
0.0170434
0.0173012
0.0175284
0.0180737
0.0184221
0.0188005
0.0189653
0.0192581
0.019657
0.0200663
0.020504
0.0207595
0.0211627
0.021487
0.021691
0.0219296
0.022144
0.022373
0.0227189
0.022901
0.0232121
0.0234351
0.0234311
0.0234254
0.0234024
0.0234932
0.0236742
0.0236969
0.0237868
0.0238706
0.024115
0.0242528
0.0245975
0.024728
0.0248594
0.0250583
0.0251952
0.0253155
0.0254668
0.0255249
0.0256232
0.0257434
0.0258718
0.0259426
0.0260939
0.026199
0.0262587
0.026364
0.0264312
0.026527
0.0266182
0.0267402
0.0268499
0.0269963
0.027042
0.0270994
0.0271887
0.0272991
0.0274765
0.0276095
0.027693
0.0277582
0.0278221
0.027927
0.0280463
0.0281063
0.0281905
0.0283262
0.028429
0.0284452
0.028485
0.0285845
0.0286771
0.0287332
0.0287478
0.0288264
0.0288845
0.0289481
0.0290511
0.0291376
0.0292052
0.0292787
0.0293004
0.0293497
0.0293775
0.0294427
0.0294924
0.0296136
0.0296927
0.0298035
)
;

boundaryField
{
    inlet
    {
        type            fixedValue;
        value           uniform 0;
    }
    outlet
    {
        type            zeroGradient;
    }
    yzfaces
    {
        type            empty;
    }
}


// ************************************************************************* //
