/*--------------------------------*- C++ -*----------------------------------*\
| =========                 |                                                 |
| \\      /  F ield         | foam-extend: Open Source CFD                    |
|  \\    /   O peration     | Version:     5.0                                |
|   \\  /    A nd           | Web:         http://www.foam-extend.org         |
|    \\/     M anipulation  |                                                 |
\*---------------------------------------------------------------------------*/
FoamFile
{
    version     2.0;
    format      ascii;
    class       volScalarField;
    location    "10";
    object      CO2.water;
}
// * * * * * * * * * * * * * * * * * * * * * * * * * * * * * * * * * * * * * //

dimensions      [0 0 0 0 0 0 0];

internalField   nonuniform List<scalar> 
100
(
0.000808486
0.00108033
0.00132405
0.00140604
0.00150067
0.0016495
0.00180794
0.00192592
0.00198301
0.00198338
0.00202631
0.00211325
0.00222639
0.00229135
0.00236146
0.0024195
0.00247307
0.00252724
0.00258712
0.00262841
0.00266137
0.00270704
0.00274238
0.00276297
0.00279939
0.00283354
0.00286682
0.00290855
0.00293333
0.00296705
0.00297691
0.00297955
0.00298866
0.0029977
0.0030148
0.00303347
0.00304764
0.0030654
0.00308766
0.00311599
0.00313802
0.00316845
0.00318741
0.00320666
0.00322448
0.00324374
0.0032584
0.00327304
0.00328359
0.00329824
0.00331251
0.00332696
0.00334388
0.0033599
0.00337406
0.0033867
0.00340192
0.00341188
0.00342349
0.00343615
0.00344386
0.00345801
0.00346949
0.00347989
0.00349293
0.00350829
0.00352086
0.00353488
0.00354565
0.00355405
0.0035606
0.00357278
0.0035831
0.00359573
0.00360473
0.00361366
0.00362631
0.00363772
0.00364655
0.00365569
0.00366614
0.00367439
0.00368256
0.00368913
0.00370109
0.00371102
0.00371688
0.0037263
0.00373366
0.00374148
0.00375039
0.00375729
0.00376624
0.00377462
0.00378387
0.00378965
0.00379779
0.00380475
0.00381045
0.00381657
)
;

boundaryField
{
    inlet
    {
        type            fixedValue;
        value           uniform 0;
    }
    outlet
    {
        type            zeroGradient;
    }
    yzfaces
    {
        type            empty;
    }
}


// ************************************************************************* //
