/*--------------------------------*- C++ -*----------------------------------*\
| =========                 |                                                 |
| \\      /  F ield         | foam-extend: Open Source CFD                    |
|  \\    /   O peration     | Version:     5.0                                |
|   \\  /    A nd           | Web:         http://www.foam-extend.org         |
|    \\/     M anipulation  |                                                 |
\*---------------------------------------------------------------------------*/
FoamFile
{
    version     2.0;
    format      ascii;
    class       volScalarField;
    location    "10";
    object      CO2.gas;
}
// * * * * * * * * * * * * * * * * * * * * * * * * * * * * * * * * * * * * * //

dimensions      [0 0 0 0 0 0 0];

internalField   nonuniform List<scalar> 
100
(
0.168888
0.158558
0.149297
0.146181
0.142585
0.13693
0.130909
0.126425
0.124256
0.124242
0.122611
0.119307
0.115008
0.112539
0.109875
0.10767
0.105634
0.103576
0.1013
0.0997311
0.0984783
0.0967429
0.0953999
0.0946177
0.0932337
0.0919358
0.0906714
0.0890858
0.088144
0.0868627
0.086488
0.0863876
0.0860416
0.0856978
0.0850482
0.0843386
0.0838
0.0831254
0.0822795
0.081203
0.0803658
0.0792094
0.0784888
0.0777576
0.0770804
0.0763483
0.0757914
0.0752349
0.0748339
0.0742774
0.0737353
0.073186
0.0725429
0.0719345
0.0713964
0.0709159
0.0703374
0.0699591
0.069518
0.0690369
0.0687439
0.0682061
0.0677698
0.0673746
0.0668793
0.0662955
0.0658177
0.0652853
0.0648756
0.0645565
0.0643077
0.0638448
0.0634526
0.0629727
0.0626308
0.0622913
0.0618108
0.0613772
0.0610416
0.0606942
0.0602971
0.0599838
0.0596733
0.0594236
0.0589692
0.0585916
0.0583692
0.0580109
0.0577314
0.0574344
0.0570957
0.0568334
0.0564934
0.0561748
0.0558234
0.0556036
0.0552944
0.0550299
0.0548133
0.0545807
)
;

boundaryField
{
    inlet
    {
        type            fixedValue;
        value           uniform 0.2;
    }
    outlet
    {
        type            zeroGradient;
    }
    yzfaces
    {
        type            empty;
    }
}


// ************************************************************************* //
