/*--------------------------------*- C++ -*----------------------------------*\
| =========                 |                                                 |
| \\      /  F ield         | foam-extend: Open Source CFD                    |
|  \\    /   O peration     | Version:     5.0                                |
|   \\  /    A nd           | Web:         http://www.foam-extend.org         |
|    \\/     M anipulation  |                                                 |
\*---------------------------------------------------------------------------*/
FoamFile
{
    version     2.0;
    format      ascii;
    class       volScalarField;
    location    "10";
    object      CO2.gas;
}
// * * * * * * * * * * * * * * * * * * * * * * * * * * * * * * * * * * * * * //

dimensions      [0 0 0 0 0 0 0];

internalField   nonuniform List<scalar> 
100
(
0.168935
0.158314
0.14989
0.147578
0.143153
0.137412
0.132209
0.127843
0.125214
0.124017
0.123159
0.119197
0.115712
0.112485
0.110209
0.107472
0.105846
0.103852
0.101635
0.0996712
0.0979356
0.096606
0.0950482
0.0941345
0.0927197
0.0910612
0.089733
0.0886587
0.0878428
0.0869901
0.0865851
0.0865108
0.0859507
0.0856214
0.0852191
0.0845383
0.0836374
0.0826686
0.082059
0.0809769
0.079864
0.0790336
0.0781737
0.0773398
0.0767298
0.0760206
0.0754334
0.0749168
0.0744552
0.0740094
0.0734105
0.0728864
0.0722909
0.0717604
0.0711957
0.0706886
0.0702625
0.0698258
0.0694237
0.0690878
0.0686029
0.0680671
0.0675895
0.0670031
0.0665515
0.0661354
0.0657198
0.0653528
0.0650256
0.064591
0.0641777
0.0638533
0.0634754
0.0630928
0.0626612
0.0622256
0.0619153
0.0615474
0.0611751
0.0608453
0.0605295
0.0602373
0.0598382
0.0594122
0.0589948
0.0587103
0.0583935
0.058009
0.0577344
0.0574148
0.0571283
0.0568221
0.0565673
0.0562686
0.0559523
0.0556537
0.0553305
0.0550318
0.0547514
0.0545669
)
;

boundaryField
{
    inlet
    {
        type            fixedValue;
        value           uniform 0.2;
    }
    outlet
    {
        type            zeroGradient;
    }
    yzfaces
    {
        type            empty;
    }
}


// ************************************************************************* //
