/*--------------------------------*- C++ -*----------------------------------*\
| =========                 |                                                 |
| \\      /  F ield         | foam-extend: Open Source CFD                    |
|  \\    /   O peration     | Version:     5.0                                |
|   \\  /    A nd           | Web:         http://www.foam-extend.org         |
|    \\/     M anipulation  |                                                 |
\*---------------------------------------------------------------------------*/
FoamFile
{
    version     2.0;
    format      ascii;
    class       volScalarField;
    location    "10";
    object      CO2.water;
}
// * * * * * * * * * * * * * * * * * * * * * * * * * * * * * * * * * * * * * //

dimensions      [0 0 0 0 0 0 0];

internalField   nonuniform List<scalar> 
100
(
0.000807251
0.00108676
0.00130844
0.00136928
0.00148571
0.00163681
0.00177373
0.00188861
0.00195781
0.00198929
0.00201188
0.00211614
0.00220786
0.00229278
0.00235266
0.00242469
0.00246749
0.00251996
0.0025783
0.00262998
0.00267566
0.00271064
0.00275164
0.00277568
0.00281292
0.00285656
0.00289151
0.00291978
0.00294126
0.00296369
0.00297435
0.00297631
0.00299105
0.00299971
0.0030103
0.00302822
0.00305192
0.00307742
0.00309346
0.00312194
0.00315122
0.00317308
0.00319571
0.00321765
0.0032337
0.00325237
0.00326782
0.00328141
0.00329356
0.00330529
0.00332105
0.00333484
0.00335052
0.00336448
0.00337934
0.00339268
0.00340389
0.00341539
0.00342597
0.00343481
0.00344757
0.00346167
0.00347424
0.00348967
0.00350155
0.0035125
0.00352344
0.0035331
0.00354171
0.00355315
0.00356402
0.00357256
0.0035825
0.00359257
0.00360393
0.00361539
0.00362356
0.00363324
0.00364304
0.00365172
0.00366003
0.00366772
0.00367822
0.00368943
0.00370041
0.0037079
0.00371624
0.00372636
0.00373358
0.00374199
0.00374953
0.00375759
0.00376429
0.00377215
0.00378048
0.00378834
0.00379684
0.0038047
0.00381208
0.00381694
)
;

boundaryField
{
    inlet
    {
        type            fixedValue;
        value           uniform 0;
    }
    outlet
    {
        type            zeroGradient;
    }
    yzfaces
    {
        type            empty;
    }
}


// ************************************************************************* //
