/*--------------------------------*- C++ -*----------------------------------*\
| =========                 |                                                 |
| \\      /  F ield         | foam-extend: Open Source CFD                    |
|  \\    /   O peration     | Version:     5.0                                |
|   \\  /    A nd           | Web:         http://www.foam-extend.org         |
|    \\/     M anipulation  |                                                 |
\*---------------------------------------------------------------------------*/
FoamFile
{
    version     2.0;
    format      ascii;
    class       volScalarField;
    location    "10";
    object      H2O.water;
}
// * * * * * * * * * * * * * * * * * * * * * * * * * * * * * * * * * * * * * //

dimensions      [0 0 0 0 0 0 0];

internalField   nonuniform List<scalar> 
100
(
0.0183346
0.0233191
0.0276099
0.026078
0.0291048
0.0332043
0.0364627
0.0388232
0.0399749
0.0403285
0.04084
0.0445647
0.0469725
0.0491929
0.0505042
0.0526489
0.0531044
0.0545277
0.0563734
0.0576907
0.0587911
0.0594937
0.0603342
0.0605317
0.0615521
0.0626029
0.0631507
0.0633423
0.063564
0.0640273
0.0640984
0.0640016
0.0644326
0.0645939
0.0648963
0.0652046
0.0659047
0.0666512
0.0666941
0.0675845
0.0682701
0.0687152
0.0692213
0.0697145
0.0698849
0.0703717
0.0706976
0.0709712
0.071204
0.0714469
0.071887
0.0722006
0.0724549
0.0726618
0.0731277
0.0733841
0.0735206
0.0737348
0.0738798
0.0740595
0.074519
0.0747897
0.074977
0.0753207
0.0755549
0.0756555
0.0758036
0.0759409
0.0761838
0.0765101
0.076742
0.0768583
0.077029
0.0771482
0.0775026
0.0778504
0.0779293
0.0782245
0.0784717
0.0787135
0.0787359
0.0789223
0.0790959
0.0792426
0.0795107
0.0796712
0.0798426
0.0801603
0.0801588
0.0803506
0.080509
0.0807512
0.0808439
0.0810348
0.0812621
0.0814725
0.081718
0.0818326
0.0819501
0.0819542
)
;

boundaryField
{
    inlet
    {
        type            fixedValue;
        value           uniform 0;
    }
    outlet
    {
        type            zeroGradient;
    }
    yzfaces
    {
        type            empty;
    }
}


// ************************************************************************* //
