/*--------------------------------*- C++ -*----------------------------------*\
| =========                 |                                                 |
| \\      /  F ield         | foam-extend: Open Source CFD                    |
|  \\    /   O peration     | Version:     5.0                                |
|   \\  /    A nd           | Web:         http://www.foam-extend.org         |
|    \\/     M anipulation  |                                                 |
\*---------------------------------------------------------------------------*/
FoamFile
{
    version     2.0;
    format      ascii;
    class       volScalarField;
    location    "10";
    object      H2O.gas;
}
// * * * * * * * * * * * * * * * * * * * * * * * * * * * * * * * * * * * * * //

dimensions      [0 0 0 0 0 0 0];

internalField   nonuniform List<scalar> 
100
(
0.000329638
0.000308913
0.000292476
0.000287965
0.000279331
0.000268128
0.000257975
0.000249457
0.000244326
0.000241992
0.000240316
0.000232586
0.000225785
0.000219489
0.000215048
0.000209708
0.000206534
0.000202644
0.000198318
0.000194485
0.000191099
0.000188505
0.000185465
0.000183682
0.000180921
0.000177685
0.000175093
0.000172997
0.000171405
0.000169741
0.000168951
0.000168806
0.000167713
0.000167071
0.000166286
0.000164957
0.000163199
0.000161309
0.000160119
0.000158008
0.000155836
0.000154216
0.000152538
0.000150911
0.000149721
0.000148337
0.000147191
0.000146183
0.000145282
0.000144412
0.000143244
0.000142221
0.000141059
0.000140024
0.000138922
0.000137933
0.000137101
0.000136249
0.000135465
0.000134809
0.000133863
0.000132817
0.000131885
0.000130741
0.00012986
0.000129048
0.000128237
0.000127521
0.000126883
0.000126035
0.000125228
0.000124595
0.000123858
0.000123111
0.000122269
0.000121419
0.000120814
0.000120096
0.000119369
0.000118726
0.000118109
0.000117539
0.000116761
0.000115929
0.000115115
0.00011456
0.000113941
0.000113191
0.000112655
0.000112032
0.000111473
0.000110875
0.000110378
0.000109795
0.000109178
0.000108596
0.000107965
0.000107382
0.000106835
0.000106475
)
;

boundaryField
{
    inlet
    {
        type            fixedValue;
        value           uniform 0;
    }
    outlet
    {
        type            zeroGradient;
    }
    yzfaces
    {
        type            empty;
    }
}


// ************************************************************************* //
