/*--------------------------------*- C++ -*----------------------------------*\
| =========                 |                                                 |
| \\      /  F ield         | foam-extend: Open Source CFD                    |
|  \\    /   O peration     | Version:     5.0                                |
|   \\  /    A nd           | Web:         http://www.foam-extend.org         |
|    \\/     M anipulation  |                                                 |
\*---------------------------------------------------------------------------*/
FoamFile
{
    version     2.0;
    format      ascii;
    class       volScalarField;
    location    "10";
    object      H2O.water;
}
// * * * * * * * * * * * * * * * * * * * * * * * * * * * * * * * * * * * * * //

dimensions      [0 0 0 0 0 0 0];

internalField   nonuniform List<scalar> 
100
(
0.0185181
0.022877
0.0285388
0.0280691
0.0295839
0.0337996
0.0380638
0.0405236
0.0406596
0.039486
0.041041
0.0437362
0.0474784
0.0487995
0.050704
0.0521093
0.053757
0.0551779
0.0565849
0.0573083
0.0576584
0.0588271
0.0593361
0.0594572
0.0603785
0.0611661
0.0619897
0.0630724
0.0633014
0.0641979
0.0639429
0.0636097
0.0639559
0.0643026
0.0649861
0.0654938
0.0656503
0.0662631
0.066908
0.0677926
0.0681218
0.0689747
0.0689892
0.0694414
0.0698458
0.0701661
0.0704389
0.0707377
0.0708098
0.0712437
0.0715785
0.0718729
0.0722447
0.0726984
0.0729141
0.0731715
0.0736098
0.0737692
0.0740737
0.0743492
0.0744462
0.0747275
0.0749487
0.0750423
0.0754361
0.0758844
0.0761685
0.0764636
0.0765195
0.076564
0.0766151
0.076943
0.0772051
0.0774584
0.0775426
0.0777494
0.0780397
0.078172
0.0782993
0.0786062
0.0789206
0.0790068
0.079134
0.0792622
0.0796741
0.0798899
0.0799917
0.0802226
0.0802823
0.080394
0.0806073
0.0807129
0.0810086
0.0812142
0.081502
0.081594
0.0818047
0.0818283
0.0818859
0.0818893
)
;

boundaryField
{
    inlet
    {
        type            fixedValue;
        value           uniform 0;
    }
    outlet
    {
        type            zeroGradient;
    }
    yzfaces
    {
        type            empty;
    }
}


// ************************************************************************* //
