/*--------------------------------*- C++ -*----------------------------------*\
| =========                 |                                                 |
| \\      /  F ield         | foam-extend: Open Source CFD                    |
|  \\    /   O peration     | Version:     5.0                                |
|   \\  /    A nd           | Web:         http://www.foam-extend.org         |
|    \\/     M anipulation  |                                                 |
\*---------------------------------------------------------------------------*/
FoamFile
{
    version     2.0;
    format      ascii;
    class       volScalarField;
    location    "10";
    object      H2O.gas;
}
// * * * * * * * * * * * * * * * * * * * * * * * * * * * * * * * * * * * * * //

dimensions      [0 0 0 0 0 0 0];

internalField   nonuniform List<scalar> 
100
(
0.000329546
0.00030939
0.000291318
0.000285239
0.000278222
0.000267187
0.000255438
0.00024669
0.000242457
0.00024243
0.000239247
0.0002328
0.000224411
0.000219595
0.000214396
0.000210093
0.00020612
0.000202104
0.000197663
0.000194602
0.000192158
0.000188772
0.000186151
0.000184625
0.000181924
0.000179392
0.000176924
0.000173831
0.000171993
0.000169493
0.000168762
0.000168566
0.00016789
0.00016722
0.000165952
0.000164567
0.000163517
0.0001622
0.00016055
0.000158449
0.000156815
0.000154559
0.000153153
0.000151726
0.000150405
0.000148976
0.000147889
0.000146804
0.000146021
0.000144935
0.000143877
0.000142806
0.000141551
0.000140364
0.000139314
0.000138376
0.000137247
0.000136509
0.000135649
0.00013471
0.000134138
0.000133089
0.000132237
0.000131466
0.0001305
0.000129361
0.000128428
0.000127389
0.00012659
0.000125967
0.000125482
0.000124578
0.000123813
0.000122877
0.00012221
0.000121547
0.00012061
0.000119764
0.000119109
0.000118431
0.000117656
0.000117045
0.000116439
0.000115952
0.000115065
0.000114328
0.000113894
0.000113195
0.00011265
0.00011207
0.000111409
0.000110897
0.000110234
0.000109612
0.000108927
0.000108498
0.000107894
0.000107378
0.000106956
0.000106502
)
;

boundaryField
{
    inlet
    {
        type            fixedValue;
        value           uniform 0;
    }
    outlet
    {
        type            zeroGradient;
    }
    yzfaces
    {
        type            empty;
    }
}


// ************************************************************************* //
