/*--------------------------------*- C++ -*----------------------------------*\
| =========                 |                                                 |
| \\      /  F ield         | foam-extend: Open Source CFD                    |
|  \\    /   O peration     | Version:     5.0                                |
|   \\  /    A nd           | Web:         http://www.foam-extend.org         |
|    \\/     M anipulation  |                                                 |
\*---------------------------------------------------------------------------*/
FoamFile
{
    version     2.0;
    format      ascii;
    class       volScalarField;
    location    "10";
    object      Na.water;
}
// * * * * * * * * * * * * * * * * * * * * * * * * * * * * * * * * * * * * * //

dimensions      [0 0 0 0 0 0 0];

internalField   nonuniform List<scalar> 
100
(
0.00572731
0.00859156
0.0102756
0.012031
0.013031
0.0136851
0.0144883
0.015446
0.0164331
0.0170247
0.0170394
0.0173096
0.0175348
0.0180766
0.0184229
0.018791
0.0189647
0.0192591
0.0196734
0.0200713
0.0205057
0.0207747
0.0211727
0.0214905
0.0217154
0.0219555
0.0221512
0.0223864
0.0227304
0.0229018
0.0232113
0.0234195
0.0234149
0.0234092
0.0233826
0.0234764
0.0236644
0.023687
0.0237775
0.0238594
0.0241026
0.0242401
0.024584
0.0247146
0.0248395
0.0250345
0.0251683
0.0252921
0.0254599
0.0255108
0.0256066
0.0257279
0.0258551
0.0259242
0.0260821
0.0261886
0.0262549
0.0263593
0.026418
0.0265161
0.0266136
0.0267351
0.0268299
0.0269755
0.0270192
0.027083
0.0271758
0.0272898
0.0274561
0.02759
0.0276982
0.0277567
0.0278133
0.0279233
0.0280534
0.0281177
0.0282122
0.0283672
0.0284645
0.0284804
0.0285135
0.0286335
0.0287166
0.0287759
0.0287928
0.0288668
0.0289238
0.0289788
0.0290889
0.0291804
0.0292299
0.0293069
0.0293211
0.0293771
0.0294043
0.0294615
0.0295028
0.0296161
0.0296908
0.0298035
)
;

boundaryField
{
    inlet
    {
        type            fixedValue;
        value           uniform 0;
    }
    outlet
    {
        type            zeroGradient;
    }
    yzfaces
    {
        type            empty;
    }
}


// ************************************************************************* //
