/*--------------------------------*- C++ -*----------------------------------*\
| =========                 |                                                 |
| \\      /  F ield         | foam-extend: Open Source CFD                    |
|  \\    /   O peration     | Version:     5.0                                |
|   \\  /    A nd           | Web:         http://www.foam-extend.org         |
|    \\/     M anipulation  |                                                 |
\*---------------------------------------------------------------------------*/
FoamFile
{
    version     2.0;
    format      ascii;
    class       volScalarField;
    location    "10";
    object      Na.water;
}
// * * * * * * * * * * * * * * * * * * * * * * * * * * * * * * * * * * * * * //

dimensions      [0 0 0 0 0 0 0];

internalField   nonuniform List<scalar> 
100
(
0.00579654
0.00848793
0.0104529
0.01235
0.0129906
0.0137394
0.0146499
0.0155966
0.0163072
0.016716
0.0168806
0.0169487
0.0174457
0.0179108
0.0183603
0.0186213
0.019182
0.0194361
0.0195943
0.0198943
0.0201989
0.020494
0.0208334
0.0211806
0.021361
0.0216412
0.0220144
0.0224508
0.0227419
0.0229274
0.023087
0.0231659
0.0232283
0.0233027
0.0233478
0.0235231
0.0236126
0.0237065
0.0239857
0.0240702
0.0242709
0.0244545
0.024625
0.0247926
0.0250094
0.0251106
0.02524
0.0253472
0.0254466
0.0255425
0.0256126
0.0257127
0.0258732
0.0260301
0.0260743
0.0261899
0.0263337
0.0264409
0.026563
0.0266356
0.0266468
0.0267721
0.026905
0.0270218
0.0271241
0.0272771
0.0274104
0.0275229
0.027557
0.0276017
0.0276921
0.027792
0.0278898
0.0280164
0.0280532
0.028094
0.0282001
0.0282259
0.0282879
0.0283273
0.0284762
0.0285327
0.0286348
0.0287717
0.0288382
0.0288987
0.0289703
0.0290033
0.0291341
0.0291922
0.0292493
0.0292813
0.0293641
0.0294129
0.0294586
0.0295023
0.0295319
0.0296217
0.0296966
0.0297831
)
;

boundaryField
{
    inlet
    {
        type            fixedValue;
        value           uniform 0;
    }
    outlet
    {
        type            zeroGradient;
    }
    yzfaces
    {
        type            empty;
    }
}


// ************************************************************************* //
