/*--------------------------------*- C++ -*----------------------------------*\
| =========                 |                                                 |
| \\      /  F ield         | foam-extend: Open Source CFD                    |
|  \\    /   O peration     | Version:     5.0                                |
|   \\  /    A nd           | Web:         http://www.foam-extend.org         |
|    \\/     M anipulation  |                                                 |
\*---------------------------------------------------------------------------*/
FoamFile
{
    version     2.0;
    format      ascii;
    class       surfaceScalarField;
    location    "10";
    object      phi;
}
// * * * * * * * * * * * * * * * * * * * * * * * * * * * * * * * * * * * * * //

dimensions      [0 3 -1 0 0 0 0];

internalField   nonuniform List<scalar> 
99
(
1.2273e-06
1.21538e-06
1.22723e-06
1.2129e-06
1.2108e-06
1.20918e-06
1.20602e-06
1.20199e-06
1.20594e-06
1.21409e-06
1.19861e-06
1.20205e-06
1.19686e-06
1.18773e-06
1.18666e-06
1.18416e-06
1.18174e-06
1.1806e-06
1.18317e-06
1.18046e-06
1.18374e-06
1.18362e-06
1.18482e-06
1.18901e-06
1.18173e-06
1.1818e-06
1.17735e-06
1.18065e-06
1.17817e-06
1.17621e-06
1.17718e-06
1.17616e-06
1.17769e-06
1.17535e-06
1.16777e-06
1.16471e-06
1.16432e-06
1.15708e-06
1.15305e-06
1.14898e-06
1.15007e-06
1.14453e-06
1.14468e-06
1.14041e-06
1.13883e-06
1.14196e-06
1.14647e-06
1.14525e-06
1.14486e-06
1.14095e-06
1.14035e-06
1.13603e-06
1.13774e-06
1.13769e-06
1.14058e-06
1.13873e-06
1.13572e-06
1.13592e-06
1.14131e-06
1.14364e-06
1.14091e-06
1.1397e-06
1.14028e-06
1.13888e-06
1.13964e-06
1.14126e-06
1.14092e-06
1.1385e-06
1.13914e-06
1.1386e-06
1.14124e-06
1.14215e-06
1.14214e-06
1.14163e-06
1.14151e-06
1.14298e-06
1.13951e-06
1.13646e-06
1.13913e-06
1.13742e-06
1.13817e-06
1.13882e-06
1.13461e-06
1.13115e-06
1.13291e-06
1.13126e-06
1.13026e-06
1.13285e-06
1.13169e-06
1.13148e-06
1.13296e-06
1.13451e-06
1.13246e-06
1.13206e-06
1.13327e-06
1.13213e-06
1.13018e-06
1.12929e-06
1.13073e-06
)
;

boundaryField
{
    inlet
    {
        type            calculated;
        value           uniform -1.225e-06;
    }
    outlet
    {
        type            calculated;
        value           uniform 1.12655e-06;
    }
    yzfaces
    {
        type            empty;
    }
}


// ************************************************************************* //
