/*--------------------------------*- C++ -*----------------------------------*\
| =========                 |                                                 |
| \\      /  F ield         | foam-extend: Open Source CFD                    |
|  \\    /   O peration     | Version:     5.0                                |
|   \\  /    A nd           | Web:         http://www.foam-extend.org         |
|    \\/     M anipulation  |                                                 |
\*---------------------------------------------------------------------------*/
FoamFile
{
    version     2.0;
    format      ascii;
    class       surfaceScalarField;
    location    "10";
    object      phi;
}
// * * * * * * * * * * * * * * * * * * * * * * * * * * * * * * * * * * * * * //

dimensions      [0 3 -1 0 0 0 0];

internalField   nonuniform List<scalar> 
99
(
1.22701e-06
1.22591e-06
1.22049e-06
1.22647e-06
1.23129e-06
1.20905e-06
1.21371e-06
1.21307e-06
1.23495e-06
1.23825e-06
1.22476e-06
1.22042e-06
1.20947e-06
1.21183e-06
1.20727e-06
1.1997e-06
1.20413e-06
1.19898e-06
1.20702e-06
1.20992e-06
1.20909e-06
1.20942e-06
1.21066e-06
1.20035e-06
1.20683e-06
1.20839e-06
1.20357e-06
1.20815e-06
1.20275e-06
1.21089e-06
1.2133e-06
1.21858e-06
1.21558e-06
1.21038e-06
1.21187e-06
1.20857e-06
1.21223e-06
1.20644e-06
1.20516e-06
1.20788e-06
1.20639e-06
1.20639e-06
1.20722e-06
1.21194e-06
1.21001e-06
1.20938e-06
1.21244e-06
1.2115e-06
1.2082e-06
1.20798e-06
1.20597e-06
1.20335e-06
1.20756e-06
1.20614e-06
1.2065e-06
1.20824e-06
1.20709e-06
1.20361e-06
1.20779e-06
1.20828e-06
1.2081e-06
1.20957e-06
1.20947e-06
1.21105e-06
1.2095e-06
1.20821e-06
1.20628e-06
1.208e-06
1.2122e-06
1.21443e-06
1.20872e-06
1.20561e-06
1.203e-06
1.20542e-06
1.20571e-06
1.20355e-06
1.20231e-06
1.20455e-06
1.20258e-06
1.20401e-06
1.20745e-06
1.20783e-06
1.2074e-06
1.20524e-06
1.20741e-06
1.20822e-06
1.20468e-06
1.20607e-06
1.20575e-06
1.20458e-06
1.20663e-06
1.20549e-06
1.20596e-06
1.20655e-06
1.20655e-06
1.20508e-06
1.20281e-06
1.20246e-06
1.20074e-06
)
;

boundaryField
{
    inlet
    {
        type            calculated;
        value           uniform -1.225e-06;
    }
    outlet
    {
        type            calculated;
        value           uniform 1.19429e-06;
    }
    yzfaces
    {
        type            empty;
    }
}


// ************************************************************************* //
