/*--------------------------------*- C++ -*----------------------------------*\
| =========                 |                                                 |
| \\      /  F ield         | foam-extend: Open Source CFD                    |
|  \\    /   O peration     | Version:     5.0                                |
|   \\  /    A nd           | Web:         http://www.foam-extend.org         |
|    \\/     M anipulation  |                                                 |
\*---------------------------------------------------------------------------*/
FoamFile
{
    version     2.0;
    format      ascii;
    class       surfaceScalarField;
    location    "10";
    object      phi.water;
}
// * * * * * * * * * * * * * * * * * * * * * * * * * * * * * * * * * * * * * //

dimensions      [0 3 -1 0 0 0 0];

internalField   nonuniform List<scalar> 
99
(
6.38546e-08
1.01467e-07
1.50989e-07
1.67279e-07
1.84699e-07
2.15662e-07
2.63413e-07
3.05264e-07
3.34561e-07
3.31416e-07
3.40208e-07
3.69567e-07
4.18923e-07
4.49682e-07
4.83713e-07
5.12629e-07
5.44382e-07
5.74499e-07
6.17984e-07
6.47181e-07
6.68996e-07
7.04202e-07
7.33024e-07
7.41055e-07
7.73807e-07
8.03992e-07
8.29323e-07
8.73491e-07
8.9219e-07
9.36903e-07
9.4872e-07
9.5286e-07
9.60603e-07
9.65889e-07
9.82776e-07
1.00208e-06
1.0198e-06
1.03294e-06
1.0574e-06
1.09262e-06
1.11728e-06
1.15795e-06
1.18211e-06
1.21251e-06
1.23277e-06
1.26007e-06
1.28421e-06
1.30449e-06
1.31524e-06
1.33581e-06
1.3549e-06
1.37419e-06
1.40504e-06
1.4298e-06
1.45235e-06
1.47282e-06
1.49805e-06
1.51132e-06
1.53554e-06
1.55942e-06
1.57039e-06
1.59721e-06
1.61901e-06
1.63704e-06
1.66004e-06
1.68686e-06
1.70778e-06
1.73868e-06
1.76563e-06
1.78593e-06
1.78801e-06
1.80883e-06
1.82611e-06
1.85555e-06
1.87515e-06
1.88944e-06
1.91483e-06
1.94254e-06
1.95826e-06
1.98218e-06
2.0112e-06
2.02895e-06
2.04707e-06
2.05825e-06
2.08964e-06
2.11439e-06
2.12115e-06
2.14763e-06
2.16522e-06
2.18179e-06
2.20762e-06
2.2216e-06
2.24586e-06
2.2666e-06
2.29168e-06
2.30207e-06
2.31866e-06
2.33538e-06
2.34702e-06
)
;

boundaryField
{
    inlet
    {
        type            fixedValue;
        value           uniform 0;
    }
    outlet
    {
        type            calculated;
        value           uniform 2.35336e-06;
    }
    yzfaces
    {
        type            empty;
    }
}


// ************************************************************************* //
