/*--------------------------------*- C++ -*----------------------------------*\
| =========                 |                                                 |
| \\      /  F ield         | foam-extend: Open Source CFD                    |
|  \\    /   O peration     | Version:     5.0                                |
|   \\  /    A nd           | Web:         http://www.foam-extend.org         |
|    \\/     M anipulation  |                                                 |
\*---------------------------------------------------------------------------*/
FoamFile
{
    version     2.0;
    format      ascii;
    class       volVectorField;
    location    "10";
    object      U.gas;
}
// * * * * * * * * * * * * * * * * * * * * * * * * * * * * * * * * * * * * * //

dimensions      [0 1 -1 0 0 0 0];

internalField   nonuniform List<vector> 
100
(
(0.00590793 0 0)
(0.00626748 0 0)
(0.00660509 0 0)
(0.00669114 0 0)
(0.00684258 0 0)
(0.00710159 0 0)
(0.00734502 0 0)
(0.00754981 0 0)
(0.00768814 0 0)
(0.00778897 0 0)
(0.00781246 0 0)
(0.00801318 0 0)
(0.00821664 0 0)
(0.0083683 0 0)
(0.0084737 0 0)
(0.00864466 0 0)
(0.00872875 0 0)
(0.00885526 0 0)
(0.00901875 0 0)
(0.0091573 0 0)
(0.00928458 0 0)
(0.00939179 0 0)
(0.00951676 0 0)
(0.00960052 0 0)
(0.00970336 0 0)
(0.00980703 0 0)
(0.00988929 0 0)
(0.0099668 0 0)
(0.0100318 0 0)
(0.010082 0 0)
(0.0101034 0 0)
(0.0101026 0 0)
(0.0101573 0 0)
(0.0101761 0 0)
(0.0101673 0 0)
(0.0101819 0 0)
(0.0102447 0 0)
(0.0102921 0 0)
(0.0102846 0 0)
(0.0103469 0 0)
(0.0104255 0 0)
(0.0104669 0 0)
(0.0105135 0 0)
(0.0105621 0 0)
(0.0105782 0 0)
(0.0106462 0 0)
(0.0107265 0 0)
(0.0107822 0 0)
(0.0108114 0 0)
(0.0108276 0 0)
(0.0108604 0 0)
(0.0108765 0 0)
(0.0109133 0 0)
(0.0109626 0 0)
(0.0110237 0 0)
(0.0110662 0 0)
(0.0110729 0 0)
(0.0110947 0 0)
(0.011153 0 0)
(0.0112155 0 0)
(0.0112574 0 0)
(0.0112823 0 0)
(0.0113158 0 0)
(0.0113616 0 0)
(0.0113857 0 0)
(0.0114283 0 0)
(0.0114669 0 0)
(0.0114787 0 0)
(0.0114924 0 0)
(0.0115298 0 0)
(0.0115705 0 0)
(0.0116099 0 0)
(0.0116449 0 0)
(0.0116677 0 0)
(0.0116979 0 0)
(0.0117382 0 0)
(0.0117427 0 0)
(0.011737 0 0)
(0.0117608 0 0)
(0.0117863 0 0)
(0.0118013 0 0)
(0.011826 0 0)
(0.0118422 0 0)
(0.0118312 0 0)
(0.0118475 0 0)
(0.0118574 0 0)
(0.0118653 0 0)
(0.0119013 0 0)
(0.0119179 0 0)
(0.0119329 0 0)
(0.0119519 0 0)
(0.0119863 0 0)
(0.0119949 0 0)
(0.0120014 0 0)
(0.0120241 0 0)
(0.01204 0 0)
(0.0120427 0 0)
(0.0120393 0 0)
(0.0120542 0 0)
(0.0120352 0 0)
)
;

boundaryField
{
    inlet
    {
        type            fixedValue;
        value           uniform (0.005 0 0);
    }
    outlet
    {
        type            zeroGradient;
    }
    yzfaces
    {
        type            empty;
    }
}


// ************************************************************************* //
