/*--------------------------------*- C++ -*----------------------------------*\
| =========                 |                                                 |
| \\      /  F ield         | foam-extend: Open Source CFD                    |
|  \\    /   O peration     | Version:     5.0                                |
|   \\  /    A nd           | Web:         http://www.foam-extend.org         |
|    \\/     M anipulation  |                                                 |
\*---------------------------------------------------------------------------*/
FoamFile
{
    version     2.0;
    format      ascii;
    class       volVectorField;
    location    "10";
    object      U.gas;
}
// * * * * * * * * * * * * * * * * * * * * * * * * * * * * * * * * * * * * * //

dimensions      [0 1 -1 0 0 0 0];

internalField   nonuniform List<vector> 
100
(
(0.00590885 0 0)
(0.0062842 0 0)
(0.00664111 0 0)
(0.0067714 0 0)
(0.00696378 0 0)
(0.00718482 0 0)
(0.00743685 0 0)
(0.0076862 0 0)
(0.00786867 0 0)
(0.00794357 0 0)
(0.00801006 0 0)
(0.00815305 0 0)
(0.00837104 0 0)
(0.00848985 0 0)
(0.00865784 0 0)
(0.00875943 0 0)
(0.00888624 0 0)
(0.00902792 0 0)
(0.00920416 0 0)
(0.00935577 0 0)
(0.00945413 0 0)
(0.0095885 0 0)
(0.0096939 0 0)
(0.00971143 0 0)
(0.00981212 0 0)
(0.00994726 0 0)
(0.0100344 0 0)
(0.0101669 0 0)
(0.0102303 0 0)
(0.0103532 0 0)
(0.0104131 0 0)
(0.01045 0 0)
(0.0104935 0 0)
(0.0104858 0 0)
(0.0105304 0 0)
(0.010584 0 0)
(0.0106271 0 0)
(0.0106781 0 0)
(0.0107225 0 0)
(0.0108266 0 0)
(0.0108985 0 0)
(0.0109983 0 0)
(0.0110532 0 0)
(0.0111425 0 0)
(0.011213 0 0)
(0.0112667 0 0)
(0.0113206 0 0)
(0.0113784 0 0)
(0.011388 0 0)
(0.011425 0 0)
(0.0114609 0 0)
(0.0114854 0 0)
(0.0115515 0 0)
(0.0116158 0 0)
(0.0116538 0 0)
(0.011704 0 0)
(0.0117605 0 0)
(0.0117604 0 0)
(0.0118034 0 0)
(0.0118688 0 0)
(0.0118863 0 0)
(0.0119497 0 0)
(0.0119876 0 0)
(0.0120258 0 0)
(0.012072 0 0)
(0.0121095 0 0)
(0.0121273 0 0)
(0.0121718 0 0)
(0.0122284 0 0)
(0.0122806 0 0)
(0.0122778 0 0)
(0.0122816 0 0)
(0.0122789 0 0)
(0.012321 0 0)
(0.0123525 0 0)
(0.0123672 0 0)
(0.0123942 0 0)
(0.0124291 0 0)
(0.0124497 0 0)
(0.0124716 0 0)
(0.0125275 0 0)
(0.0125649 0 0)
(0.0125868 0 0)
(0.0125848 0 0)
(0.0126305 0 0)
(0.0126668 0 0)
(0.0126548 0 0)
(0.0126761 0 0)
(0.0126922 0 0)
(0.0127035 0 0)
(0.0127325 0 0)
(0.0127471 0 0)
(0.0127695 0 0)
(0.0127925 0 0)
(0.0128184 0 0)
(0.0128105 0 0)
(0.0128166 0 0)
(0.0128139 0 0)
(0.0128096 0 0)
(0.0127775 0 0)
)
;

boundaryField
{
    inlet
    {
        type            fixedValue;
        value           uniform (0.005 0 0);
    }
    outlet
    {
        type            zeroGradient;
    }
    yzfaces
    {
        type            empty;
    }
}


// ************************************************************************* //
