/*--------------------------------*- C++ -*----------------------------------*\
| =========                 |                                                 |
| \\      /  F ield         | foam-extend: Open Source CFD                    |
|  \\    /   O peration     | Version:     5.0                                |
|   \\  /    A nd           | Web:         http://www.foam-extend.org         |
|    \\/     M anipulation  |                                                 |
\*---------------------------------------------------------------------------*/
FoamFile
{
    version     2.0;
    format      ascii;
    class       volVectorField;
    location    "10";
    object      U.water;
}
// * * * * * * * * * * * * * * * * * * * * * * * * * * * * * * * * * * * * * //

dimensions      [0 1 -1 0 0 0 0];

internalField   nonuniform List<vector> 
100
(
(3.04406e-05 0 0)
(6.88316e-05 0 0)
(0.000100707 0 0)
(0.000126255 0 0)
(0.0001382 0 0)
(0.00016052 0 0)
(0.000189913 0 0)
(0.000219536 0 0)
(0.000245386 0 0)
(0.000262933 0 0)
(0.000270565 0 0)
(0.000283603 0 0)
(0.000315591 0 0)
(0.000345473 0 0)
(0.000373266 0 0)
(0.000398682 0 0)
(0.000425391 0 0)
(0.000445944 0 0)
(0.00047262 0 0)
(0.000501803 0 0)
(0.000529214 0 0)
(0.000554175 0 0)
(0.000576459 0 0)
(0.000599989 0 0)
(0.000618142 0 0)
(0.000642911 0 0)
(0.000670247 0 0)
(0.000693352 0 0)
(0.000712969 0 0)
(0.00072865 0 0)
(0.00074227 0 0)
(0.000748842 0 0)
(0.000755369 0 0)
(0.000765468 0 0)
(0.000769815 0 0)
(0.000777068 0 0)
(0.000792711 0 0)
(0.000810957 0 0)
(0.000826298 0 0)
(0.000842203 0 0)
(0.000868029 0 0)
(0.000891659 0 0)
(0.000911361 0 0)
(0.000932385 0 0)
(0.000950777 0 0)
(0.000969269 0 0)
(0.000991287 0 0)
(0.00100891 0 0)
(0.00102234 0 0)
(0.00103357 0 0)
(0.00104645 0 0)
(0.00106196 0 0)
(0.0010786 0 0)
(0.00109703 0 0)
(0.00111556 0 0)
(0.00113455 0 0)
(0.00114827 0 0)
(0.00116114 0 0)
(0.00117823 0 0)
(0.00119489 0 0)
(0.00120881 0 0)
(0.00122466 0 0)
(0.00124195 0 0)
(0.0012608 0 0)
(0.00128106 0 0)
(0.00129874 0 0)
(0.00131517 0 0)
(0.00132876 0 0)
(0.00134145 0 0)
(0.00135653 0 0)
(0.00137461 0 0)
(0.0013911 0 0)
(0.00140583 0 0)
(0.00142242 0 0)
(0.00143903 0 0)
(0.00145732 0 0)
(0.0014725 0 0)
(0.00148318 0 0)
(0.00149915 0 0)
(0.00151518 0 0)
(0.00152917 0 0)
(0.00154409 0 0)
(0.00155617 0 0)
(0.00156979 0 0)
(0.00158851 0 0)
(0.00160539 0 0)
(0.00161748 0 0)
(0.00163516 0 0)
(0.00165234 0 0)
(0.00166542 0 0)
(0.0016821 0 0)
(0.00169909 0 0)
(0.00171259 0 0)
(0.00172447 0 0)
(0.00174058 0 0)
(0.00175595 0 0)
(0.00176923 0 0)
(0.00178374 0 0)
(0.00179951 0 0)
(0.001812 0 0)
)
;

boundaryField
{
    inlet
    {
        type            fixedValue;
        value           uniform (0 0 0);
    }
    outlet
    {
        type            zeroGradient;
    }
    yzfaces
    {
        type            empty;
    }
}


// ************************************************************************* //
