/*--------------------------------*- C++ -*----------------------------------*\
| =========                 |                                                 |
| \\      /  F ield         | foam-extend: Open Source CFD                    |
|  \\    /   O peration     | Version:     5.0                                |
|   \\  /    A nd           | Web:         http://www.foam-extend.org         |
|    \\/     M anipulation  |                                                 |
\*---------------------------------------------------------------------------*/
FoamFile
{
    version     2.0;
    format      ascii;
    class       volVectorField;
    location    "10";
    object      U.water;
}
// * * * * * * * * * * * * * * * * * * * * * * * * * * * * * * * * * * * * * //

dimensions      [0 1 -1 0 0 0 0];

internalField   nonuniform List<vector> 
100
(
(3.04689e-05 0 0)
(6.89214e-05 0 0)
(0.000101153 0 0)
(0.000130333 0 0)
(0.000145266 0 0)
(0.00016439 0 0)
(0.000195191 0 0)
(0.000230429 0 0)
(0.000258985 0 0)
(0.00027304 0 0)
(0.000275791 0 0)
(0.000291082 0 0)
(0.000320649 0 0)
(0.000355097 0 0)
(0.000380942 0 0)
(0.000406777 0 0)
(0.000431558 0 0)
(0.000456916 0 0)
(0.000485696 0 0)
(0.000515876 0 0)
(0.000537925 0 0)
(0.000560012 0 0)
(0.000586023 0 0)
(0.000602848 0 0)
(0.000618415 0 0)
(0.000644302 0 0)
(0.000667599 0 0)
(0.000694295 0 0)
(0.000721169 0 0)
(0.000744408 0 0)
(0.00076844 0 0)
(0.000776556 0 0)
(0.000781264 0 0)
(0.000787022 0 0)
(0.000795713 0 0)
(0.000809963 0 0)
(0.000825546 0 0)
(0.000838479 0 0)
(0.000853758 0 0)
(0.000876976 0 0)
(0.000902602 0 0)
(0.000927896 0 0)
(0.000955036 0 0)
(0.000977198 0 0)
(0.00099832 0 0)
(0.00101724 0 0)
(0.0010384 0 0)
(0.00105635 0 0)
(0.00106989 0 0)
(0.00108236 0 0)
(0.00109867 0 0)
(0.00111455 0 0)
(0.00113443 0 0)
(0.00115674 0 0)
(0.00117609 0 0)
(0.00119423 0 0)
(0.00121237 0 0)
(0.00122869 0 0)
(0.00124357 0 0)
(0.0012625 0 0)
(0.00127798 0 0)
(0.00129246 0 0)
(0.00131251 0 0)
(0.00132955 0 0)
(0.00134626 0 0)
(0.00136584 0 0)
(0.00138568 0 0)
(0.00140601 0 0)
(0.00142936 0 0)
(0.00144934 0 0)
(0.00146012 0 0)
(0.00146873 0 0)
(0.00148401 0 0)
(0.00150197 0 0)
(0.00152264 0 0)
(0.00153719 0 0)
(0.00155278 0 0)
(0.00157425 0 0)
(0.00159226 0 0)
(0.00160825 0 0)
(0.00162927 0 0)
(0.00164881 0 0)
(0.00166357 0 0)
(0.00167634 0 0)
(0.00169244 0 0)
(0.00171528 0 0)
(0.00172959 0 0)
(0.00174231 0 0)
(0.00176038 0 0)
(0.00177438 0 0)
(0.00179127 0 0)
(0.00180811 0 0)
(0.00182334 0 0)
(0.00184168 0 0)
(0.00186008 0 0)
(0.00187566 0 0)
(0.00188621 0 0)
(0.00189985 0 0)
(0.00191198 0 0)
(0.0019186 0 0)
)
;

boundaryField
{
    inlet
    {
        type            fixedValue;
        value           uniform (0 0 0);
    }
    outlet
    {
        type            zeroGradient;
    }
    yzfaces
    {
        type            empty;
    }
}


// ************************************************************************* //
