/*--------------------------------*- C++ -*----------------------------------*\
| =========                 |                                                 |
| \\      /  F ield         | foam-extend: Open Source CFD                    |
|  \\    /   O peration     | Version:     5.0                                |
|   \\  /    A nd           | Web:         http://www.foam-extend.org         |
|    \\/     M anipulation  |                                                 |
\*---------------------------------------------------------------------------*/
FoamFile
{
    version     2.0;
    format      ascii;
    class       volScalarField;
    location    "4";
    object      alpha.gas;
}
// * * * * * * * * * * * * * * * * * * * * * * * * * * * * * * * * * * * * * //

dimensions      [0 0 0 0 0 0 0];

internalField   nonuniform List<scalar> 
100
(
0.152394
0.13929
0.127709
0.119315
0.113239
0.106624
0.102487
0.098457
0.0949908
0.0920117
0.0893598
0.0868728
0.0847302
0.0827256
0.0807639
0.0788876
0.0768267
0.0750241
0.0733989
0.0719053
0.0703518
0.0689868
0.0674551
0.0661057
0.0647693
0.063453
0.0620459
0.0605754
0.0589757
0.0573907
0.0552878
0.0532489
0.0502962
0.0468071
0.0414314
0.0322848
0.0122471
0.0274379
0.0267704
0.0265757
0.0266193
0.0267722
0.0269597
0.0271373
0.0272664
0.0273434
0.0273872
0.0273825
0.0273341
0.0272516
0.0271362
0.0269743
0.0267903
0.0265618
0.0262793
0.0259502
0.0255751
0.0251243
0.0245785
0.0239299
0.0231667
0.0222667
0.021211
0.0200228
0.0187096
0.017316
0.0159
0.0145437
0.0133359
0.0123378
0.0115713
0.0110207
0.0106484
0.0104038
0.0102459
0.0101493
0.0100894
0.0100501
0.0100309
0.0100177
0.010008
0.0100034
0.00999978
0.00999974
0.0099968
0.00999658
0.00999563
0.00999453
0.0099944
0.00999657
0.00999683
0.00999744
0.00999978
0.00999859
0.00999854
0.00999752
0.00999708
0.00999867
0.00999853
0.0100001
)
;

boundaryField
{
    inlet
    {
        type            fixedValue;
        value           uniform 0.2;
    }
    outlet
    {
        type            zeroGradient;
    }
    yzfaces
    {
        type            empty;
    }
}


// ************************************************************************* //
