/*--------------------------------*- C++ -*----------------------------------*\
| =========                 |                                                 |
| \\      /  F ield         | foam-extend: Open Source CFD                    |
|  \\    /   O peration     | Version:     5.0                                |
|   \\  /    A nd           | Web:         http://www.foam-extend.org         |
|    \\/     M anipulation  |                                                 |
\*---------------------------------------------------------------------------*/
FoamFile
{
    version     2.0;
    format      ascii;
    class       volScalarField;
    location    "4";
    object      Cl.water;
}
// * * * * * * * * * * * * * * * * * * * * * * * * * * * * * * * * * * * * * //

dimensions      [0 0 0 0 0 0 0];

internalField   nonuniform List<scalar> 
100
(
0.00546115
0.00696567
0.00829481
0.0092506
0.00994157
0.0107147
0.0111908
0.0116063
0.012003
0.0123463
0.0126538
0.0129733
0.0132279
0.0134647
0.0136914
0.0138646
0.0141016
0.0142979
0.0144833
0.0146893
0.0148581
0.0150367
0.015165
0.0153597
0.015508
0.0156651
0.0158171
0.01601
0.0161841
0.016362
0.01661
0.0168361
0.0171856
0.0175665
0.0181835
0.0192024
0.0214475
0.0206546
0.020889
0.0209571
0.0209773
0.0209699
0.0209427
0.0209284
0.0208952
0.0208911
0.0208969
0.0208832
0.0208887
0.0208876
0.0209254
0.0209315
0.0209533
0.0209889
0.0210229
0.0210762
0.0211184
0.0211799
0.0212301
0.0213155
0.0213952
0.0215014
0.0216204
0.0217831
0.021938
0.0220965
0.0222668
0.0224678
0.0225865
0.0227197
0.0228136
0.0228802
0.0229368
0.0229581
0.0229736
0.0229906
0.0230192
0.0230273
0.0230101
0.0230125
0.0230151
0.0229923
0.0230033
0.0229867
0.022972
0.0229596
0.0229748
0.02299
0.0229725
0.0229709
0.0229933
0.022967
0.0229798
0.0229771
0.022988
0.0230115
0.0230036
0.0230057
0.0229986
0.0230001
)
;

boundaryField
{
    inlet
    {
        type            fixedValue;
        value           uniform 0;
    }
    outlet
    {
        type            zeroGradient;
    }
    yzfaces
    {
        type            empty;
    }
}


// ************************************************************************* //
