/*--------------------------------*- C++ -*----------------------------------*\
| =========                 |                                                 |
| \\      /  F ield         | foam-extend: Open Source CFD                    |
|  \\    /   O peration     | Version:     5.0                                |
|   \\  /    A nd           | Web:         http://www.foam-extend.org         |
|    \\/     M anipulation  |                                                 |
\*---------------------------------------------------------------------------*/
FoamFile
{
    version     2.0;
    format      ascii;
    class       volScalarField;
    location    "4";
    object      H2O.gas;
}
// * * * * * * * * * * * * * * * * * * * * * * * * * * * * * * * * * * * * * //

dimensions      [0 0 0 0 0 0 0];

internalField   nonuniform List<scalar> 
100
(
7.57266e-05
0.000271264
0.000248709
0.000232363
0.00022053
0.000206237
0.000198425
0.000188994
0.000182908
0.000175977
0.000169456
0.000163019
0.00015958
0.000161106
0.000157285
0.000143021
0.000135172
0.000129585
0.000125364
0.000122552
0.00012023
0.000119066
0.000117751
0.00012014
0.000119988
0.000119091
0.000117472
0.000117969
0.000114017
0.000111767
0.000107671
0.000103701
9.79503e-05
9.11554e-05
8.06865e-05
6.28738e-05
2.38509e-05
0.000949829
0.00163079
0.00242463
0.00333423
0.0043553
0.00548241
0.0067148
0.00801717
0.00938907
0.0108079
0.0122212
0.013623
0.0149898
0.0163166
0.0175245
0.0186467
0.0196466
0.0204838
0.0211858
0.0217086
0.0220594
0.0221754
0.0221103
0.0218123
0.0213013
0.020537
0.0195915
0.0184457
0.0171564
0.0158057
0.0145143
0.0133143
0.0123331
0.011572
0.0110258
0.0106594
0.0104067
0.0102482
0.0101512
0.0100996
0.0100643
0.0100359
0.0100252
0.0100177
0.0100027
0.0100026
0.00999666
0.00998775
0.00998244
0.00998817
0.00999534
0.00998696
0.00998896
0.00999844
0.00998895
0.00999721
0.00999792
0.0100014
0.010008
0.0100034
0.0100056
0.010004
0.0100023
)
;

boundaryField
{
    inlet
    {
        type            fixedValue;
        value           uniform 0;
    }
    outlet
    {
        type            zeroGradient;
    }
    yzfaces
    {
        type            empty;
    }
}


// ************************************************************************* //
