/*--------------------------------*- C++ -*----------------------------------*\
| =========                 |                                                 |
| \\      /  F ield         | foam-extend: Open Source CFD                    |
|  \\    /   O peration     | Version:     5.0                                |
|   \\  /    A nd           | Web:         http://www.foam-extend.org         |
|    \\/     M anipulation  |                                                 |
\*---------------------------------------------------------------------------*/
FoamFile
{
    version     2.0;
    format      ascii;
    class       surfaceScalarField;
    location    "4";
    object      phi;
}
// * * * * * * * * * * * * * * * * * * * * * * * * * * * * * * * * * * * * * //

dimensions      [0 3 -1 0 0 0 0];

internalField   nonuniform List<scalar> 
99
(
1.22943e-06
1.24271e-06
1.22978e-06
1.23408e-06
1.2294e-06
1.22734e-06
1.22275e-06
1.22308e-06
1.22779e-06
1.23708e-06
1.24031e-06
1.24045e-06
1.23634e-06
1.23022e-06
1.22727e-06
1.22053e-06
1.21469e-06
1.2178e-06
1.22161e-06
1.22362e-06
1.2243e-06
1.22308e-06
1.22432e-06
1.22259e-06
1.22444e-06
1.22603e-06
1.22598e-06
1.22627e-06
1.22496e-06
1.21946e-06
1.22102e-06
1.21866e-06
1.22162e-06
1.22133e-06
1.22197e-06
1.21964e-06
1.22159e-06
1.22294e-06
1.22282e-06
1.2227e-06
1.22007e-06
1.22002e-06
1.21983e-06
1.21683e-06
1.2157e-06
1.2178e-06
1.21874e-06
1.21785e-06
1.21968e-06
1.21917e-06
1.21826e-06
1.21795e-06
1.21776e-06
1.21791e-06
1.21799e-06
1.21729e-06
1.21801e-06
1.21782e-06
1.21863e-06
1.21969e-06
1.21925e-06
1.21724e-06
1.21828e-06
1.21893e-06
1.21896e-06
1.21879e-06
1.21933e-06
1.21938e-06
1.22038e-06
1.21941e-06
1.21909e-06
1.2193e-06
1.21976e-06
1.21974e-06
1.21927e-06
1.22161e-06
1.22155e-06
1.22033e-06
1.22072e-06
1.21999e-06
1.21929e-06
1.21901e-06
1.22006e-06
1.21906e-06
1.21698e-06
1.21777e-06
1.22065e-06
1.21867e-06
1.21928e-06
1.22153e-06
1.21991e-06
1.2222e-06
1.22204e-06
1.22235e-06
1.22339e-06
1.22343e-06
1.22382e-06
1.22438e-06
1.22464e-06
)
;

boundaryField
{
    inlet
    {
        type            calculated;
        value           uniform -1.225e-06;
    }
    outlet
    {
        type            calculated;
        value           uniform 1.2234e-06;
    }
    yzfaces
    {
        type            empty;
    }
}


// ************************************************************************* //
