/*--------------------------------*- C++ -*----------------------------------*\
| =========                 |                                                 |
| \\      /  F ield         | foam-extend: Open Source CFD                    |
|  \\    /   O peration     | Version:     5.0                                |
|   \\  /    A nd           | Web:         http://www.foam-extend.org         |
|    \\/     M anipulation  |                                                 |
\*---------------------------------------------------------------------------*/
FoamFile
{
    version     2.0;
    format      ascii;
    class       volVectorField;
    location    "4";
    object      U.gas;
}
// * * * * * * * * * * * * * * * * * * * * * * * * * * * * * * * * * * * * * //

dimensions      [0 1 -1 0 0 0 0];

internalField   nonuniform List<vector> 
100
(
(0.00655563 0 0)
(0.00714445 0 0)
(0.00778307 0 0)
(0.0082188 0 0)
(0.00861998 0 0)
(0.0090572 0 0)
(0.00931539 0 0)
(0.00960234 0 0)
(0.00988933 0 0)
(0.0101827 0 0)
(0.0104512 0 0)
(0.0106763 0 0)
(0.0108395 0 0)
(0.0109602 0 0)
(0.0110974 0 0)
(0.0112206 0 0)
(0.01135 0 0)
(0.0114892 0 0)
(0.0116601 0 0)
(0.0118159 0 0)
(0.0119691 0 0)
(0.0120778 0 0)
(0.0122175 0 0)
(0.0123207 0 0)
(0.0124312 0 0)
(0.0125557 0 0)
(0.0126817 0 0)
(0.0127961 0 0)
(0.0129249 0 0)
(0.0130048 0 0)
(0.0131349 0 0)
(0.0132729 0 0)
(0.0134783 0 0)
(0.0137022 0 0)
(0.0140334 0 0)
(0.0145142 0 0)
(0.0126557 0 0)
(0.011722 0 0)
(0.0112565 0 0)
(0.0110473 0 0)
(0.0109684 0 0)
(0.0109594 0 0)
(0.0109954 0 0)
(0.0110295 0 0)
(0.011058 0 0)
(0.0110977 0 0)
(0.0111325 0 0)
(0.0111489 0 0)
(0.0111572 0 0)
(0.0111548 0 0)
(0.0111298 0 0)
(0.011099 0 0)
(0.011057 0 0)
(0.0110133 0 0)
(0.0109609 0 0)
(0.0108854 0 0)
(0.0107989 0 0)
(0.0107056 0 0)
(0.0105856 0 0)
(0.0104385 0 0)
(0.010254 0 0)
(0.0100144 0 0)
(0.00972452 0 0)
(0.00937522 0 0)
(0.00895447 0 0)
(0.00845783 0 0)
(0.00790272 0 0)
(0.00731319 0 0)
(0.00672488 0 0)
(0.00617915 0 0)
(0.00571633 0 0)
(0.00535956 0 0)
(0.00510318 0 0)
(0.00493113 0 0)
(0.00481622 0 0)
(0.00474543 0 0)
(0.00470507 0 0)
(0.00467545 0 0)
(0.00465483 0 0)
(0.00464479 0 0)
(0.00463673 0 0)
(0.00463049 0 0)
(0.00462996 0 0)
(0.00462855 0 0)
(0.00462289 0 0)
(0.00461897 0 0)
(0.00462503 0 0)
(0.0046258 0 0)
(0.00462307 0 0)
(0.00462837 0 0)
(0.00463006 0 0)
(0.00463185 0 0)
(0.00463676 0 0)
(0.00463775 0 0)
(0.00463972 0 0)
(0.00464198 0 0)
(0.0046424 0 0)
(0.00464402 0 0)
(0.00464618 0 0)
(0.00464355 0 0)
)
;

boundaryField
{
    inlet
    {
        type            fixedValue;
        value           uniform (0.005 0 0);
    }
    outlet
    {
        type            zeroGradient;
    }
    yzfaces
    {
        type            empty;
    }
}


// ************************************************************************* //
