/*--------------------------------*- C++ -*----------------------------------*\
| =========                 |                                                 |
| \\      /  F ield         | foam-extend: Open Source CFD                    |
|  \\    /   O peration     | Version:     5.0                                |
|   \\  /    A nd           | Web:         http://www.foam-extend.org         |
|    \\/     M anipulation  |                                                 |
\*---------------------------------------------------------------------------*/
FoamFile
{
    version     2.0;
    format      ascii;
    class       volVectorField;
    location    "4";
    object      U.water;
}
// * * * * * * * * * * * * * * * * * * * * * * * * * * * * * * * * * * * * * //

dimensions      [0 1 -1 0 0 0 0];

internalField   nonuniform List<vector> 
100
(
(5.81704e-05 0 0)
(0.000133141 0 0)
(0.000195635 0 0)
(0.000266944 0 0)
(0.000330422 0 0)
(0.000396662 0 0)
(0.000464872 0 0)
(0.000520785 0 0)
(0.000580506 0 0)
(0.000640305 0 0)
(0.000698297 0 0)
(0.000752042 0 0)
(0.000802491 0 0)
(0.000847734 0 0)
(0.000893061 0 0)
(0.000940753 0 0)
(0.000990362 0 0)
(0.00104732 0 0)
(0.00110456 0 0)
(0.00115872 0 0)
(0.00121174 0 0)
(0.00126494 0 0)
(0.00131886 0 0)
(0.00137624 0 0)
(0.00143183 0 0)
(0.00149032 0 0)
(0.00155105 0 0)
(0.00161685 0 0)
(0.00168942 0 0)
(0.00176691 0 0)
(0.00185779 0 0)
(0.00197043 0 0)
(0.0021135 0 0)
(0.00231105 0 0)
(0.00260338 0 0)
(0.00312328 0 0)
(0.00367827 0 0)
(0.00391822 0 0)
(0.00402314 0 0)
(0.00406276 0 0)
(0.00406664 0 0)
(0.00405563 0 0)
(0.00404198 0 0)
(0.00402194 0 0)
(0.00400246 0 0)
(0.00399532 0 0)
(0.00399517 0 0)
(0.00399289 0 0)
(0.00399581 0 0)
(0.00400272 0 0)
(0.00400805 0 0)
(0.00401666 0 0)
(0.0040295 0 0)
(0.00404533 0 0)
(0.00406513 0 0)
(0.00408797 0 0)
(0.00411532 0 0)
(0.0041472 0 0)
(0.00418589 0 0)
(0.00423378 0 0)
(0.00428616 0 0)
(0.00434076 0 0)
(0.00440643 0 0)
(0.00448424 0 0)
(0.00456463 0 0)
(0.00464486 0 0)
(0.00472295 0 0)
(0.00479373 0 0)
(0.00485438 0 0)
(0.00490028 0 0)
(0.00493111 0 0)
(0.00495397 0 0)
(0.00497063 0 0)
(0.00498119 0 0)
(0.00498629 0 0)
(0.00499401 0 0)
(0.00500098 0 0)
(0.00499972 0 0)
(0.004999 0 0)
(0.00499879 0 0)
(0.00499611 0 0)
(0.00499432 0 0)
(0.00499599 0 0)
(0.00499617 0 0)
(0.00498984 0 0)
(0.00498727 0 0)
(0.00499483 0 0)
(0.00499674 0 0)
(0.00499396 0 0)
(0.00499983 0 0)
(0.00500109 0 0)
(0.00500242 0 0)
(0.00500674 0 0)
(0.00500702 0 0)
(0.0050098 0 0)
(0.005012 0 0)
(0.00501291 0 0)
(0.00501486 0 0)
(0.0050165 0 0)
(0.00501454 0 0)
)
;

boundaryField
{
    inlet
    {
        type            fixedValue;
        value           uniform (0 0 0);
    }
    outlet
    {
        type            zeroGradient;
    }
    yzfaces
    {
        type            empty;
    }
}


// ************************************************************************* //
