/*--------------------------------*- C++ -*----------------------------------*\
| =========                 |                                                 |
| \\      /  F ield         | foam-extend: Open Source CFD                    |
|  \\    /   O peration     | Version:     5.0                                |
|   \\  /    A nd           | Web:         http://www.foam-extend.org         |
|    \\/     M anipulation  |                                                 |
\*---------------------------------------------------------------------------*/
FoamFile
{
    version     2.0;
    format      ascii;
    class       volScalarField;
    location    "8.13883";
    object      CO2.water;
}
// * * * * * * * * * * * * * * * * * * * * * * * * * * * * * * * * * * * * * //

dimensions      [0 0 0 0 0 0 0];

internalField   nonuniform List<scalar> 
100
(
6.39147e-05
1.12205e-05
1.60047e-06
2.05466e-07
2.47037e-08
2.8376e-09
3.1487e-10
3.3992e-11
3.58806e-12
3.71639e-13
3.78728e-14
3.80457e-15
3.77337e-16
3.69973e-17
3.59019e-18
3.45068e-19
3.28722e-20
3.106e-21
2.91277e-22
2.71182e-23
2.50761e-24
2.30449e-25
2.10489e-26
1.91124e-27
1.72625e-28
1.55077e-29
1.38605e-30
1.23296e-31
1.09156e-32
9.62106e-34
8.44298e-35
7.37836e-36
6.4222e-37
5.56877e-38
4.80982e-39
4.13918e-40
3.54888e-41
3.03222e-42
2.58214e-43
2.19148e-44
1.85397e-45
1.56332e-46
1.31443e-47
1.10172e-48
9.20832e-50
7.67404e-51
6.37738e-52
5.28466e-53
4.3673e-54
3.60068e-55
2.96052e-56
2.42823e-57
1.98658e-58
1.62152e-59
1.32019e-60
1.07234e-61
8.69059e-63
7.02709e-64
5.66858e-65
4.56313e-66
3.66521e-67
2.9374e-68
2.3496e-69
1.87549e-70
1.49414e-71
1.18787e-72
9.42735e-74
7.46705e-75
5.90336e-76
4.65856e-77
3.66994e-78
2.88548e-79
2.26472e-80
1.77441e-81
1.38799e-82
1.08374e-83
8.44821e-85
6.57347e-86
5.10703e-87
3.96093e-88
3.06741e-89
2.37145e-90
1.83035e-91
1.41055e-92
1.08532e-93
8.33765e-95
6.39512e-96
4.89761e-97
3.74548e-98
2.86029e-99
2.18082e-100
1.66072e-101
1.26268e-102
9.58814e-104
7.26996e-105
5.50578e-106
4.16406e-107
3.14558e-108
2.3731e-109
1.78844e-110
)
;

boundaryField
{
    inlet
    {
        type            fixedValue;
        value           uniform 0;
    }
    outlet
    {
        type            zeroGradient;
    }
    yzfaces
    {
        type            empty;
    }
}


// ************************************************************************* //
