/*--------------------------------*- C++ -*----------------------------------*\
| =========                 |                                                 |
| \\      /  F ield         | foam-extend: Open Source CFD                    |
|  \\    /   O peration     | Version:     5.0                                |
|   \\  /    A nd           | Web:         http://www.foam-extend.org         |
|    \\/     M anipulation  |                                                 |
\*---------------------------------------------------------------------------*/
FoamFile
{
    version     2.0;
    format      ascii;
    class       volScalarField;
    location    "7";
    object      alpha.gas;
}
// * * * * * * * * * * * * * * * * * * * * * * * * * * * * * * * * * * * * * //

dimensions      [0 0 0 0 0 0 0];

internalField   nonuniform List<scalar> 
100
(
0.163417
0.150023
0.142743
0.13585
0.130675
0.12558
0.121839
0.118443
0.114799
0.111323
0.10828
0.105558
0.102542
0.0998286
0.0976913
0.0956082
0.0937484
0.0918976
0.0902821
0.0886044
0.0876109
0.0870479
0.0861048
0.0853365
0.0844655
0.0832022
0.0818974
0.0806745
0.0795497
0.0785171
0.0774305
0.0765813
0.0758417
0.0751206
0.0742986
0.0733318
0.0725073
0.0717043
0.0711083
0.0704306
0.0697113
0.069037
0.0683059
0.0676623
0.0670061
0.0663407
0.0658495
0.0652731
0.0647236
0.064138
0.063602
0.0630114
0.0624369
0.0619423
0.0615326
0.0610812
0.0605024
0.060072
0.0595399
0.0590131
0.0585546
0.0580939
0.0575754
0.0570859
0.0566194
0.0561518
0.0556896
0.0552637
0.0548141
0.0543822
0.0539787
0.0536077
0.0532374
0.0528935
0.0525352
0.0521923
0.0517722
0.0513272
0.0509297
0.0505571
0.0500893
0.0496855
0.0492112
0.0487674
0.0483249
0.0478578
0.0473982
0.0468682
0.0463277
0.0457846
0.0452523
0.044758
0.044274
0.0437961
0.043299
0.0428019
0.0423252
0.0418243
0.0413151
0.0407831
)
;

boundaryField
{
    inlet
    {
        type            fixedValue;
        value           uniform 0.2;
    }
    outlet
    {
        type            zeroGradient;
    }
    yzfaces
    {
        type            empty;
    }
}


// ************************************************************************* //
