/*--------------------------------*- C++ -*----------------------------------*\
| =========                 |                                                 |
| \\      /  F ield         | foam-extend: Open Source CFD                    |
|  \\    /   O peration     | Version:     5.0                                |
|   \\  /    A nd           | Web:         http://www.foam-extend.org         |
|    \\/     M anipulation  |                                                 |
\*---------------------------------------------------------------------------*/
FoamFile
{
    version     2.0;
    format      ascii;
    class       volScalarField;
    location    "7";
    object      CO2.gas;
}
// * * * * * * * * * * * * * * * * * * * * * * * * * * * * * * * * * * * * * //

dimensions      [0 0 0 0 0 0 0];

internalField   nonuniform List<scalar> 
100
(
0.163099
0.149731
0.142465
0.135586
0.13042
0.125335
0.121601
0.118212
0.114575
0.111106
0.108069
0.105352
0.102342
0.0996342
0.097501
0.095422
0.0935658
0.0917186
0.0901063
0.0884319
0.0874403
0.0868784
0.0859371
0.0851704
0.084301
0.0830401
0.0817379
0.0805174
0.0793948
0.0783642
0.0772797
0.0764321
0.075694
0.0749743
0.0741539
0.073189
0.0723661
0.0715646
0.0709698
0.0702935
0.0695755
0.0689025
0.0681729
0.0675305
0.0668756
0.0662115
0.0657213
0.065146
0.0645976
0.064013
0.0634781
0.0628887
0.0623153
0.0618217
0.0614128
0.0609623
0.0603846
0.059955
0.059424
0.0588981
0.0584406
0.0579808
0.0574633
0.0569747
0.0565091
0.0560425
0.0555811
0.0551561
0.0547073
0.0542763
0.0538736
0.0535033
0.0531337
0.0527905
0.0524329
0.0520907
0.0516714
0.0512273
0.0508306
0.0504587
0.0499917
0.0495887
0.0491154
0.0486725
0.0482308
0.0477646
0.0473059
0.0467769
0.0462375
0.0456955
0.0451642
0.0446708
0.0441878
0.0437109
0.0432147
0.0427185
0.0422427
0.0417429
0.0412347
0.0407037
)
;

boundaryField
{
    inlet
    {
        type            fixedValue;
        value           uniform 0.2;
    }
    outlet
    {
        type            zeroGradient;
    }
    yzfaces
    {
        type            empty;
    }
}


// ************************************************************************* //
