/*--------------------------------*- C++ -*----------------------------------*\
| =========                 |                                                 |
| \\      /  F ield         | foam-extend: Open Source CFD                    |
|  \\    /   O peration     | Version:     5.0                                |
|   \\  /    A nd           | Web:         http://www.foam-extend.org         |
|    \\/     M anipulation  |                                                 |
\*---------------------------------------------------------------------------*/
FoamFile
{
    version     2.0;
    format      ascii;
    class       volScalarField;
    location    "7";
    object      CO2.water;
}
// * * * * * * * * * * * * * * * * * * * * * * * * * * * * * * * * * * * * * //

dimensions      [0 0 0 0 0 0 0];

internalField   nonuniform List<scalar> 
100
(
0.000960842
0.00131262
0.00150382
0.00168487
0.00182079
0.00195462
0.00205287
0.00214207
0.00223778
0.00232905
0.00240899
0.00248048
0.00255969
0.00263095
0.00268709
0.0027418
0.00279065
0.00283926
0.00288169
0.00292575
0.00295185
0.00296663
0.0029914
0.00301158
0.00303446
0.00306764
0.00310191
0.00313403
0.00316357
0.00319069
0.00321923
0.00324154
0.00326096
0.0032799
0.00330149
0.00332688
0.00334854
0.00336963
0.00338528
0.00340308
0.00342197
0.00343968
0.00345889
0.00347579
0.00349302
0.0035105
0.0035234
0.00353854
0.00355297
0.00356835
0.00358243
0.00359794
0.00361303
0.00362602
0.00363678
0.00364864
0.00366384
0.00367514
0.00368912
0.00370296
0.003715
0.0037271
0.00374072
0.00375357
0.00376583
0.00377811
0.00379025
0.00380143
0.00381324
0.00382458
0.00383518
0.00384493
0.00385465
0.00386368
0.0038731
0.0038821
0.00389314
0.00390482
0.00391526
0.00392505
0.00393734
0.00394794
0.0039604
0.00397205
0.00398368
0.00399594
0.00400802
0.00402194
0.00403613
0.0040504
0.00406438
0.00407736
0.00409007
0.00410262
0.00411568
0.00412874
0.00414126
0.00415441
0.00416779
0.00418176
)
;

boundaryField
{
    inlet
    {
        type            fixedValue;
        value           uniform 0;
    }
    outlet
    {
        type            zeroGradient;
    }
    yzfaces
    {
        type            empty;
    }
}


// ************************************************************************* //
