/*--------------------------------*- C++ -*----------------------------------*\
| =========                 |                                                 |
| \\      /  F ield         | foam-extend: Open Source CFD                    |
|  \\    /   O peration     | Version:     5.0                                |
|   \\  /    A nd           | Web:         http://www.foam-extend.org         |
|    \\/     M anipulation  |                                                 |
\*---------------------------------------------------------------------------*/
FoamFile
{
    version     2.0;
    format      ascii;
    class       volScalarField;
    location    "7";
    object      H2O.gas;
}
// * * * * * * * * * * * * * * * * * * * * * * * * * * * * * * * * * * * * * //

dimensions      [0 0 0 0 0 0 0];

internalField   nonuniform List<scalar> 
100
(
0.000318249
0.000292166
0.000277988
0.000264564
0.000254485
0.000244563
0.000237277
0.000230663
0.000223567
0.000216799
0.000210872
0.000205571
0.000199697
0.000194413
0.000190251
0.000186194
0.000182572
0.000178968
0.000175822
0.000172555
0.00017062
0.000169523
0.000167687
0.00016619
0.000164494
0.000162034
0.000159493
0.000157111
0.000154921
0.00015291
0.000150794
0.00014914
0.000147699
0.000146295
0.000144694
0.000142812
0.000141206
0.000139642
0.000138481
0.000137162
0.000135761
0.000134448
0.000133024
0.00013177
0.000130492
0.000129197
0.00012824
0.000127118
0.000126047
0.000124907
0.000123863
0.000122713
0.000121594
0.000120631
0.000119833
0.000118954
0.000117827
0.000116988
0.000115952
0.000114926
0.000114033
0.000113136
0.000112126
0.000111173
0.000110265
0.000109354
0.000108454
0.000107625
0.000106749
0.000105908
0.000105122
0.000104399
0.000103678
0.000103009
0.000102311
0.000101643
0.000100825
9.99583e-05
9.91842e-05
9.84585e-05
9.75474e-05
9.6761e-05
9.58374e-05
9.49732e-05
9.41113e-05
9.32017e-05
9.23066e-05
9.12744e-05
9.02219e-05
8.91642e-05
8.81276e-05
8.71649e-05
8.62224e-05
8.52917e-05
8.43235e-05
8.33554e-05
8.2427e-05
8.14517e-05
8.046e-05
7.9424e-05
)
;

boundaryField
{
    inlet
    {
        type            fixedValue;
        value           uniform 0;
    }
    outlet
    {
        type            zeroGradient;
    }
    yzfaces
    {
        type            empty;
    }
}


// ************************************************************************* //
