/*--------------------------------*- C++ -*----------------------------------*\
| =========                 |                                                 |
| \\      /  F ield         | foam-extend: Open Source CFD                    |
|  \\    /   O peration     | Version:     5.0                                |
|   \\  /    A nd           | Web:         http://www.foam-extend.org         |
|    \\/     M anipulation  |                                                 |
\*---------------------------------------------------------------------------*/
FoamFile
{
    version     2.0;
    format      ascii;
    class       surfaceScalarField;
    location    "7";
    object      phi;
}
// * * * * * * * * * * * * * * * * * * * * * * * * * * * * * * * * * * * * * //

dimensions      [0 3 -1 0 0 0 0];

internalField   nonuniform List<scalar> 
99
(
1.22621e-06
1.23279e-06
1.2268e-06
1.22044e-06
1.2146e-06
1.22022e-06
1.21944e-06
1.21298e-06
1.20709e-06
1.19747e-06
1.19693e-06
1.19244e-06
1.19063e-06
1.18908e-06
1.18925e-06
1.19153e-06
1.18996e-06
1.19393e-06
1.19943e-06
1.20029e-06
1.20469e-06
1.20618e-06
1.20549e-06
1.20032e-06
1.19408e-06
1.19573e-06
1.19005e-06
1.19282e-06
1.19142e-06
1.19034e-06
1.18971e-06
1.1892e-06
1.19097e-06
1.18925e-06
1.18704e-06
1.18943e-06
1.18721e-06
1.18703e-06
1.18412e-06
1.18509e-06
1.18533e-06
1.18443e-06
1.18271e-06
1.18296e-06
1.18149e-06
1.18241e-06
1.18333e-06
1.18058e-06
1.17866e-06
1.17804e-06
1.17559e-06
1.17669e-06
1.1776e-06
1.17712e-06
1.17511e-06
1.1743e-06
1.17358e-06
1.17276e-06
1.17401e-06
1.17581e-06
1.17925e-06
1.17717e-06
1.17826e-06
1.17913e-06
1.17826e-06
1.17874e-06
1.17791e-06
1.18208e-06
1.18138e-06
1.18196e-06
1.18309e-06
1.18285e-06
1.18124e-06
1.18149e-06
1.18167e-06
1.18103e-06
1.17897e-06
1.17957e-06
1.17722e-06
1.1765e-06
1.17636e-06
1.17352e-06
1.17294e-06
1.171e-06
1.16951e-06
1.16925e-06
1.16673e-06
1.16477e-06
1.16461e-06
1.16584e-06
1.16534e-06
1.16564e-06
1.16494e-06
1.1654e-06
1.16537e-06
1.16716e-06
1.16529e-06
1.16693e-06
1.16673e-06
)
;

boundaryField
{
    inlet
    {
        type            calculated;
        value           uniform -1.225e-06;
    }
    outlet
    {
        type            calculated;
        value           uniform 1.16447e-06;
    }
    yzfaces
    {
        type            empty;
    }
}


// ************************************************************************* //
