/*--------------------------------*- C++ -*----------------------------------*\
| =========                 |                                                 |
| \\      /  F ield         | foam-extend: Open Source CFD                    |
|  \\    /   O peration     | Version:     5.0                                |
|   \\  /    A nd           | Web:         http://www.foam-extend.org         |
|    \\/     M anipulation  |                                                 |
\*---------------------------------------------------------------------------*/
FoamFile
{
    version     2.0;
    format      ascii;
    class       surfaceScalarField;
    location    "7";
    object      phi.water;
}
// * * * * * * * * * * * * * * * * * * * * * * * * * * * * * * * * * * * * * //

dimensions      [0 3 -1 0 0 0 0];

internalField   nonuniform List<scalar> 
99
(
8.04395e-08
1.43749e-07
1.83003e-07
2.2906e-07
2.66177e-07
3.11976e-07
3.4858e-07
3.81793e-07
4.20273e-07
4.6103e-07
5.03314e-07
5.39466e-07
5.88066e-07
6.34545e-07
6.75561e-07
7.18466e-07
7.56555e-07
7.9914e-07
8.40611e-07
8.84081e-07
9.1501e-07
9.28427e-07
9.52787e-07
9.69585e-07
9.8705e-07
1.02479e-06
1.05856e-06
1.09943e-06
1.13431e-06
1.16747e-06
1.20567e-06
1.23551e-06
1.26487e-06
1.28838e-06
1.31551e-06
1.35586e-06
1.38637e-06
1.42026e-06
1.4415e-06
1.47072e-06
1.50226e-06
1.52936e-06
1.56146e-06
1.59154e-06
1.62045e-06
1.65501e-06
1.68013e-06
1.70571e-06
1.72852e-06
1.75784e-06
1.78118e-06
1.81401e-06
1.8464e-06
1.87499e-06
1.89304e-06
1.91497e-06
1.94836e-06
1.97079e-06
2.00371e-06
2.03993e-06
2.07184e-06
2.09637e-06
2.13053e-06
2.16401e-06
2.19121e-06
2.22222e-06
2.2514e-06
2.28724e-06
2.31668e-06
2.34644e-06
2.37643e-06
2.40152e-06
2.42474e-06
2.44823e-06
2.4749e-06
2.4976e-06
2.52223e-06
2.55788e-06
2.5823e-06
2.60665e-06
2.64124e-06
2.66642e-06
2.70288e-06
2.73052e-06
2.76305e-06
2.79869e-06
2.82714e-06
2.86591e-06
2.91064e-06
2.95825e-06
3.00091e-06
3.0428e-06
3.08359e-06
3.12527e-06
3.16931e-06
3.21614e-06
3.25254e-06
3.30223e-06
3.34689e-06
)
;

boundaryField
{
    inlet
    {
        type            fixedValue;
        value           uniform 0;
    }
    outlet
    {
        type            calculated;
        value           uniform 3.39431e-06;
    }
    yzfaces
    {
        type            empty;
    }
}


// ************************************************************************* //
