/*--------------------------------*- C++ -*----------------------------------*\
| =========                 |                                                 |
| \\      /  F ield         | foam-extend: Open Source CFD                    |
|  \\    /   O peration     | Version:     5.0                                |
|   \\  /    A nd           | Web:         http://www.foam-extend.org         |
|    \\/     M anipulation  |                                                 |
\*---------------------------------------------------------------------------*/
FoamFile
{
    version     2.0;
    format      ascii;
    class       volVectorField;
    location    "7";
    object      U.gas;
}
// * * * * * * * * * * * * * * * * * * * * * * * * * * * * * * * * * * * * * //

dimensions      [0 1 -1 0 0 0 0];

internalField   nonuniform List<vector> 
100
(
(0.00611366 0 0)
(0.00665968 0 0)
(0.00697917 0 0)
(0.00727339 0 0)
(0.00749831 0 0)
(0.0077742 0 0)
(0.00799991 0 0)
(0.00817654 0 0)
(0.00836113 0 0)
(0.00852947 0 0)
(0.00869216 0 0)
(0.00885768 0 0)
(0.00904836 0 0)
(0.00922956 0 0)
(0.00937683 0 0)
(0.00954287 0 0)
(0.00968631 0 0)
(0.00984154 0 0)
(0.010007 0 0)
(0.0101713 0 0)
(0.0102637 0 0)
(0.0103274 0 0)
(0.0104166 0 0)
(0.0104519 0 0)
(0.0104766 0 0)
(0.0105703 0 0)
(0.0106637 0 0)
(0.0107528 0 0)
(0.0108525 0 0)
(0.0109269 0 0)
(0.0110133 0 0)
(0.0110738 0 0)
(0.0111391 0 0)
(0.0111999 0 0)
(0.0112554 0 0)
(0.0113443 0 0)
(0.0114107 0 0)
(0.0114661 0 0)
(0.0114926 0 0)
(0.0115431 0 0)
(0.0116114 0 0)
(0.0116629 0 0)
(0.0117126 0 0)
(0.0117528 0 0)
(0.0118003 0 0)
(0.0118512 0 0)
(0.0118901 0 0)
(0.0119293 0 0)
(0.0119476 0 0)
(0.0119827 0 0)
(0.0120055 0 0)
(0.0120469 0 0)
(0.0120995 0 0)
(0.0121316 0 0)
(0.0121417 0 0)
(0.0121633 0 0)
(0.0122041 0 0)
(0.0122151 0 0)
(0.0122611 0 0)
(0.0123109 0 0)
(0.0123626 0 0)
(0.0123992 0 0)
(0.0124304 0 0)
(0.0124679 0 0)
(0.0124926 0 0)
(0.0125176 0 0)
(0.0125416 0 0)
(0.0125795 0 0)
(0.0126227 0 0)
(0.0126422 0 0)
(0.0126692 0 0)
(0.0126882 0 0)
(0.0126942 0 0)
(0.0127005 0 0)
(0.0127198 0 0)
(0.0127275 0 0)
(0.0127381 0 0)
(0.0127493 0 0)
(0.0127462 0 0)
(0.0127392 0 0)
(0.0127609 0 0)
(0.0127478 0 0)
(0.0127462 0 0)
(0.0127398 0 0)
(0.0127299 0 0)
(0.0127289 0 0)
(0.01272 0 0)
(0.0127102 0 0)
(0.012701 0 0)
(0.0127072 0 0)
(0.0127093 0 0)
(0.0127 0 0)
(0.0126894 0 0)
(0.0126788 0 0)
(0.0126741 0 0)
(0.0126722 0 0)
(0.012657 0 0)
(0.0126425 0 0)
(0.0126306 0 0)
(0.012596 0 0)
)
;

boundaryField
{
    inlet
    {
        type            fixedValue;
        value           uniform (0.005 0 0);
    }
    outlet
    {
        type            zeroGradient;
    }
    yzfaces
    {
        type            empty;
    }
}


// ************************************************************************* //
