/*--------------------------------*- C++ -*----------------------------------*\
| =========                 |                                                 |
| \\      /  F ield         | foam-extend: Open Source CFD                    |
|  \\    /   O peration     | Version:     5.0                                |
|   \\  /    A nd           | Web:         http://www.foam-extend.org         |
|    \\/     M anipulation  |                                                 |
\*---------------------------------------------------------------------------*/
FoamFile
{
    version     2.0;
    format      ascii;
    class       volVectorField;
    location    "7";
    object      U.water;
}
// * * * * * * * * * * * * * * * * * * * * * * * * * * * * * * * * * * * * * //

dimensions      [0 1 -1 0 0 0 0];

internalField   nonuniform List<vector> 
100
(
(3.88482e-05 0 0)
(9.14166e-05 0 0)
(0.000134239 0 0)
(0.000168105 0 0)
(0.000202734 0 0)
(0.000235426 0 0)
(0.000269692 0 0)
(0.000298856 0 0)
(0.000327909 0 0)
(0.000360015 0 0)
(0.000393785 0 0)
(0.000426241 0 0)
(0.000460157 0 0)
(0.000498484 0 0)
(0.000534768 0 0)
(0.000568735 0 0)
(0.00060198 0 0)
(0.000634592 0 0)
(0.000669237 0 0)
(0.000702489 0 0)
(0.000733237 0 0)
(0.000752966 0 0)
(0.000767742 0 0)
(0.0007852 0 0)
(0.000799698 0 0)
(0.000821595 0 0)
(0.000850595 0 0)
(0.000880962 0 0)
(0.000911915 0 0)
(0.000940012 0 0)
(0.000968322 0 0)
(0.000996105 0 0)
(0.0010204 0 0)
(0.00104241 0 0)
(0.00106327 0 0)
(0.00109015 0 0)
(0.00111922 0 0)
(0.00114509 0 0)
(0.00116843 0 0)
(0.00118887 0 0)
(0.00121326 0 0)
(0.00123757 0 0)
(0.00126159 0 0)
(0.00128729 0 0)
(0.00131128 0 0)
(0.00133653 0 0)
(0.00136157 0 0)
(0.00138208 0 0)
(0.00140206 0 0)
(0.00142331 0 0)
(0.001445 0 0)
(0.00146744 0 0)
(0.0014937 0 0)
(0.00151858 0 0)
(0.00153816 0 0)
(0.00155483 0 0)
(0.00157665 0 0)
(0.00160015 0 0)
(0.00162211 0 0)
(0.00164983 0 0)
(0.00167813 0 0)
(0.00170173 0 0)
(0.00172521 0 0)
(0.00175255 0 0)
(0.00177765 0 0)
(0.00180158 0 0)
(0.00182568 0 0)
(0.00185216 0 0)
(0.00187883 0 0)
(0.00190308 0 0)
(0.00192752 0 0)
(0.00195027 0 0)
(0.00197002 0 0)
(0.00198906 0 0)
(0.00200944 0 0)
(0.00203029 0 0)
(0.00204944 0 0)
(0.00207355 0 0)
(0.00209828 0 0)
(0.00211884 0 0)
(0.00214238 0 0)
(0.00216714 0 0)
(0.00219172 0 0)
(0.00221795 0 0)
(0.00224255 0 0)
(0.00227035 0 0)
(0.0022972 0 0)
(0.00232431 0 0)
(0.00235801 0 0)
(0.00239543 0 0)
(0.0024322 0 0)
(0.00246709 0 0)
(0.00250084 0 0)
(0.00253436 0 0)
(0.00256899 0 0)
(0.00260601 0 0)
(0.00264033 0 0)
(0.00267527 0 0)
(0.00271406 0 0)
(0.00274974 0 0)
)
;

boundaryField
{
    inlet
    {
        type            fixedValue;
        value           uniform (0 0 0);
    }
    outlet
    {
        type            zeroGradient;
    }
    yzfaces
    {
        type            empty;
    }
}


// ************************************************************************* //
