/*--------------------------------*- C++ -*----------------------------------*\
| =========                 |                                                 |
| \\      /  F ield         | foam-extend: Open Source CFD                    |
|  \\    /   O peration     | Version:     5.0                                |
|   \\  /    A nd           | Web:         http://www.foam-extend.org         |
|    \\/     M anipulation  |                                                 |
\*---------------------------------------------------------------------------*/
FoamFile
{
    version     2.0;
    format      ascii;
    class       volScalarField;
    location    "8.23886";
    object      CO2.water;
}
// * * * * * * * * * * * * * * * * * * * * * * * * * * * * * * * * * * * * * //

dimensions      [0 0 0 0 0 0 0];

internalField   nonuniform List<scalar> 
100
(
6.32018e-05
1.17077e-05
1.76547e-06
2.39621e-07
3.04581e-08
3.69868e-09
4.33898e-10
4.95236e-11
5.52676e-12
6.05217e-13
6.52076e-14
6.92546e-15
7.26193e-16
7.52785e-17
7.72337e-18
7.84852e-19
7.90526e-20
7.89788e-21
7.83077e-22
7.70863e-23
7.53645e-24
7.32221e-25
7.07127e-26
6.78896e-27
6.48266e-28
6.15772e-29
5.81894e-30
5.47281e-31
5.12303e-32
4.77397e-33
4.42972e-34
4.09277e-35
3.76654e-36
3.45221e-37
3.15238e-38
2.8681e-39
2.60015e-40
2.34888e-41
2.11454e-42
1.89708e-43
1.69666e-44
1.51271e-45
1.34453e-46
1.19148e-47
1.05268e-48
9.27463e-50
8.1476e-51
7.13848e-52
6.23685e-53
5.43477e-54
4.72387e-55
4.09507e-56
3.5411e-57
3.05466e-58
2.62881e-59
2.25695e-60
1.93342e-61
1.65243e-62
1.40909e-63
1.19893e-64
1.01786e-65
8.6225e-67
7.28989e-68
6.14981e-69
5.1779e-70
4.35024e-71
3.64824e-72
3.0533e-73
2.55054e-74
2.12689e-75
1.77013e-76
1.47077e-77
1.2198e-78
1.0099e-79
8.34581e-81
6.88498e-82
5.67031e-83
4.66262e-84
3.82729e-85
3.13685e-86
2.56658e-87
2.09681e-88
1.71033e-89
1.39291e-90
1.13261e-91
9.19699e-93
7.45517e-94
6.03448e-95
4.87707e-96
3.93569e-97
3.17111e-98
2.55163e-99
2.05022e-100
1.64502e-101
1.31808e-102
1.05453e-103
8.42581e-105
6.72197e-106
5.3562e-107
4.26204e-108
)
;

boundaryField
{
    inlet
    {
        type            fixedValue;
        value           uniform 0;
    }
    outlet
    {
        type            zeroGradient;
    }
    yzfaces
    {
        type            empty;
    }
}


// ************************************************************************* //
