/*--------------------------------*- C++ -*----------------------------------*\
| =========                 |                                                 |
| \\      /  F ield         | foam-extend: Open Source CFD                    |
|  \\    /   O peration     | Version:     5.0                                |
|   \\  /    A nd           | Web:         http://www.foam-extend.org         |
|    \\/     M anipulation  |                                                 |
\*---------------------------------------------------------------------------*/
FoamFile
{
    version     2.0;
    format      ascii;
    class       volScalarField;
    location    "1.3275851474";
    object      alpha.gas;
}
// * * * * * * * * * * * * * * * * * * * * * * * * * * * * * * * * * * * * * //

dimensions      [0 0 0 0 0 0 0];

internalField   nonuniform List<scalar> 
100
(
0.121705
0.10376
0.0929508
0.0850758
0.0789009
0.0734435
0.068513
0.0640701
0.0600962
0.0565137
0.0507697
0.0459576
0.0426583
0.040496
0.0390429
0.0378842
0.0368293
0.0356756
0.0344022
0.0329736
0.0313503
0.0295353
0.0275611
0.0254144
0.0231371
0.0207952
0.0184736
0.0162837
0.0143849
0.0128803
0.0117898
0.0110644
0.0106109
0.010343
0.0101894
0.0101053
0.0100568
0.0100305
0.0100152
0.0100068
0.0100033
0.00999993
0.00999975
0.0100007
0.00999918
0.00999842
0.00999745
0.00999838
0.00999786
0.00999789
0.00999884
0.00999944
0.0100012
0.0100014
0.0100025
0.0100019
0.0100011
0.00999862
0.00999829
0.00999782
0.00999694
0.00999995
0.0100018
0.00999958
0.0100006
0.010001
0.0100019
0.0100001
0.0100008
0.0100027
0.010003
0.0100042
0.0100026
0.0100019
0.00999937
0.0100001
0.00999851
0.00999796
0.00999939
0.00999979
0.00999825
0.00999898
0.010002
0.010003
0.0100023
0.0100037
0.0100016
0.0100037
0.0100019
0.00999883
0.00999751
0.00999822
0.00999732
0.00999702
0.00999921
0.00999599
0.00999852
0.01
0.00999906
0.00999765
)
;

boundaryField
{
    inlet
    {
        type            fixedValue;
        value           uniform 0.2;
    }
    outlet
    {
        type            zeroGradient;
    }
    yzfaces
    {
        type            empty;
    }
}


// ************************************************************************* //
