/*--------------------------------*- C++ -*----------------------------------*\
| =========                 |                                                 |
| \\      /  F ield         | foam-extend: Open Source CFD                    |
|  \\    /   O peration     | Version:     5.0                                |
|   \\  /    A nd           | Web:         http://www.foam-extend.org         |
|    \\/     M anipulation  |                                                 |
\*---------------------------------------------------------------------------*/
FoamFile
{
    version     2.0;
    format      ascii;
    class       volScalarField;
    location    "1.3275851474";
    object      Cl.water;
}
// * * * * * * * * * * * * * * * * * * * * * * * * * * * * * * * * * * * * * //

dimensions      [0 0 0 0 0 0 0];

internalField   nonuniform List<scalar> 
100
(
0
0.00557267
0.00958384
0.00634696
0.00732862
0.0102541
0.00695839
0.00812663
0.0113777
0.0142776
0.00564996
0.0110068
0.0157158
0.0180694
0.019084
0.0195126
0.0197439
0.0198893
0.0200511
0.0201967
0.0204087
0.0206154
0.0208743
0.0211412
0.0214037
0.0216935
0.0219571
0.0222219
0.0224423
0.022637
0.0227641
0.0228493
0.0229182
0.0229527
0.0229731
0.0229703
0.0229966
0.0229894
0.0229979
0.0229982
0.0229831
0.0229913
0.0230053
0.0229893
0.0229952
0.023008
0.0230109
0.022997
0.0229953
0.0229744
0.0229949
0.0229806
0.0229988
0.0229811
0.0230094
0.0230213
0.0230055
0.0230037
0.0230068
0.0229926
0.0229843
0.0229629
0.0229873
0.0229906
0.0229984
0.0230049
0.0229863
0.0229873
0.0229924
0.0229914
0.0229858
0.0230119
0.0230269
0.0230242
0.0229913
0.0229875
0.0230152
0.0230103
0.0230153
0.0230136
0.0230006
0.0230301
0.0229918
0.0229929
0.0230086
0.0229916
0.023023
0.0230143
0.0230008
0.0230048
0.0229866
0.022979
0.0229733
0.0229685
0.0229628
0.0229747
0.0229627
0.0229863
0.0229969
0.0230044
)
;

boundaryField
{
    inlet
    {
        type            fixedValue;
        value           uniform 0;
    }
    outlet
    {
        type            zeroGradient;
    }
    yzfaces
    {
        type            empty;
    }
}


// ************************************************************************* //
