/*--------------------------------*- C++ -*----------------------------------*\
| =========                 |                                                 |
| \\      /  F ield         | foam-extend: Open Source CFD                    |
|  \\    /   O peration     | Version:     5.0                                |
|   \\  /    A nd           | Web:         http://www.foam-extend.org         |
|    \\/     M anipulation  |                                                 |
\*---------------------------------------------------------------------------*/
FoamFile
{
    version     2.0;
    format      ascii;
    class       volScalarField;
    location    "1.3275851474";
    object      H2O.gas;
}
// * * * * * * * * * * * * * * * * * * * * * * * * * * * * * * * * * * * * * //

dimensions      [0 0 0 0 0 0 0];

internalField   nonuniform List<scalar> 
100
(
2.62458e-09
3.52534e-07
2.19887e-06
7.15929e-06
1.79243e-05
4.00304e-05
7.63795e-05
0.000135912
0.000241227
0.000430899
0.000540954
0.000890674
0.00158895
0.00264033
0.00401965
0.00565997
0.00750855
0.00946256
0.0114722
0.0133876
0.0151524
0.0165938
0.017668
0.0182221
0.0182026
0.0176543
0.0166255
0.0153008
0.0139061
0.0126768
0.0117065
0.0110291
0.0105982
0.0103379
0.010188
0.0100998
0.0100604
0.0100315
0.0100168
0.0100075
0.00999824
0.00999571
0.0100016
0.00999794
0.0100014
0.0100047
0.010006
0.0100008
0.0099977
0.00998842
0.00999601
0.00998723
0.00999759
0.00999076
0.0100007
0.0100053
0.00999786
0.00999513
0.00999816
0.0099916
0.00999216
0.00998538
0.00999882
0.0099974
0.010003
0.0100053
0.00999666
0.00999786
0.0100012
0.0100021
0.00999818
0.0100099
0.0100136
0.0100132
0.00999832
0.0099996
0.0100093
0.0100031
0.0100054
0.0100063
0.00999901
0.0100116
0.0099986
0.00999758
0.0100021
0.00999504
0.0100077
0.010003
0.00999789
0.00999942
0.00999319
0.00999212
0.00999039
0.0099853
0.00998315
0.00998706
0.00998294
0.00999458
0.00999603
0.0100045
)
;

boundaryField
{
    inlet
    {
        type            fixedValue;
        value           uniform 0;
    }
    outlet
    {
        type            zeroGradient;
    }
    yzfaces
    {
        type            empty;
    }
}


// ************************************************************************* //
