/*--------------------------------*- C++ -*----------------------------------*\
| =========                 |                                                 |
| \\      /  F ield         | foam-extend: Open Source CFD                    |
|  \\    /   O peration     | Version:     5.0                                |
|   \\  /    A nd           | Web:         http://www.foam-extend.org         |
|    \\/     M anipulation  |                                                 |
\*---------------------------------------------------------------------------*/
FoamFile
{
    version     2.0;
    format      ascii;
    class       volScalarField;
    location    "1.3275851474";
    object      Na.water;
}
// * * * * * * * * * * * * * * * * * * * * * * * * * * * * * * * * * * * * * //

dimensions      [0 0 0 0 0 0 0];

internalField   nonuniform List<scalar> 
100
(
0
0.0055739
0.00958533
0.00634627
0.00733131
0.0102632
0.00696032
0.0081236
0.0113785
0.0142828
0.00565068
0.011005
0.0157118
0.0180681
0.0190861
0.0195078
0.0197444
0.019888
0.020057
0.0202032
0.0204074
0.0206098
0.0208657
0.0211347
0.0214038
0.0216991
0.0219656
0.0222295
0.0224455
0.0226461
0.0227708
0.0228507
0.0229115
0.0229483
0.0229721
0.02297
0.0229915
0.0229865
0.0229835
0.0229857
0.0229782
0.0229803
0.0229984
0.0229835
0.0229939
0.0230059
0.0230075
0.0229897
0.0229862
0.0229765
0.0229989
0.0229832
0.0230044
0.0229853
0.0230038
0.0230162
0.0230026
0.0230018
0.0230049
0.0229928
0.0229996
0.0229735
0.0229932
0.0229886
0.0230016
0.0230084
0.0229869
0.0229891
0.0229974
0.0229897
0.0229805
0.0230066
0.0230134
0.0230101
0.0229849
0.0229915
0.0230161
0.023011
0.0230148
0.0230171
0.023005
0.0230411
0.0230107
0.0230084
0.0230164
0.022991
0.0230141
0.0229987
0.0229905
0.023002
0.0229919
0.022985
0.0229797
0.022972
0.0229654
0.0229764
0.0229562
0.0229895
0.0229934
0.0230208
)
;

boundaryField
{
    inlet
    {
        type            fixedValue;
        value           uniform 0;
    }
    outlet
    {
        type            zeroGradient;
    }
    yzfaces
    {
        type            empty;
    }
}


// ************************************************************************* //
