/*--------------------------------*- C++ -*----------------------------------*\
| =========                 |                                                 |
| \\      /  F ield         | foam-extend: Open Source CFD                    |
|  \\    /   O peration     | Version:     5.0                                |
|   \\  /    A nd           | Web:         http://www.foam-extend.org         |
|    \\/     M anipulation  |                                                 |
\*---------------------------------------------------------------------------*/
FoamFile
{
    version     2.0;
    format      ascii;
    class       surfaceScalarField;
    location    "1.3275851474";
    object      phi;
}
// * * * * * * * * * * * * * * * * * * * * * * * * * * * * * * * * * * * * * //

dimensions      [0 3 -1 0 0 0 0];

internalField   nonuniform List<scalar> 
99
(
1.22679e-06
1.23318e-06
1.2307e-06
1.23966e-06
1.22889e-06
1.22805e-06
1.22833e-06
1.22778e-06
1.22846e-06
1.23405e-06
1.22846e-06
1.2317e-06
1.23414e-06
1.23658e-06
1.23656e-06
1.23802e-06
1.23591e-06
1.23821e-06
1.23886e-06
1.23764e-06
1.2371e-06
1.2377e-06
1.23826e-06
1.23981e-06
1.24135e-06
1.24062e-06
1.23844e-06
1.23906e-06
1.2412e-06
1.24137e-06
1.24034e-06
1.24033e-06
1.23942e-06
1.23874e-06
1.23687e-06
1.23856e-06
1.23746e-06
1.23797e-06
1.23584e-06
1.2358e-06
1.23621e-06
1.23518e-06
1.23507e-06
1.23463e-06
1.23537e-06
1.23516e-06
1.23419e-06
1.23315e-06
1.23127e-06
1.23212e-06
1.23258e-06
1.23167e-06
1.23215e-06
1.23405e-06
1.23307e-06
1.23417e-06
1.23236e-06
1.23298e-06
1.23222e-06
1.2303e-06
1.23029e-06
1.23039e-06
1.23167e-06
1.23469e-06
1.23276e-06
1.2339e-06
1.23491e-06
1.2342e-06
1.23591e-06
1.23667e-06
1.23809e-06
1.23877e-06
1.23692e-06
1.23574e-06
1.23659e-06
1.23777e-06
1.23874e-06
1.23878e-06
1.23868e-06
1.23621e-06
1.2386e-06
1.23782e-06
1.23563e-06
1.23501e-06
1.23275e-06
1.23474e-06
1.23176e-06
1.23468e-06
1.23531e-06
1.23543e-06
1.23518e-06
1.23623e-06
1.2369e-06
1.2372e-06
1.23797e-06
1.23798e-06
1.23647e-06
1.23614e-06
1.23659e-06
)
;

boundaryField
{
    inlet
    {
        type            calculated;
        value           uniform -1.225e-06;
    }
    outlet
    {
        type            calculated;
        value           uniform 1.23544e-06;
    }
    yzfaces
    {
        type            empty;
    }
}


// ************************************************************************* //
