/*--------------------------------*- C++ -*----------------------------------*\
| =========                 |                                                 |
| \\      /  F ield         | foam-extend: Open Source CFD                    |
|  \\    /   O peration     | Version:     5.0                                |
|   \\  /    A nd           | Web:         http://www.foam-extend.org         |
|    \\/     M anipulation  |                                                 |
\*---------------------------------------------------------------------------*/
FoamFile
{
    version     2.0;
    format      ascii;
    class       surfaceScalarField;
    location    "1.3275851474";
    object      phi.water;
}
// * * * * * * * * * * * * * * * * * * * * * * * * * * * * * * * * * * * * * //

dimensions      [0 3 -1 0 0 0 0];

internalField   nonuniform List<scalar> 
99
(
3.22963e-07
5.65449e-07
7.77141e-07
9.88475e-07
1.17266e-06
1.37651e-06
1.59606e-06
1.81955e-06
2.04739e-06
2.26286e-06
2.67331e-06
3.08798e-06
3.39935e-06
3.61732e-06
3.758e-06
3.87682e-06
3.9767e-06
4.10184e-06
4.23482e-06
4.37731e-06
4.54074e-06
4.72659e-06
4.92237e-06
5.13824e-06
5.35776e-06
5.56069e-06
5.73814e-06
5.89916e-06
6.0275e-06
6.10824e-06
6.15602e-06
6.18654e-06
6.1989e-06
6.2051e-06
6.2023e-06
6.21242e-06
6.20674e-06
6.21086e-06
6.20074e-06
6.20299e-06
6.20659e-06
6.19941e-06
6.19853e-06
6.19616e-06
6.19707e-06
6.19408e-06
6.19049e-06
6.18793e-06
6.18219e-06
6.18728e-06
6.19041e-06
6.18603e-06
6.18786e-06
6.19686e-06
6.18754e-06
6.1935e-06
6.18661e-06
6.1888e-06
6.18591e-06
6.17766e-06
6.18039e-06
6.18008e-06
6.18256e-06
6.19624e-06
6.18457e-06
6.19262e-06
6.19963e-06
6.19437e-06
6.20243e-06
6.20781e-06
6.21298e-06
6.21148e-06
6.20048e-06
6.19837e-06
6.20641e-06
6.20847e-06
6.21169e-06
6.21346e-06
6.21248e-06
6.20168e-06
6.21178e-06
6.20928e-06
6.20374e-06
6.19962e-06
6.18923e-06
6.19719e-06
6.17984e-06
6.19753e-06
6.20035e-06
6.20122e-06
6.20206e-06
6.20812e-06
6.21322e-06
6.21767e-06
6.22055e-06
6.22054e-06
6.21187e-06
6.20622e-06
6.20465e-06
)
;

boundaryField
{
    inlet
    {
        type            fixedValue;
        value           uniform 0;
    }
    outlet
    {
        type            calculated;
        value           uniform 6.19595e-06;
    }
    yzfaces
    {
        type            empty;
    }
}


// ************************************************************************* //
