/*--------------------------------*- C++ -*----------------------------------*\
| =========                 |                                                 |
| \\      /  F ield         | foam-extend: Open Source CFD                    |
|  \\    /   O peration     | Version:     5.0                                |
|   \\  /    A nd           | Web:         http://www.foam-extend.org         |
|    \\/     M anipulation  |                                                 |
\*---------------------------------------------------------------------------*/
FoamFile
{
    version     2.0;
    format      ascii;
    class       volScalarField;
    location    "1.3275851474";
    object      S.gas;
}
// * * * * * * * * * * * * * * * * * * * * * * * * * * * * * * * * * * * * * //

dimensions      [0 0 0 0 0 0 0];

internalField   nonuniform List<scalar> 
100
(
0.608523
0.518802
0.464754
0.425379
0.394504
0.367217
0.342565
0.32035
0.300481
0.282569
0.253849
0.229788
0.213291
0.20248
0.195214
0.189421
0.184147
0.178378
0.172011
0.164868
0.156751
0.147676
0.137806
0.127072
0.115686
0.103976
0.0923682
0.0814185
0.0719245
0.0644016
0.0589488
0.0553221
0.0530543
0.0517149
0.0509472
0.0505263
0.0502838
0.0501527
0.0500762
0.0500338
0.0500163
0.0499997
0.0499987
0.0500034
0.0499959
0.0499921
0.0499872
0.0499919
0.0499893
0.0499894
0.0499942
0.0499972
0.0500061
0.0500069
0.0500124
0.0500097
0.0500053
0.0499931
0.0499914
0.0499891
0.0499847
0.0499998
0.0500089
0.0499979
0.0500028
0.0500051
0.0500094
0.0500005
0.0500041
0.0500136
0.0500149
0.0500212
0.050013
0.0500097
0.0499969
0.0500005
0.0499925
0.0499898
0.0499969
0.049999
0.0499913
0.0499949
0.0500102
0.0500151
0.0500116
0.0500184
0.0500078
0.0500184
0.0500096
0.0499941
0.0499875
0.0499911
0.0499866
0.0499851
0.0499961
0.04998
0.0499926
0.0500002
0.0499953
0.0499883
)
;

boundaryField
{
    inlet
    {
        type            calculated;
        value           uniform 1;
    }
    outlet
    {
        type            calculated;
        value           uniform 0.0499883;
    }
    yzfaces
    {
        type            empty;
    }
}


// ************************************************************************* //
