/*--------------------------------*- C++ -*----------------------------------*\
| =========                 |                                                 |
| \\      /  F ield         | foam-extend: Open Source CFD                    |
|  \\    /   O peration     | Version:     5.0                                |
|   \\  /    A nd           | Web:         http://www.foam-extend.org         |
|    \\/     M anipulation  |                                                 |
\*---------------------------------------------------------------------------*/
FoamFile
{
    version     2.0;
    format      ascii;
    class       volVectorField;
    location    "1.3275851474";
    object      U.gas;
}
// * * * * * * * * * * * * * * * * * * * * * * * * * * * * * * * * * * * * * //

dimensions      [0 1 -1 0 0 0 0];

internalField   nonuniform List<vector> 
100
(
(0.00812819 0 0)
(0.00934006 0 0)
(0.0101885 0 0)
(0.0108792 0 0)
(0.0114172 0 0)
(0.0118645 0 0)
(0.0123127 0 0)
(0.0127003 0 0)
(0.0130184 0 0)
(0.0133063 0 0)
(0.0138869 0 0)
(0.0139945 0 0)
(0.0138541 0 0)
(0.0136402 0 0)
(0.013447 0 0)
(0.0133154 0 0)
(0.0131995 0 0)
(0.0131071 0 0)
(0.0130053 0 0)
(0.0128527 0 0)
(0.0126465 0 0)
(0.012377 0 0)
(0.0120228 0 0)
(0.0115761 0 0)
(0.0110102 0 0)
(0.0103061 0 0)
(0.00947159 0 0)
(0.00855968 0 0)
(0.00763705 0 0)
(0.00678737 0 0)
(0.00608197 0 0)
(0.00556127 0 0)
(0.00521265 0 0)
(0.00499228 0 0)
(0.0048602 0 0)
(0.00478737 0 0)
(0.00474817 0 0)
(0.0047237 0 0)
(0.00470865 0 0)
(0.00469706 0 0)
(0.00469369 0 0)
(0.00469147 0 0)
(0.00468711 0 0)
(0.00468534 0 0)
(0.00468669 0 0)
(0.0046871 0 0)
(0.00468447 0 0)
(0.00468028 0 0)
(0.00467511 0 0)
(0.00467301 0 0)
(0.00467545 0 0)
(0.0046755 0 0)
(0.00467528 0 0)
(0.00468044 0 0)
(0.00468233 0 0)
(0.00468311 0 0)
(0.00468123 0 0)
(0.00467852 0 0)
(0.00467696 0 0)
(0.00467179 0 0)
(0.00466758 0 0)
(0.00466739 0 0)
(0.00467242 0 0)
(0.00468109 0 0)
(0.00468145 0 0)
(0.00468041 0 0)
(0.00468464 0 0)
(0.00468577 0 0)
(0.00468711 0 0)
(0.004692 0 0)
(0.00469716 0 0)
(0.00470076 0 0)
(0.00469907 0 0)
(0.0046926 0 0)
(0.00469086 0 0)
(0.00469416 0 0)
(0.00469903 0 0)
(0.00469963 0 0)
(0.00469928 0 0)
(0.00469509 0 0)
(0.0046955 0 0)
(0.00469773 0 0)
(0.00469217 0 0)
(0.00468824 0 0)
(0.0046834 0 0)
(0.00468283 0 0)
(0.0046816 0 0)
(0.00468097 0 0)
(0.00468866 0 0)
(0.00468849 0 0)
(0.00468658 0 0)
(0.00468756 0 0)
(0.00469125 0 0)
(0.00469281 0 0)
(0.00469444 0 0)
(0.00469742 0 0)
(0.00469306 0 0)
(0.00469026 0 0)
(0.00469144 0 0)
(0.0046893 0 0)
)
;

boundaryField
{
    inlet
    {
        type            fixedValue;
        value           uniform (0.005 0 0);
    }
    outlet
    {
        type            zeroGradient;
    }
    yzfaces
    {
        type            empty;
    }
}


// ************************************************************************* //
