/*--------------------------------*- C++ -*----------------------------------*\
| =========                 |                                                 |
| \\      /  F ield         | foam-extend: Open Source CFD                    |
|  \\    /   O peration     | Version:     5.0                                |
|   \\  /    A nd           | Web:         http://www.foam-extend.org         |
|    \\/     M anipulation  |                                                 |
\*---------------------------------------------------------------------------*/
FoamFile
{
    version     2.0;
    format      ascii;
    class       volVectorField;
    location    "1.3275851474";
    object      U.water;
}
// * * * * * * * * * * * * * * * * * * * * * * * * * * * * * * * * * * * * * //

dimensions      [0 1 -1 0 0 0 0];

internalField   nonuniform List<vector> 
100
(
(0.000146787 0 0)
(0.00036308 0 0)
(0.000547779 0 0)
(0.000720058 0 0)
(0.000881447 0 0)
(0.00103879 0 0)
(0.00120947 0 0)
(0.00138886 0 0)
(0.00157384 0 0)
(0.00176403 0 0)
(0.00201082 0 0)
(0.00234348 0 0)
(0.00264058 0 0)
(0.00285939 0 0)
(0.00300972 0 0)
(0.00311871 0 0)
(0.00320918 0 0)
(0.00329984 0 0)
(0.00340366 0 0)
(0.0035145 0 0)
(0.00363848 0 0)
(0.00378122 0 0)
(0.00393898 0 0)
(0.00410833 0 0)
(0.00428565 0 0)
(0.00445709 0 0)
(0.00461028 0 0)
(0.00474558 0 0)
(0.00486217 0 0)
(0.00494801 0 0)
(0.00500099 0 0)
(0.00503338 0 0)
(0.0050522 0 0)
(0.00506102 0 0)
(0.00506256 0 0)
(0.00506597 0 0)
(0.00506926 0 0)
(0.00506924 0 0)
(0.00506652 0 0)
(0.00506246 0 0)
(0.00506342 0 0)
(0.00506219 0 0)
(0.00505997 0 0)
(0.00505889 0 0)
(0.00505946 0 0)
(0.00506056 0 0)
(0.00505817 0 0)
(0.00505409 0 0)
(0.00504809 0 0)
(0.00504599 0 0)
(0.00504867 0 0)
(0.0050477 0 0)
(0.00504678 0 0)
(0.00505162 0 0)
(0.00505351 0 0)
(0.00505371 0 0)
(0.00505229 0 0)
(0.00504987 0 0)
(0.00504965 0 0)
(0.00504417 0 0)
(0.00504025 0 0)
(0.00504045 0 0)
(0.00504314 0 0)
(0.00505193 0 0)
(0.00505426 0 0)
(0.00505263 0 0)
(0.00505701 0 0)
(0.00505759 0 0)
(0.00505966 0 0)
(0.00506471 0 0)
(0.00506913 0 0)
(0.00507345 0 0)
(0.00507103 0 0)
(0.00506487 0 0)
(0.00506424 0 0)
(0.00506842 0 0)
(0.00507278 0 0)
(0.00507492 0 0)
(0.00507482 0 0)
(0.00506952 0 0)
(0.00506932 0 0)
(0.00507267 0 0)
(0.00506659 0 0)
(0.00506077 0 0)
(0.00505482 0 0)
(0.00505427 0 0)
(0.0050522 0 0)
(0.00505212 0 0)
(0.00505934 0 0)
(0.00506095 0 0)
(0.00506076 0 0)
(0.00506242 0 0)
(0.00506592 0 0)
(0.00506792 0 0)
(0.00507016 0 0)
(0.00507167 0 0)
(0.00506868 0 0)
(0.00506488 0 0)
(0.00506507 0 0)
(0.00506367 0 0)
)
;

boundaryField
{
    inlet
    {
        type            fixedValue;
        value           uniform (0 0 0);
    }
    outlet
    {
        type            zeroGradient;
    }
    yzfaces
    {
        type            empty;
    }
}


// ************************************************************************* //
