/*--------------------------------*- C++ -*----------------------------------*\
| =========                 |                                                 |
| \\      /  F ield         | foam-extend: Open Source CFD                    |
|  \\    /   O peration     | Version:     5.0                                |
|   \\  /    A nd           | Web:         http://www.foam-extend.org         |
|    \\/     M anipulation  |                                                 |
\*---------------------------------------------------------------------------*/
FoamFile
{
    version     2.0;
    format      ascii;
    class       volScalarField;
    location    "8";
    object      alpha.gas;
}
// * * * * * * * * * * * * * * * * * * * * * * * * * * * * * * * * * * * * * //

dimensions      [0 0 0 0 0 0 0];

internalField   nonuniform List<scalar> 
100
(
0.165633
0.152798
0.143913
0.137155
0.135086
0.132449
0.128325
0.123516
0.118794
0.115378
0.112403
0.109477
0.106632
0.104332
0.101892
0.0994373
0.0977996
0.0963224
0.0942053
0.092636
0.0911594
0.0893135
0.0881329
0.0874323
0.0870729
0.086768
0.0861868
0.0852299
0.0842483
0.0834174
0.0820116
0.0809738
0.0798541
0.0787607
0.0777596
0.0769508
0.0762452
0.0756097
0.0749977
0.0742009
0.0735561
0.0728937
0.0720643
0.0714537
0.0708907
0.0703465
0.0698347
0.0693006
0.0687184
0.0681216
0.0675347
0.0669846
0.0663597
0.0659051
0.0653981
0.0649692
0.0644291
0.0638258
0.0633272
0.0628023
0.0622579
0.0619272
0.0614534
0.0609386
0.0605314
0.0600001
0.059657
0.059252
0.0588315
0.0583639
0.0579525
0.0576492
0.0572002
0.0568295
0.0563868
0.0560549
0.0556332
0.0553363
0.0550166
0.0546397
0.0542493
0.0538649
0.0535183
0.0531888
0.0528663
0.0525599
0.0522376
0.0519122
0.0515139
0.051148
0.050832
0.0504355
0.0500444
0.0496957
0.049307
0.0489738
0.0485565
0.0481186
0.0476876
0.0471632
)
;

boundaryField
{
    inlet
    {
        type            fixedValue;
        value           uniform 0.2;
    }
    outlet
    {
        type            zeroGradient;
    }
    yzfaces
    {
        type            empty;
    }
}


// ************************************************************************* //
