/*--------------------------------*- C++ -*----------------------------------*\
| =========                 |                                                 |
| \\      /  F ield         | foam-extend: Open Source CFD                    |
|  \\    /   O peration     | Version:     5.0                                |
|   \\  /    A nd           | Web:         http://www.foam-extend.org         |
|    \\/     M anipulation  |                                                 |
\*---------------------------------------------------------------------------*/
FoamFile
{
    version     2.0;
    format      ascii;
    class       volScalarField;
    location    "8";
    object      alpha.gas;
}
// * * * * * * * * * * * * * * * * * * * * * * * * * * * * * * * * * * * * * //

dimensions      [0 0 0 0 0 0 0];

internalField   nonuniform List<scalar> 
100
(
0.165641
0.152838
0.143204
0.136878
0.134976
0.132651
0.128677
0.123641
0.11872
0.114837
0.112298
0.109641
0.106658
0.104356
0.102123
0.0995165
0.0974486
0.0958073
0.0937116
0.0922931
0.0909297
0.088943
0.0878667
0.0871834
0.0868954
0.0864919
0.0857083
0.0847409
0.0837796
0.0828766
0.0819655
0.080889
0.0797473
0.0787176
0.0776189
0.0769328
0.0762173
0.075589
0.0748984
0.0740336
0.0733516
0.0726708
0.0719818
0.0713845
0.0707955
0.0702643
0.0697576
0.0692699
0.0685997
0.0680711
0.0674535
0.0669624
0.0665152
0.065956
0.0654657
0.064977
0.0644548
0.0638507
0.0632948
0.0628886
0.0623975
0.0620371
0.0615841
0.0611103
0.0605934
0.0601192
0.0597045
0.0593469
0.0588974
0.0584985
0.0581068
0.0577271
0.0573066
0.056805
0.0564241
0.056075
0.0556642
0.0553451
0.0549956
0.0546689
0.0542861
0.0539543
0.0536032
0.0533373
0.0529714
0.0526853
0.0523557
0.052018
0.0516743
0.0512916
0.0509335
0.0505527
0.0501611
0.0497714
0.0493327
0.0489989
0.0486485
0.0481918
0.0477408
0.0472667
)
;

boundaryField
{
    inlet
    {
        type            fixedValue;
        value           uniform 0.2;
    }
    outlet
    {
        type            zeroGradient;
    }
    yzfaces
    {
        type            empty;
    }
}


// ************************************************************************* //
