/*--------------------------------*- C++ -*----------------------------------*\
| =========                 |                                                 |
| \\      /  F ield         | foam-extend: Open Source CFD                    |
|  \\    /   O peration     | Version:     5.0                                |
|   \\  /    A nd           | Web:         http://www.foam-extend.org         |
|    \\/     M anipulation  |                                                 |
\*---------------------------------------------------------------------------*/
FoamFile
{
    version     2.0;
    format      ascii;
    class       volScalarField;
    location    "8";
    object      Cl.water;
}
// * * * * * * * * * * * * * * * * * * * * * * * * * * * * * * * * * * * * * //

dimensions      [0 0 0 0 0 0 0];

internalField   nonuniform List<scalar> 
100
(
0.00395106
0.00541632
0.00652011
0.00724981
0.00746071
0.0077426
0.00819372
0.00876799
0.0093283
0.00977381
0.0100682
0.0103694
0.0107194
0.010988
0.0112471
0.0115362
0.0117748
0.0119645
0.0122024
0.0123717
0.0125287
0.0127438
0.0128752
0.0129554
0.0129904
0.0130327
0.0131196
0.01323
0.0133441
0.0134496
0.0135543
0.0136784
0.0138087
0.0139267
0.0140457
0.0141278
0.0142096
0.0142821
0.0143627
0.01446
0.0145407
0.014618
0.0147017
0.0147679
0.0148348
0.0148974
0.0149578
0.0150177
0.0150918
0.0151564
0.0152226
0.0152789
0.0153351
0.0153991
0.0154537
0.0155088
0.0155661
0.0156369
0.0157019
0.0157518
0.0158028
0.0158478
0.015895
0.0159522
0.0160072
0.0160607
0.0161088
0.0161471
0.0161936
0.016245
0.0162906
0.0163328
0.0163825
0.0164327
0.0164806
0.0165238
0.0165681
0.0166087
0.0166464
0.0166819
0.0167312
0.0167677
0.0168035
0.016844
0.0168883
0.0169243
0.0169596
0.0169992
0.0170365
0.0170808
0.017128
0.0171711
0.0172154
0.01726
0.0173011
0.0173413
0.0173845
0.0174308
0.0174864
0.0175381
)
;

boundaryField
{
    inlet
    {
        type            fixedValue;
        value           uniform 0;
    }
    outlet
    {
        type            zeroGradient;
    }
    yzfaces
    {
        type            empty;
    }
}


// ************************************************************************* //
