/*--------------------------------*- C++ -*----------------------------------*\
| =========                 |                                                 |
| \\      /  F ield         | foam-extend: Open Source CFD                    |
|  \\    /   O peration     | Version:     5.0                                |
|   \\  /    A nd           | Web:         http://www.foam-extend.org         |
|    \\/     M anipulation  |                                                 |
\*---------------------------------------------------------------------------*/
FoamFile
{
    version     2.0;
    format      ascii;
    class       volScalarField;
    location    "8";
    object      Cl.water;
}
// * * * * * * * * * * * * * * * * * * * * * * * * * * * * * * * * * * * * * //

dimensions      [0 0 0 0 0 0 0];

internalField   nonuniform List<scalar> 
100
(
0.00394946
0.00542307
0.00644083
0.00721944
0.0074568
0.00776273
0.00823259
0.00878356
0.00932672
0.00971429
0.0100609
0.0103888
0.0107133
0.0109803
0.0112589
0.0115408
0.0117304
0.0119073
0.0121448
0.0123243
0.0124979
0.0127057
0.0128473
0.0129274
0.0129669
0.0130077
0.0130719
0.0131774
0.013286
0.0133824
0.0135441
0.0136656
0.0137935
0.0139204
0.0140343
0.0141329
0.0142124
0.0142871
0.0143587
0.0144467
0.0145215
0.0145986
0.0146898
0.0147596
0.0148276
0.0148898
0.0149433
0.0150019
0.0150713
0.0151374
0.0152054
0.0152666
0.0153424
0.0153922
0.0154521
0.0154991
0.0155594
0.0156249
0.0156819
0.0157466
0.0158023
0.0158418
0.0158986
0.0159572
0.0160056
0.0160684
0.0161168
0.0161602
0.0162008
0.0162563
0.0163069
0.0163462
0.0163881
0.0164307
0.0164811
0.0165238
0.0165728
0.0166073
0.0166443
0.0166851
0.0167308
0.0167779
0.0168172
0.0168548
0.016896
0.0169371
0.0169714
0.0170117
0.0170491
0.017091
0.0171273
0.017172
0.0172114
0.0172493
0.0172957
0.0173374
0.0173846
0.0174354
0.0174879
0.0175512
)
;

boundaryField
{
    inlet
    {
        type            fixedValue;
        value           uniform 0;
    }
    outlet
    {
        type            zeroGradient;
    }
    yzfaces
    {
        type            empty;
    }
}


// ************************************************************************* //
