/*--------------------------------*- C++ -*----------------------------------*\
| =========                 |                                                 |
| \\      /  F ield         | foam-extend: Open Source CFD                    |
|  \\    /   O peration     | Version:     5.0                                |
|   \\  /    A nd           | Web:         http://www.foam-extend.org         |
|    \\/     M anipulation  |                                                 |
\*---------------------------------------------------------------------------*/
FoamFile
{
    version     2.0;
    format      ascii;
    class       volScalarField;
    location    "8";
    object      CO2.gas;
}
// * * * * * * * * * * * * * * * * * * * * * * * * * * * * * * * * * * * * * //

dimensions      [0 0 0 0 0 0 0];

internalField   nonuniform List<scalar> 
100
(
0.165319
0.152541
0.142926
0.136611
0.134713
0.132393
0.128426
0.1234
0.118489
0.114613
0.112079
0.109428
0.106451
0.104153
0.101925
0.0993227
0.0972588
0.0956207
0.0935291
0.0921133
0.0907526
0.0887698
0.0876955
0.0870136
0.0867262
0.0863235
0.0855414
0.0845759
0.0836165
0.0827152
0.0818058
0.0807315
0.079592
0.0785643
0.0774677
0.076783
0.0760689
0.0754417
0.0747526
0.0738894
0.0732087
0.0725293
0.0718416
0.0712454
0.0706576
0.0701274
0.0696218
0.069135
0.0684661
0.0679386
0.0673221
0.066832
0.0663857
0.0658276
0.0653382
0.0648505
0.0643293
0.0637263
0.0631715
0.0627661
0.062276
0.0619162
0.0614642
0.0609913
0.0604754
0.0600021
0.0595883
0.0592313
0.0587827
0.0583846
0.0579936
0.0576147
0.057195
0.0566944
0.0563142
0.0559658
0.0555558
0.0552374
0.0548885
0.0545624
0.0541804
0.0538492
0.0534988
0.0532335
0.0528682
0.0525827
0.0522538
0.0519167
0.0515737
0.0511917
0.0508343
0.0504543
0.0500634
0.0496745
0.0492366
0.0489035
0.0485538
0.048098
0.0476478
0.0471746
)
;

boundaryField
{
    inlet
    {
        type            fixedValue;
        value           uniform 0.2;
    }
    outlet
    {
        type            zeroGradient;
    }
    yzfaces
    {
        type            empty;
    }
}


// ************************************************************************* //
