/*--------------------------------*- C++ -*----------------------------------*\
| =========                 |                                                 |
| \\      /  F ield         | foam-extend: Open Source CFD                    |
|  \\    /   O peration     | Version:     5.0                                |
|   \\  /    A nd           | Web:         http://www.foam-extend.org         |
|    \\/     M anipulation  |                                                 |
\*---------------------------------------------------------------------------*/
FoamFile
{
    version     2.0;
    format      ascii;
    class       volScalarField;
    location    "8";
    object      CO2.water;
}
// * * * * * * * * * * * * * * * * * * * * * * * * * * * * * * * * * * * * * //

dimensions      [0 0 0 0 0 0 0];

internalField   nonuniform List<scalar> 
100
(
0.000902413
0.00123868
0.00149171
0.00165788
0.00170782
0.00176888
0.00187328
0.00200553
0.00213478
0.00223677
0.00230345
0.00237324
0.00245158
0.00251205
0.00257068
0.00263915
0.00269347
0.00273657
0.00279162
0.00282887
0.00286468
0.00291686
0.00294513
0.00296308
0.00297064
0.00298124
0.00300182
0.00302723
0.00305247
0.00307619
0.00310012
0.0031284
0.00315838
0.00318543
0.00321428
0.0032323
0.00325109
0.0032676
0.00328574
0.00330845
0.00332636
0.00334424
0.00336234
0.00337803
0.0033935
0.00340745
0.00342076
0.00343357
0.00345117
0.00346505
0.00348127
0.00349417
0.00350592
0.0035206
0.00353348
0.00354632
0.00356003
0.0035759
0.0035905
0.00360117
0.00361407
0.00362353
0.00363543
0.00364787
0.00366145
0.00367391
0.0036848
0.00369419
0.003706
0.00371647
0.00372676
0.00373673
0.00374778
0.00376095
0.00377095
0.00378012
0.00379091
0.00379929
0.00380847
0.00381705
0.00382711
0.00383582
0.00384504
0.00385203
0.00386164
0.00386915
0.00387781
0.00388668
0.00389571
0.00390576
0.00391516
0.00392516
0.00393545
0.00394569
0.00395721
0.00396597
0.00397518
0.00398717
0.00399902
0.00401147
)
;

boundaryField
{
    inlet
    {
        type            fixedValue;
        value           uniform 0;
    }
    outlet
    {
        type            zeroGradient;
    }
    yzfaces
    {
        type            empty;
    }
}


// ************************************************************************* //
