/*--------------------------------*- C++ -*----------------------------------*\
| =========                 |                                                 |
| \\      /  F ield         | foam-extend: Open Source CFD                    |
|  \\    /   O peration     | Version:     5.0                                |
|   \\  /    A nd           | Web:         http://www.foam-extend.org         |
|    \\/     M anipulation  |                                                 |
\*---------------------------------------------------------------------------*/
FoamFile
{
    version     2.0;
    format      ascii;
    class       volScalarField;
    location    "8";
    object      CO2.water;
}
// * * * * * * * * * * * * * * * * * * * * * * * * * * * * * * * * * * * * * //

dimensions      [0 0 0 0 0 0 0];

internalField   nonuniform List<scalar> 
100
(
0.00090264
0.00123973
0.00147311
0.00165059
0.00170494
0.00177421
0.00188251
0.00200881
0.00213283
0.00222256
0.00230068
0.00237755
0.00245227
0.00251269
0.00257677
0.00264123
0.00268425
0.00272304
0.00277865
0.00281987
0.00285865
0.00290713
0.00293814
0.00295654
0.00296598
0.00297399
0.00298925
0.00301438
0.00304016
0.00306199
0.00309891
0.00312617
0.00315558
0.00318429
0.00321059
0.00323183
0.00325036
0.00326706
0.00328313
0.00330405
0.00332099
0.00333839
0.00336017
0.00337621
0.003391
0.00340529
0.00341873
0.00343276
0.00344805
0.00346373
0.00347914
0.00349359
0.00351
0.00352194
0.00353526
0.00354652
0.00356071
0.00357655
0.00358965
0.00360344
0.00361773
0.00362642
0.00363886
0.00365238
0.00366308
0.00367703
0.00368604
0.00369668
0.00370773
0.00372001
0.00373081
0.00373878
0.00375057
0.00376031
0.00377193
0.00378065
0.00379173
0.00379952
0.00380792
0.00381782
0.00382807
0.00383817
0.00384727
0.00385593
0.0038644
0.00387245
0.00388091
0.00388946
0.00389992
0.00390953
0.00391783
0.00392824
0.00393851
0.00394767
0.00395788
0.00396663
0.00397759
0.0039891
0.00400041
0.00401419
)
;

boundaryField
{
    inlet
    {
        type            fixedValue;
        value           uniform 0;
    }
    outlet
    {
        type            zeroGradient;
    }
    yzfaces
    {
        type            empty;
    }
}


// ************************************************************************* //
