/*--------------------------------*- C++ -*----------------------------------*\
| =========                 |                                                 |
| \\      /  F ield         | foam-extend: Open Source CFD                    |
|  \\    /   O peration     | Version:     5.0                                |
|   \\  /    A nd           | Web:         http://www.foam-extend.org         |
|    \\/     M anipulation  |                                                 |
\*---------------------------------------------------------------------------*/
FoamFile
{
    version     2.0;
    format      ascii;
    class       volScalarField;
    location    "8";
    object      CO2.gas;
}
// * * * * * * * * * * * * * * * * * * * * * * * * * * * * * * * * * * * * * //

dimensions      [0 0 0 0 0 0 0];

internalField   nonuniform List<scalar> 
100
(
0.16531
0.152501
0.143633
0.136888
0.134823
0.132191
0.128075
0.123276
0.118563
0.115153
0.112185
0.109264
0.106424
0.104128
0.101693
0.0992436
0.0976091
0.0961348
0.0940218
0.0924556
0.0909819
0.0891395
0.0879613
0.087262
0.0869033
0.086599
0.086019
0.0850639
0.0840843
0.0832549
0.0818519
0.0808161
0.0796986
0.0786074
0.0776082
0.0768009
0.0760967
0.0754624
0.0748516
0.0740564
0.0734128
0.0727517
0.071924
0.0713146
0.0707526
0.0702095
0.0696987
0.0691657
0.0685845
0.0679889
0.0674032
0.0668542
0.0662304
0.0657767
0.0652707
0.0648426
0.0643036
0.0637015
0.0632039
0.06268
0.0621367
0.0618066
0.0613337
0.06082
0.0604135
0.0598832
0.0595409
0.0591366
0.0587169
0.0582503
0.0578396
0.057537
0.0570888
0.0567188
0.056277
0.0559457
0.0555249
0.0552286
0.0549095
0.0545333
0.0541437
0.05376
0.0534141
0.0530853
0.0527633
0.0524575
0.0521359
0.0518111
0.0514135
0.0510484
0.0507331
0.0503373
0.049947
0.0495989
0.049211
0.0488784
0.0484619
0.0480249
0.0475948
0.0470714
)
;

boundaryField
{
    inlet
    {
        type            fixedValue;
        value           uniform 0.2;
    }
    outlet
    {
        type            zeroGradient;
    }
    yzfaces
    {
        type            empty;
    }
}


// ************************************************************************* //
