/*--------------------------------*- C++ -*----------------------------------*\
| =========                 |                                                 |
| \\      /  F ield         | foam-extend: Open Source CFD                    |
|  \\    /   O peration     | Version:     5.0                                |
|   \\  /    A nd           | Web:         http://www.foam-extend.org         |
|    \\/     M anipulation  |                                                 |
\*---------------------------------------------------------------------------*/
FoamFile
{
    version     2.0;
    format      ascii;
    class       volScalarField;
    location    "8";
    object      H2O.gas;
}
// * * * * * * * * * * * * * * * * * * * * * * * * * * * * * * * * * * * * * //

dimensions      [0 0 0 0 0 0 0];

internalField   nonuniform List<scalar> 
100
(
0.000322582
0.000297648
0.000278887
0.000266565
0.000262862
0.000258335
0.000250594
0.000240787
0.000231204
0.000223642
0.000218697
0.000213523
0.000207714
0.00020323
0.000198882
0.000193806
0.000189778
0.000186582
0.000182501
0.000179738
0.000177083
0.000173214
0.000171118
0.000169787
0.000169226
0.00016844
0.000166914
0.00016503
0.000163158
0.0001614
0.000159625
0.000157529
0.000155306
0.0001533
0.00015116
0.000149824
0.000148431
0.000147207
0.000145863
0.000144178
0.00014285
0.000141524
0.000140182
0.000139019
0.000137872
0.000136838
0.000135851
0.000134901
0.000133596
0.000132567
0.000131364
0.000130407
0.000129536
0.000128447
0.000127493
0.000126541
0.000125524
0.000124347
0.000123265
0.000122474
0.000121517
0.000120815
0.000119933
0.000119011
0.000118004
0.00011708
0.000116273
0.000115576
0.000114701
0.000113924
0.000113161
0.000112422
0.000111603
0.000110626
0.000109884
0.000109204
0.000108404
0.000107783
0.000107102
0.000106466
0.000105721
0.000105074
0.000104391
0.000103873
0.00010316
0.000102603
0.000101961
0.000101304
0.000100634
9.9889e-05
9.91916e-05
9.84499e-05
9.76873e-05
9.69283e-05
9.60739e-05
9.54239e-05
9.47416e-05
9.38522e-05
9.29738e-05
9.20505e-05
)
;

boundaryField
{
    inlet
    {
        type            fixedValue;
        value           uniform 0;
    }
    outlet
    {
        type            zeroGradient;
    }
    yzfaces
    {
        type            empty;
    }
}


// ************************************************************************* //
