/*--------------------------------*- C++ -*----------------------------------*\
| =========                 |                                                 |
| \\      /  F ield         | foam-extend: Open Source CFD                    |
|  \\    /   O peration     | Version:     5.0                                |
|   \\  /    A nd           | Web:         http://www.foam-extend.org         |
|    \\/     M anipulation  |                                                 |
\*---------------------------------------------------------------------------*/
FoamFile
{
    version     2.0;
    format      ascii;
    class       volScalarField;
    location    "8";
    object      H2O.water;
}
// * * * * * * * * * * * * * * * * * * * * * * * * * * * * * * * * * * * * * //

dimensions      [0 0 0 0 0 0 0];

internalField   nonuniform List<scalar> 
100
(
0.0255671
0.0351197
0.0417352
0.0467597
0.048297
0.0502482
0.0533249
0.0569042
0.0604188
0.0629663
0.0651719
0.0673629
0.0694791
0.0711878
0.073001
0.0748338
0.0760472
0.0771332
0.0787189
0.0798853
0.0809824
0.0823627
0.0832332
0.0837583
0.0840265
0.0842453
0.0846782
0.0853934
0.086128
0.0867445
0.0877927
0.0885656
0.0894045
0.0902112
0.0909636
0.0915576
0.0920838
0.0925584
0.0930107
0.0936055
0.0940828
0.0945744
0.0951997
0.095649
0.0960629
0.0964673
0.0968512
0.0972509
0.0976849
0.0981323
0.0985682
0.0989747
0.09944
0.0997758
0.100155
0.10047
0.100872
0.101324
0.101695
0.102087
0.102499
0.102733
0.103086
0.103473
0.103773
0.104175
0.10442
0.104727
0.105043
0.105392
0.105695
0.105912
0.106258
0.106531
0.106863
0.107106
0.107425
0.107638
0.107875
0.108159
0.10845
0.108735
0.108996
0.109241
0.109481
0.109706
0.109946
0.110188
0.110491
0.110758
0.110994
0.11129
0.11158
0.111836
0.112126
0.112368
0.112684
0.113011
0.113327
0.113725
)
;

boundaryField
{
    inlet
    {
        type            fixedValue;
        value           uniform 0;
    }
    outlet
    {
        type            zeroGradient;
    }
    yzfaces
    {
        type            empty;
    }
}


// ************************************************************************* //
