/*--------------------------------*- C++ -*----------------------------------*\
| =========                 |                                                 |
| \\      /  F ield         | foam-extend: Open Source CFD                    |
|  \\    /   O peration     | Version:     5.0                                |
|   \\  /    A nd           | Web:         http://www.foam-extend.org         |
|    \\/     M anipulation  |                                                 |
\*---------------------------------------------------------------------------*/
FoamFile
{
    version     2.0;
    format      ascii;
    class       volScalarField;
    location    "8";
    object      H2O.water;
}
// * * * * * * * * * * * * * * * * * * * * * * * * * * * * * * * * * * * * * //

dimensions      [0 0 0 0 0 0 0];

internalField   nonuniform List<scalar> 
100
(
0.0255561
0.0350951
0.0422696
0.0469707
0.048395
0.0500918
0.0530577
0.0568134
0.0604799
0.0633699
0.0652505
0.067238
0.0694505
0.0711597
0.0728232
0.0747737
0.0763068
0.0775313
0.0790956
0.0801338
0.0811519
0.0826521
0.0834321
0.0839419
0.0841525
0.0844612
0.0850418
0.0857615
0.0864722
0.0871463
0.0878233
0.0886239
0.0894735
0.0902439
0.0910683
0.0915712
0.092105
0.0925696
0.0930805
0.0937328
0.0942392
0.0947476
0.0952533
0.095702
0.0961419
0.0965342
0.0969095
0.0972718
0.0977736
0.0981626
0.0986246
0.0989915
0.0993192
0.0997372
0.100101
0.100464
0.100853
0.101306
0.101718
0.102017
0.102388
0.102648
0.102993
0.103344
0.103734
0.104086
0.104393
0.104653
0.104994
0.105289
0.105582
0.105866
0.106173
0.106556
0.106836
0.107088
0.107398
0.107628
0.107893
0.108133
0.108423
0.108669
0.108936
0.109124
0.109405
0.109611
0.10986
0.110109
0.110367
0.110652
0.110916
0.1112
0.111489
0.11178
0.11211
0.112349
0.112609
0.112955
0.113289
0.113644
)
;

boundaryField
{
    inlet
    {
        type            fixedValue;
        value           uniform 0;
    }
    outlet
    {
        type            zeroGradient;
    }
    yzfaces
    {
        type            empty;
    }
}


// ************************************************************************* //
