/*--------------------------------*- C++ -*----------------------------------*\
| =========                 |                                                 |
| \\      /  F ield         | foam-extend: Open Source CFD                    |
|  \\    /   O peration     | Version:     5.0                                |
|   \\  /    A nd           | Web:         http://www.foam-extend.org         |
|    \\/     M anipulation  |                                                 |
\*---------------------------------------------------------------------------*/
FoamFile
{
    version     2.0;
    format      ascii;
    class       volScalarField;
    location    "8";
    object      H2O.gas;
}
// * * * * * * * * * * * * * * * * * * * * * * * * * * * * * * * * * * * * * //

dimensions      [0 0 0 0 0 0 0];

internalField   nonuniform List<scalar> 
100
(
0.000322565
0.00029757
0.000280266
0.000267106
0.000263075
0.00025794
0.00024991
0.000240544
0.000231348
0.000224695
0.000218902
0.000213203
0.000207663
0.000203183
0.000198431
0.000193651
0.000190462
0.000187585
0.000183462
0.000180406
0.00017753
0.000173935
0.000171636
0.000170272
0.000169572
0.000168978
0.000167846
0.000165983
0.000164071
0.000162453
0.000159715
0.000157694
0.000155514
0.000153384
0.000151435
0.000149859
0.000148485
0.000147248
0.000146056
0.000144504
0.000143248
0.000141958
0.000140343
0.000139154
0.000138058
0.000136998
0.000136001
0.000134961
0.000133827
0.000132665
0.000131522
0.000130451
0.000129234
0.000128348
0.000127361
0.000126526
0.000125474
0.000124299
0.000123328
0.000122306
0.000121246
0.000120601
0.000119679
0.000118676
0.000117883
0.000116848
0.00011618
0.000115391
0.000114573
0.000113662
0.000112861
0.00011227
0.000111396
0.000110674
0.000109812
0.000109165
0.000108344
0.000107766
0.000107143
0.000106409
0.000105649
0.0001049
0.000104225
0.000103584
0.000102956
0.000102359
0.000101731
0.000101097
0.000100322
9.96093e-05
9.89939e-05
9.82217e-05
9.74601e-05
9.67809e-05
9.6024e-05
9.5375e-05
9.45623e-05
9.37095e-05
9.28703e-05
9.1849e-05
)
;

boundaryField
{
    inlet
    {
        type            fixedValue;
        value           uniform 0;
    }
    outlet
    {
        type            zeroGradient;
    }
    yzfaces
    {
        type            empty;
    }
}


// ************************************************************************* //
