/*--------------------------------*- C++ -*----------------------------------*\
| =========                 |                                                 |
| \\      /  F ield         | foam-extend: Open Source CFD                    |
|  \\    /   O peration     | Version:     5.0                                |
|   \\  /    A nd           | Web:         http://www.foam-extend.org         |
|    \\/     M anipulation  |                                                 |
\*---------------------------------------------------------------------------*/
FoamFile
{
    version     2.0;
    format      ascii;
    class       volScalarField;
    location    "8";
    object      Na.water;
}
// * * * * * * * * * * * * * * * * * * * * * * * * * * * * * * * * * * * * * //

dimensions      [0 0 0 0 0 0 0];

internalField   nonuniform List<scalar> 
100
(
0.00394903
0.00541155
0.00651413
0.00724405
0.00746044
0.00774537
0.00819875
0.00877209
0.00933686
0.00978256
0.0100799
0.0103783
0.0107202
0.0109844
0.0112356
0.0115344
0.0117763
0.0119604
0.0121988
0.0123725
0.012525
0.0127441
0.0128809
0.0129563
0.0129911
0.0130329
0.0131285
0.0132404
0.0133515
0.0134514
0.0135569
0.0136804
0.0138121
0.0139264
0.0140528
0.0141359
0.014217
0.0142918
0.0143727
0.0144651
0.0145421
0.0146194
0.0147009
0.0147676
0.0148344
0.0148967
0.0149543
0.0150069
0.0150838
0.0151447
0.0152181
0.015273
0.0153245
0.015387
0.0154464
0.0155042
0.0155665
0.0156303
0.0156948
0.0157418
0.0157976
0.0158433
0.0158922
0.0159459
0.0160041
0.0160604
0.0161091
0.0161591
0.0162087
0.016251
0.0162934
0.0163377
0.0163903
0.0164457
0.0164888
0.0165329
0.0165784
0.0166191
0.0166569
0.0166989
0.0167325
0.0167729
0.016812
0.0168431
0.0168738
0.0169099
0.016947
0.0169875
0.0170269
0.0170698
0.017107
0.0171513
0.0171989
0.017243
0.0172992
0.0173447
0.0173833
0.0174351
0.0174844
0.0175396
)
;

boundaryField
{
    inlet
    {
        type            fixedValue;
        value           uniform 0;
    }
    outlet
    {
        type            zeroGradient;
    }
    yzfaces
    {
        type            empty;
    }
}


// ************************************************************************* //
