/*--------------------------------*- C++ -*----------------------------------*\
| =========                 |                                                 |
| \\      /  F ield         | foam-extend: Open Source CFD                    |
|  \\    /   O peration     | Version:     5.0                                |
|   \\  /    A nd           | Web:         http://www.foam-extend.org         |
|    \\/     M anipulation  |                                                 |
\*---------------------------------------------------------------------------*/
FoamFile
{
    version     2.0;
    format      ascii;
    class       volScalarField;
    location    "8";
    object      Na.water;
}
// * * * * * * * * * * * * * * * * * * * * * * * * * * * * * * * * * * * * * //

dimensions      [0 0 0 0 0 0 0];

internalField   nonuniform List<scalar> 
100
(
0.00394806
0.00541922
0.00643813
0.00721509
0.0074556
0.00776633
0.00823488
0.00878729
0.00932754
0.00971891
0.0100631
0.0103938
0.0107234
0.0109876
0.0112718
0.0115469
0.0117386
0.011914
0.0121524
0.0123345
0.0125017
0.012711
0.0128485
0.0129256
0.0129677
0.013005
0.0130739
0.0131848
0.0132974
0.0133937
0.0135526
0.0136688
0.0137922
0.0139234
0.0140319
0.0141269
0.0142083
0.0142777
0.0143498
0.0144427
0.0145186
0.0145949
0.0146859
0.0147615
0.0148278
0.0148911
0.0149521
0.0150137
0.0150774
0.0151449
0.0152126
0.0152805
0.0153479
0.0154051
0.0154599
0.0155148
0.015579
0.0156487
0.0157067
0.015761
0.0158228
0.0158715
0.0159229
0.0159786
0.0160269
0.0160792
0.0161201
0.0161643
0.0162172
0.0162678
0.0163151
0.0163538
0.016403
0.0164482
0.016497
0.0165342
0.016577
0.0166188
0.0166563
0.0166985
0.0167414
0.0167841
0.0168215
0.0168598
0.0168928
0.0169245
0.0169639
0.0169983
0.0170465
0.0170931
0.0171292
0.0171739
0.0172254
0.0172712
0.0173131
0.0173541
0.017397
0.0174462
0.0174974
0.0175463
)
;

boundaryField
{
    inlet
    {
        type            fixedValue;
        value           uniform 0;
    }
    outlet
    {
        type            zeroGradient;
    }
    yzfaces
    {
        type            empty;
    }
}


// ************************************************************************* //
