/*--------------------------------*- C++ -*----------------------------------*\
| =========                 |                                                 |
| \\      /  F ield         | foam-extend: Open Source CFD                    |
|  \\    /   O peration     | Version:     5.0                                |
|   \\  /    A nd           | Web:         http://www.foam-extend.org         |
|    \\/     M anipulation  |                                                 |
\*---------------------------------------------------------------------------*/
FoamFile
{
    version     2.0;
    format      ascii;
    class       volScalarField;
    location    "8";
    object      Ns;
}
// * * * * * * * * * * * * * * * * * * * * * * * * * * * * * * * * * * * * * //

dimensions      [0 -3 0 0 1 0 0];

internalField   nonuniform List<scalar> 
100
(
2094.09
2007.37
1951.57
1970.73
2032.89
1988.21
1971.23
1901.37
1861.97
1847.96
1851.43
1824.92
1840.01
1767.51
1816.18
1775.92
1773.79
1788.28
1752.76
1788.81
1753.61
1764.66
1804.51
1814.2
1805.64
1779.58
2177.74
1907.35
1798.25
1781.13
1765.17
1778.79
1762.26
1784.81
1753.08
1769.43
1795.13
1777.81
1775.26
1756.5
1772.06
1802.88
1748.71
1752.46
2124.85
1864.98
1770.95
1793.11
1780.64
1769.87
1770.37
1747.11
1770.57
1782.89
1771.46
1778.67
1767.02
1785.47
1772.77
1773.08
1792.56
1773.48
2144.67
1852.85
1792.18
1793.79
1787.64
1765.22
1772.5
1796.41
1777.52
1789.9
1780.36
1768.86
1773.02
1779.64
1753.86
2142.19
1868.52
1799.97
1791.66
1777.16
1787.38
1831.87
1847.45
1905.63
1915.89
1930.93
1976.85
1788.45
1949.8
1969.84
1742
1938.47
1751.18
1936.54
1754.24
1944.51
1762.22
1942.08
)
;

boundaryField
{
    inlet
    {
        type            fixedValue;
        value           uniform 0;
    }
    outlet
    {
        type            zeroGradient;
    }
    yzfaces
    {
        type            empty;
    }
}


// ************************************************************************* //
