/*--------------------------------*- C++ -*----------------------------------*\
| =========                 |                                                 |
| \\      /  F ield         | foam-extend: Open Source CFD                    |
|  \\    /   O peration     | Version:     5.0                                |
|   \\  /    A nd           | Web:         http://www.foam-extend.org         |
|    \\/     M anipulation  |                                                 |
\*---------------------------------------------------------------------------*/
FoamFile
{
    version     2.0;
    format      ascii;
    class       surfaceScalarField;
    location    "8";
    object      phi;
}
// * * * * * * * * * * * * * * * * * * * * * * * * * * * * * * * * * * * * * //

dimensions      [0 3 -1 0 0 0 0];

internalField   nonuniform List<scalar> 
99
(
1.22119e-06
1.22597e-06
1.22274e-06
1.22448e-06
1.22646e-06
1.21233e-06
1.20552e-06
1.20329e-06
1.20094e-06
1.19728e-06
1.18961e-06
1.18913e-06
1.18699e-06
1.18316e-06
1.18491e-06
1.1818e-06
1.17998e-06
1.18307e-06
1.1882e-06
1.17909e-06
1.17853e-06
1.18376e-06
1.18504e-06
1.17506e-06
1.17297e-06
1.17485e-06
1.17579e-06
1.1745e-06
1.17164e-06
1.16862e-06
1.16592e-06
1.16318e-06
1.16156e-06
1.16096e-06
1.16646e-06
1.16683e-06
1.16799e-06
1.16903e-06
1.16819e-06
1.16859e-06
1.1687e-06
1.17363e-06
1.17264e-06
1.17427e-06
1.17551e-06
1.17374e-06
1.17215e-06
1.17141e-06
1.17125e-06
1.17056e-06
1.17068e-06
1.17216e-06
1.17114e-06
1.17022e-06
1.16782e-06
1.16495e-06
1.16428e-06
1.16589e-06
1.16369e-06
1.16192e-06
1.16246e-06
1.16036e-06
1.16274e-06
1.16097e-06
1.16601e-06
1.16812e-06
1.17154e-06
1.16953e-06
1.16889e-06
1.1696e-06
1.17173e-06
1.17526e-06
1.17311e-06
1.17711e-06
1.17944e-06
1.17831e-06
1.17848e-06
1.17415e-06
1.17281e-06
1.16988e-06
1.17015e-06
1.17027e-06
1.1749e-06
1.17213e-06
1.17649e-06
1.17311e-06
1.17486e-06
1.17443e-06
1.17728e-06
1.17772e-06
1.17946e-06
1.17862e-06
1.17663e-06
1.17427e-06
1.1752e-06
1.17075e-06
1.16753e-06
1.16564e-06
1.16393e-06
)
;

boundaryField
{
    inlet
    {
        type            calculated;
        value           uniform -1.225e-06;
    }
    outlet
    {
        type            calculated;
        value           uniform 1.16277e-06;
    }
    yzfaces
    {
        type            empty;
    }
}


// ************************************************************************* //
