/*--------------------------------*- C++ -*----------------------------------*\
| =========                 |                                                 |
| \\      /  F ield         | foam-extend: Open Source CFD                    |
|  \\    /   O peration     | Version:     5.0                                |
|   \\  /    A nd           | Web:         http://www.foam-extend.org         |
|    \\/     M anipulation  |                                                 |
\*---------------------------------------------------------------------------*/
FoamFile
{
    version     2.0;
    format      ascii;
    class       surfaceScalarField;
    location    "8";
    object      phi;
}
// * * * * * * * * * * * * * * * * * * * * * * * * * * * * * * * * * * * * * //

dimensions      [0 3 -1 0 0 0 0];

internalField   nonuniform List<scalar> 
99
(
1.2263e-06
1.21673e-06
1.21672e-06
1.21435e-06
1.20749e-06
1.20115e-06
1.19081e-06
1.19109e-06
1.18855e-06
1.18611e-06
1.17757e-06
1.17602e-06
1.1801e-06
1.17899e-06
1.18093e-06
1.18349e-06
1.19247e-06
1.18243e-06
1.18259e-06
1.1816e-06
1.17812e-06
1.1781e-06
1.18126e-06
1.18021e-06
1.17955e-06
1.17541e-06
1.17302e-06
1.16827e-06
1.16662e-06
1.16749e-06
1.16578e-06
1.16747e-06
1.17275e-06
1.17437e-06
1.17965e-06
1.17822e-06
1.1771e-06
1.18027e-06
1.17828e-06
1.1758e-06
1.17742e-06
1.17365e-06
1.17758e-06
1.17731e-06
1.17542e-06
1.17482e-06
1.17075e-06
1.17367e-06
1.17414e-06
1.1746e-06
1.17709e-06
1.17679e-06
1.17767e-06
1.17907e-06
1.17795e-06
1.17509e-06
1.1718e-06
1.17113e-06
1.1735e-06
1.17118e-06
1.17698e-06
1.17469e-06
1.17307e-06
1.1713e-06
1.17238e-06
1.17352e-06
1.16914e-06
1.16836e-06
1.17256e-06
1.17234e-06
1.17249e-06
1.16798e-06
1.16879e-06
1.16867e-06
1.17053e-06
1.17018e-06
1.17199e-06
1.16933e-06
1.16731e-06
1.1669e-06
1.16855e-06
1.16572e-06
1.16791e-06
1.16693e-06
1.1691e-06
1.16746e-06
1.16542e-06
1.16557e-06
1.16713e-06
1.16672e-06
1.16851e-06
1.17025e-06
1.17117e-06
1.16913e-06
1.16824e-06
1.16439e-06
1.16421e-06
1.16375e-06
1.16036e-06
)
;

boundaryField
{
    inlet
    {
        type            calculated;
        value           uniform -1.225e-06;
    }
    outlet
    {
        type            calculated;
        value           uniform 1.16471e-06;
    }
    yzfaces
    {
        type            empty;
    }
}


// ************************************************************************* //
