/*--------------------------------*- C++ -*----------------------------------*\
| =========                 |                                                 |
| \\      /  F ield         | foam-extend: Open Source CFD                    |
|  \\    /   O peration     | Version:     5.0                                |
|   \\  /    A nd           | Web:         http://www.foam-extend.org         |
|    \\/     M anipulation  |                                                 |
\*---------------------------------------------------------------------------*/
FoamFile
{
    version     2.0;
    format      ascii;
    class       surfaceScalarField;
    location    "8";
    object      phi.water;
}
// * * * * * * * * * * * * * * * * * * * * * * * * * * * * * * * * * * * * * //

dimensions      [0 3 -1 0 0 0 0];

internalField   nonuniform List<scalar> 
99
(
7.32567e-08
1.27063e-07
1.74852e-07
2.24567e-07
2.35471e-07
2.50799e-07
2.79727e-07
3.2217e-07
3.708e-07
4.07868e-07
4.41021e-07
4.78537e-07
5.20866e-07
5.55383e-07
5.95476e-07
6.41923e-07
6.75989e-07
6.97332e-07
7.42634e-07
7.74095e-07
8.03835e-07
8.49367e-07
8.82348e-07
9.01336e-07
9.09362e-07
9.12873e-07
9.24621e-07
9.46361e-07
9.74064e-07
9.93775e-07
1.03469e-06
1.06849e-06
1.10755e-06
1.14582e-06
1.18401e-06
1.2113e-06
1.23584e-06
1.26184e-06
1.28107e-06
1.30818e-06
1.33476e-06
1.35592e-06
1.39511e-06
1.41871e-06
1.43987e-06
1.46249e-06
1.48036e-06
1.50582e-06
1.53215e-06
1.5613e-06
1.58996e-06
1.6151e-06
1.64799e-06
1.67131e-06
1.69575e-06
1.71157e-06
1.73317e-06
1.76382e-06
1.79248e-06
1.81768e-06
1.85772e-06
1.86988e-06
1.89362e-06
1.92033e-06
1.94399e-06
1.97802e-06
1.98915e-06
2.01314e-06
2.0444e-06
2.07255e-06
2.09784e-06
2.10687e-06
2.13901e-06
2.16082e-06
2.19266e-06
2.21334e-06
2.24512e-06
2.25742e-06
2.27581e-06
2.29896e-06
2.32835e-06
2.3496e-06
2.37757e-06
2.39969e-06
2.42681e-06
2.44393e-06
2.4622e-06
2.48574e-06
2.51786e-06
2.54359e-06
2.57174e-06
2.60453e-06
2.63539e-06
2.65708e-06
2.68435e-06
2.70083e-06
2.7321e-06
2.76367e-06
2.79036e-06
)
;

boundaryField
{
    inlet
    {
        type            fixedValue;
        value           uniform 0;
    }
    outlet
    {
        type            calculated;
        value           uniform 2.84655e-06;
    }
    yzfaces
    {
        type            empty;
    }
}


// ************************************************************************* //
