/*--------------------------------*- C++ -*----------------------------------*\
| =========                 |                                                 |
| \\      /  F ield         | foam-extend: Open Source CFD                    |
|  \\    /   O peration     | Version:     5.0                                |
|   \\  /    A nd           | Web:         http://www.foam-extend.org         |
|    \\/     M anipulation  |                                                 |
\*---------------------------------------------------------------------------*/
FoamFile
{
    version     2.0;
    format      ascii;
    class       surfaceScalarField;
    location    "8";
    object      phi.water;
}
// * * * * * * * * * * * * * * * * * * * * * * * * * * * * * * * * * * * * * //

dimensions      [0 3 -1 0 0 0 0];

internalField   nonuniform List<scalar> 
99
(
7.29113e-08
1.26843e-07
1.80193e-07
2.27783e-07
2.40991e-07
2.51921e-07
2.797e-07
3.23512e-07
3.74871e-07
4.19736e-07
4.47239e-07
4.80471e-07
5.23011e-07
5.56111e-07
5.91733e-07
6.37318e-07
6.75435e-07
7.08193e-07
7.56692e-07
7.79999e-07
8.10555e-07
8.6598e-07
8.9165e-07
9.03201e-07
9.08711e-07
9.19685e-07
9.40145e-07
9.64188e-07
9.90346e-07
1.01233e-06
1.03638e-06
1.06498e-06
1.09977e-06
1.13224e-06
1.17656e-06
1.20047e-06
1.2271e-06
1.24982e-06
1.27285e-06
1.30641e-06
1.33488e-06
1.36579e-06
1.3918e-06
1.41865e-06
1.44441e-06
1.46512e-06
1.48495e-06
1.5031e-06
1.53419e-06
1.55697e-06
1.58595e-06
1.61031e-06
1.62977e-06
1.65588e-06
1.67673e-06
1.69725e-06
1.72066e-06
1.75305e-06
1.78017e-06
1.79808e-06
1.82562e-06
1.84067e-06
1.86912e-06
1.89292e-06
1.93084e-06
1.96192e-06
1.99175e-06
2.0079e-06
2.03587e-06
2.06039e-06
2.08821e-06
2.11729e-06
2.13813e-06
2.17968e-06
2.20729e-06
2.22693e-06
2.25393e-06
2.26584e-06
2.28742e-06
2.30214e-06
2.33014e-06
2.35234e-06
2.38783e-06
2.39844e-06
2.43395e-06
2.44741e-06
2.47336e-06
2.49732e-06
2.5278e-06
2.55734e-06
2.58597e-06
2.61338e-06
2.63889e-06
2.66255e-06
2.69901e-06
2.71171e-06
2.73223e-06
2.7627e-06
2.7945e-06
)
;

boundaryField
{
    inlet
    {
        type            fixedValue;
        value           uniform 0;
    }
    outlet
    {
        type            calculated;
        value           uniform 2.83481e-06;
    }
    yzfaces
    {
        type            empty;
    }
}


// ************************************************************************* //
