/*--------------------------------*- C++ -*----------------------------------*\
| =========                 |                                                 |
| \\      /  F ield         | foam-extend: Open Source CFD                    |
|  \\    /   O peration     | Version:     5.0                                |
|   \\  /    A nd           | Web:         http://www.foam-extend.org         |
|    \\/     M anipulation  |                                                 |
\*---------------------------------------------------------------------------*/
FoamFile
{
    version     2.0;
    format      ascii;
    class       volVectorField;
    location    "8";
    object      U.gas;
}
// * * * * * * * * * * * * * * * * * * * * * * * * * * * * * * * * * * * * * //

dimensions      [0 1 -1 0 0 0 0];

internalField   nonuniform List<vector> 
100
(
(0.0060333 0 0)
(0.00650043 0 0)
(0.00685358 0 0)
(0.00716102 0 0)
(0.00722709 0 0)
(0.00732064 0 0)
(0.00748651 0 0)
(0.00771852 0 0)
(0.00798314 0 0)
(0.00816753 0 0)
(0.00831285 0 0)
(0.00846452 0 0)
(0.00866205 0 0)
(0.0088262 0 0)
(0.00900109 0 0)
(0.00919552 0 0)
(0.00935394 0 0)
(0.00945886 0 0)
(0.00958723 0 0)
(0.00969913 0 0)
(0.00979561 0 0)
(0.00993265 0 0)
(0.0100302 0 0)
(0.0100874 0 0)
(0.010103 0 0)
(0.0101061 0 0)
(0.0101297 0 0)
(0.0101836 0 0)
(0.0102353 0 0)
(0.0102968 0 0)
(0.0104219 0 0)
(0.0104992 0 0)
(0.0106258 0 0)
(0.0107483 0 0)
(0.0108624 0 0)
(0.0109437 0 0)
(0.0109877 0 0)
(0.0110488 0 0)
(0.0111055 0 0)
(0.011158 0 0)
(0.0112033 0 0)
(0.0112488 0 0)
(0.0113247 0 0)
(0.0113858 0 0)
(0.0114205 0 0)
(0.0114524 0 0)
(0.0114697 0 0)
(0.011509 0 0)
(0.0115766 0 0)
(0.0116295 0 0)
(0.0116912 0 0)
(0.0117455 0 0)
(0.0118005 0 0)
(0.0118388 0 0)
(0.0118822 0 0)
(0.0118911 0 0)
(0.0119081 0 0)
(0.0119377 0 0)
(0.0119786 0 0)
(0.0120198 0 0)
(0.0120778 0 0)
(0.0121066 0 0)
(0.0121291 0 0)
(0.0121503 0 0)
(0.0121685 0 0)
(0.0122243 0 0)
(0.0122173 0 0)
(0.0122209 0 0)
(0.0122672 0 0)
(0.012322 0 0)
(0.0123426 0 0)
(0.0123307 0 0)
(0.0123487 0 0)
(0.0123672 0 0)
(0.0124086 0 0)
(0.0124262 0 0)
(0.0124633 0 0)
(0.0124646 0 0)
(0.0124576 0 0)
(0.0124686 0 0)
(0.0124972 0 0)
(0.0125082 0 0)
(0.0125174 0 0)
(0.0125363 0 0)
(0.0125539 0 0)
(0.0125678 0 0)
(0.0125631 0 0)
(0.0125661 0 0)
(0.0125975 0 0)
(0.0126133 0 0)
(0.0126242 0 0)
(0.012663 0 0)
(0.0126891 0 0)
(0.0126874 0 0)
(0.0126853 0 0)
(0.01266 0 0)
(0.0126567 0 0)
(0.0126656 0 0)
(0.0126494 0 0)
(0.0126731 0 0)
)
;

boundaryField
{
    inlet
    {
        type            fixedValue;
        value           uniform (0.005 0 0);
    }
    outlet
    {
        type            zeroGradient;
    }
    yzfaces
    {
        type            empty;
    }
}


// ************************************************************************* //
