/*--------------------------------*- C++ -*----------------------------------*\
| =========                 |                                                 |
| \\      /  F ield         | foam-extend: Open Source CFD                    |
|  \\    /   O peration     | Version:     5.0                                |
|   \\  /    A nd           | Web:         http://www.foam-extend.org         |
|    \\/     M anipulation  |                                                 |
\*---------------------------------------------------------------------------*/
FoamFile
{
    version     2.0;
    format      ascii;
    class       volVectorField;
    location    "8";
    object      U.gas;
}
// * * * * * * * * * * * * * * * * * * * * * * * * * * * * * * * * * * * * * //

dimensions      [0 1 -1 0 0 0 0];

internalField   nonuniform List<vector> 
100
(
(0.00602043 0 0)
(0.00650974 0 0)
(0.00692977 0 0)
(0.00722182 0 0)
(0.00731922 0 0)
(0.00740114 0 0)
(0.00754837 0 0)
(0.00779951 0 0)
(0.00807084 0 0)
(0.00828403 0 0)
(0.00839881 0 0)
(0.00854281 0 0)
(0.00873486 0 0)
(0.00886627 0 0)
(0.00901487 0 0)
(0.00920096 0 0)
(0.00932896 0 0)
(0.00945249 0 0)
(0.00965104 0 0)
(0.0097369 0 0)
(0.0098028 0 0)
(0.00998835 0 0)
(0.0100889 0 0)
(0.0101014 0 0)
(0.0100659 0 0)
(0.0100994 0 0)
(0.0101817 0 0)
(0.0102629 0 0)
(0.010323 0 0)
(0.0103699 0 0)
(0.0104202 0 0)
(0.0104887 0 0)
(0.0105657 0 0)
(0.0106388 0 0)
(0.0107548 0 0)
(0.0108273 0 0)
(0.0108945 0 0)
(0.0109548 0 0)
(0.0110159 0 0)
(0.0110926 0 0)
(0.011145 0 0)
(0.0112249 0 0)
(0.0113027 0 0)
(0.0113524 0 0)
(0.0114151 0 0)
(0.0114542 0 0)
(0.011478 0 0)
(0.0115064 0 0)
(0.0115644 0 0)
(0.0115957 0 0)
(0.0116466 0 0)
(0.0116888 0 0)
(0.0117243 0 0)
(0.0117633 0 0)
(0.0117809 0 0)
(0.0117909 0 0)
(0.0118151 0 0)
(0.0118722 0 0)
(0.0119081 0 0)
(0.0119084 0 0)
(0.011943 0 0)
(0.0119533 0 0)
(0.0119931 0 0)
(0.0120305 0 0)
(0.0120854 0 0)
(0.012152 0 0)
(0.0122038 0 0)
(0.0122309 0 0)
(0.0122517 0 0)
(0.0122729 0 0)
(0.0123129 0 0)
(0.0123649 0 0)
(0.0124014 0 0)
(0.0124471 0 0)
(0.012492 0 0)
(0.0125157 0 0)
(0.0125389 0 0)
(0.0125266 0 0)
(0.0125168 0 0)
(0.0125092 0 0)
(0.0125191 0 0)
(0.0125325 0 0)
(0.0125751 0 0)
(0.0125883 0 0)
(0.0126234 0 0)
(0.0126315 0 0)
(0.0126403 0 0)
(0.0126622 0 0)
(0.0126887 0 0)
(0.0127241 0 0)
(0.0127458 0 0)
(0.0127649 0 0)
(0.0127596 0 0)
(0.0127462 0 0)
(0.0127554 0 0)
(0.0127331 0 0)
(0.0127008 0 0)
(0.0126935 0 0)
(0.0126807 0 0)
(0.0126724 0 0)
)
;

boundaryField
{
    inlet
    {
        type            fixedValue;
        value           uniform (0.005 0 0);
    }
    outlet
    {
        type            zeroGradient;
    }
    yzfaces
    {
        type            empty;
    }
}


// ************************************************************************* //
