/*--------------------------------*- C++ -*----------------------------------*\
| =========                 |                                                 |
| \\      /  F ield         | foam-extend: Open Source CFD                    |
|  \\    /   O peration     | Version:     5.0                                |
|   \\  /    A nd           | Web:         http://www.foam-extend.org         |
|    \\/     M anipulation  |                                                 |
\*---------------------------------------------------------------------------*/
FoamFile
{
    version     2.0;
    format      ascii;
    class       volVectorField;
    location    "8";
    object      U.water;
}
// * * * * * * * * * * * * * * * * * * * * * * * * * * * * * * * * * * * * * //

dimensions      [0 1 -1 0 0 0 0];

internalField   nonuniform List<vector> 
100
(
(3.53308e-05 0 0)
(8.27775e-05 0 0)
(0.00012498 0 0)
(0.000164144 0 0)
(0.000191725 0 0)
(0.000202774 0 0)
(0.000218442 0 0)
(0.000246843 0 0)
(0.000284771 0 0)
(0.000323506 0 0)
(0.000354316 0 0)
(0.000379289 0 0)
(0.000409227 0 0)
(0.000440805 0 0)
(0.000469252 0 0)
(0.000501128 0 0)
(0.000535334 0 0)
(0.000565266 0 0)
(0.000596994 0 0)
(0.000627552 0 0)
(0.000650288 0 0)
(0.000682592 0 0)
(0.000716783 0 0)
(0.000732397 0 0)
(0.000740002 0 0)
(0.000746852 0 0)
(0.000759385 0 0)
(0.000777484 0 0)
(0.000798063 0 0)
(0.000817819 0 0)
(0.000836878 0 0)
(0.000858328 0 0)
(0.000883846 0 0)
(0.000911164 0 0)
(0.000941277 0 0)
(0.000970139 0 0)
(0.000990748 0 0)
(0.00101137 0 0)
(0.00103031 0 0)
(0.00105233 0 0)
(0.00107773 0 0)
(0.00110213 0 0)
(0.00112543 0 0)
(0.00114713 0 0)
(0.00116836 0 0)
(0.00118745 0 0)
(0.00120411 0 0)
(0.00122012 0 0)
(0.00123948 0 0)
(0.00126209 0 0)
(0.00128261 0 0)
(0.00130452 0 0)
(0.00132301 0 0)
(0.0013413 0 0)
(0.00136063 0 0)
(0.00137762 0 0)
(0.00139556 0 0)
(0.00141785 0 0)
(0.001442 0 0)
(0.00146105 0 0)
(0.00147901 0 0)
(0.00149708 0 0)
(0.00151443 0 0)
(0.00153548 0 0)
(0.00156011 0 0)
(0.00158805 0 0)
(0.00161331 0 0)
(0.00163287 0 0)
(0.00165033 0 0)
(0.00167164 0 0)
(0.00169271 0 0)
(0.00171618 0 0)
(0.00173687 0 0)
(0.00176135 0 0)
(0.00179003 0 0)
(0.00181017 0 0)
(0.00182898 0 0)
(0.00184555 0 0)
(0.00185906 0 0)
(0.00187387 0 0)
(0.00189071 0 0)
(0.001911 0 0)
(0.00193411 0 0)
(0.00195378 0 0)
(0.00197201 0 0)
(0.00199253 0 0)
(0.00200861 0 0)
(0.00202882 0 0)
(0.00205093 0 0)
(0.00207512 0 0)
(0.00209922 0 0)
(0.00212235 0 0)
(0.00214424 0 0)
(0.0021644 0 0)
(0.00218834 0 0)
(0.0022094 0 0)
(0.00222345 0 0)
(0.00224355 0 0)
(0.00226888 0 0)
(0.00229611 0 0)
)
;

boundaryField
{
    inlet
    {
        type            fixedValue;
        value           uniform (0 0 0);
    }
    outlet
    {
        type            zeroGradient;
    }
    yzfaces
    {
        type            empty;
    }
}


// ************************************************************************* //
