/*--------------------------------*- C++ -*----------------------------------*\
| =========                 |                                                 |
| \\      /  F ield         | foam-extend: Open Source CFD                    |
|  \\    /   O peration     | Version:     5.0                                |
|   \\  /    A nd           | Web:         http://www.foam-extend.org         |
|    \\/     M anipulation  |                                                 |
\*---------------------------------------------------------------------------*/
FoamFile
{
    version     2.0;
    format      ascii;
    class       volVectorField;
    location    "8";
    object      U.water;
}
// * * * * * * * * * * * * * * * * * * * * * * * * * * * * * * * * * * * * * //

dimensions      [0 1 -1 0 0 0 0];

internalField   nonuniform List<vector> 
100
(
(3.55205e-05 0 0)
(8.26366e-05 0 0)
(0.000123467 0 0)
(0.000160772 0 0)
(0.000188432 0 0)
(0.000199983 0 0)
(0.000217648 0 0)
(0.000246316 0 0)
(0.000282343 0 0)
(0.000317807 0 0)
(0.000346756 0 0)
(0.000375396 0 0)
(0.000407331 0 0)
(0.000439463 0 0)
(0.000469856 0 0)
(0.000504071 0 0)
(0.000537851 0 0)
(0.000561816 0 0)
(0.000587456 0 0)
(0.000619283 0 0)
(0.00064488 0 0)
(0.000673999 0 0)
(0.000706295 0 0)
(0.000727608 0 0)
(0.000739129 0 0)
(0.000744698 0 0)
(0.000751175 0 0)
(0.000763991 0 0)
(0.000783632 0 0)
(0.000804279 0 0)
(0.000827479 0 0)
(0.00085848 0 0)
(0.000887866 0 0)
(0.000919352 0 0)
(0.000950364 0 0)
(0.000977398 0 0)
(0.000998708 0 0)
(0.00101935 0 0)
(0.00103828 0 0)
(0.00105657 0 0)
(0.00107895 0 0)
(0.00109872 0 0)
(0.00112229 0 0)
(0.0011484 0 0)
(0.00116715 0 0)
(0.00118507 0 0)
(0.00120147 0 0)
(0.001219 0 0)
(0.00123983 0 0)
(0.00126214 0 0)
(0.00128567 0 0)
(0.00130809 0 0)
(0.00133137 0 0)
(0.00135499 0 0)
(0.00137424 0 0)
(0.00139134 0 0)
(0.00140655 0 0)
(0.00142734 0 0)
(0.0014518 0 0)
(0.00147337 0 0)
(0.00149913 0 0)
(0.00152192 0 0)
(0.00153663 0 0)
(0.00155662 0 0)
(0.0015776 0 0)
(0.00160035 0 0)
(0.00161989 0 0)
(0.00163392 0 0)
(0.00165603 0 0)
(0.00167994 0 0)
(0.00170215 0 0)
(0.00171716 0 0)
(0.00173276 0 0)
(0.00175489 0 0)
(0.00177624 0 0)
(0.00179821 0 0)
(0.00181905 0 0)
(0.00183804 0 0)
(0.00185095 0 0)
(0.0018675 0 0)
(0.00188872 0 0)
(0.00190925 0 0)
(0.00192918 0 0)
(0.00194947 0 0)
(0.00196966 0 0)
(0.00198815 0 0)
(0.00200272 0 0)
(0.00201971 0 0)
(0.00204177 0 0)
(0.00206544 0 0)
(0.00208786 0 0)
(0.00211233 0 0)
(0.00213836 0 0)
(0.00216037 0 0)
(0.0021803 0 0)
(0.00219886 0 0)
(0.00221787 0 0)
(0.00224343 0 0)
(0.00226767 0 0)
(0.00229854 0 0)
)
;

boundaryField
{
    inlet
    {
        type            fixedValue;
        value           uniform (0 0 0);
    }
    outlet
    {
        type            zeroGradient;
    }
    yzfaces
    {
        type            empty;
    }
}


// ************************************************************************* //
