/*--------------------------------*- C++ -*----------------------------------*\
| =========                 |                                                 |
| \\      /  F ield         | foam-extend: Open Source CFD                    |
|  \\    /   O peration     | Version:     5.0                                |
|   \\  /    A nd           | Web:         http://www.foam-extend.org         |
|    \\/     M anipulation  |                                                 |
\*---------------------------------------------------------------------------*/
FoamFile
{
    version     2.0;
    format      ascii;
    class       volScalarField;
    location    "9";
    object      alpha.gas;
}
// * * * * * * * * * * * * * * * * * * * * * * * * * * * * * * * * * * * * * //

dimensions      [0 0 0 0 0 0 0];

internalField   nonuniform List<scalar> 
100
(
0.169523
0.157367
0.148557
0.140862
0.134771
0.129611
0.126491
0.126327
0.125591
0.119086
0.115548
0.112291
0.110057
0.107481
0.10489
0.103011
0.102426
0.100751
0.0987294
0.0968491
0.0957615
0.0947951
0.0931177
0.0913649
0.0897981
0.0877123
0.0862047
0.085282
0.0846416
0.0837736
0.0831325
0.0829109
0.0827379
0.0819892
0.0812944
0.0803221
0.079622
0.0789267
0.0779675
0.0770759
0.0762536
0.0755032
0.0748801
0.0744444
0.0740388
0.0734442
0.0726456
0.0716376
0.070734
0.0700087
0.0693917
0.0688962
0.068457
0.067857
0.067308
0.0666553
0.0659461
0.065387
0.0647534
0.0642174
0.063876
0.0634542
0.0629372
0.0624581
0.0617854
0.0610612
0.0603409
0.0597584
0.0592097
0.0583408
0.0576253
0.0569617
0.0562575
0.0552779
0.0544266
0.0533059
0.0519281
0.0501934
0.0478428
0.0440576
0.037601
0.024419
0.0223564
0.0223179
0.0227528
0.0231345
0.0233907
0.0235519
0.0236574
0.0237469
0.0238245
0.0238958
0.0239617
0.0240407
0.0241121
0.0241725
0.0242374
0.024307
0.0243705
0.0244324
)
;

boundaryField
{
    inlet
    {
        type            fixedValue;
        value           uniform 0.2;
    }
    outlet
    {
        type            zeroGradient;
    }
    yzfaces
    {
        type            empty;
    }
}


// ************************************************************************* //
