/*--------------------------------*- C++ -*----------------------------------*\
| =========                 |                                                 |
| \\      /  F ield         | foam-extend: Open Source CFD                    |
|  \\    /   O peration     | Version:     5.0                                |
|   \\  /    A nd           | Web:         http://www.foam-extend.org         |
|    \\/     M anipulation  |                                                 |
\*---------------------------------------------------------------------------*/
FoamFile
{
    version     2.0;
    format      ascii;
    class       volScalarField;
    location    "9";
    object      CO2.water;
}
// * * * * * * * * * * * * * * * * * * * * * * * * * * * * * * * * * * * * * //

dimensions      [0 0 0 0 0 0 0];

internalField   nonuniform List<scalar> 
100
(
0.000796871
0.00111829
0.00134963
0.00153524
0.00168514
0.00180874
0.00189672
0.00193451
0.00194553
0.00212478
0.00221597
0.00230227
0.00236008
0.0024273
0.00249722
0.00254691
0.00255992
0.00260279
0.00264352
0.00268737
0.00272826
0.00275566
0.00278823
0.00282766
0.00286207
0.00291019
0.00296374
0.00299996
0.0030245
0.00304721
0.00306714
0.00307519
0.00307666
0.00309888
0.00311641
0.00314284
0.00315892
0.00317559
0.00319749
0.0032215
0.00324334
0.00325953
0.00328212
0.00329515
0.00330428
0.00331817
0.0033373
0.00336086
0.00338482
0.00340588
0.00342479
0.00344235
0.00345475
0.00346568
0.00348001
0.0034939
0.00351444
0.00353166
0.00354525
0.00356612
0.00356782
0.00358077
0.00359129
0.0036086
0.00362819
0.00364687
0.00366787
0.00368307
0.00369745
0.00372049
0.00373919
0.00375675
0.00377197
0.00380049
0.00382206
0.00385188
0.00388859
0.00393243
0.00399527
0.00409492
0.00426129
0.00460162
0.00198997
0.00073872
0.000260521
9.04993e-05
3.14256e-05
1.09427e-05
3.8088e-06
1.3243e-06
4.5928e-07
1.58673e-07
5.46439e-08
1.87833e-08
6.45366e-09
2.22244e-09
7.67538e-10
2.65991e-10
9.26277e-11
3.18078e-11
)
;

boundaryField
{
    inlet
    {
        type            fixedValue;
        value           uniform 0;
    }
    outlet
    {
        type            zeroGradient;
    }
    yzfaces
    {
        type            empty;
    }
}


// ************************************************************************* //
