/*--------------------------------*- C++ -*----------------------------------*\
| =========                 |                                                 |
| \\      /  F ield         | foam-extend: Open Source CFD                    |
|  \\    /   O peration     | Version:     5.0                                |
|   \\  /    A nd           | Web:         http://www.foam-extend.org         |
|    \\/     M anipulation  |                                                 |
\*---------------------------------------------------------------------------*/
FoamFile
{
    version     2.0;
    format      ascii;
    class       volScalarField;
    location    "9";
    object      CO2.gas;
}
// * * * * * * * * * * * * * * * * * * * * * * * * * * * * * * * * * * * * * //

dimensions      [0 0 0 0 0 0 0];

internalField   nonuniform List<scalar> 
100
(
0.16872
0.157061
0.148268
0.139029
0.132383
0.126622
0.124091
0.126081
0.125346
0.118854
0.115323
0.112072
0.109843
0.107159
0.104686
0.102811
0.102227
0.100404
0.0979891
0.0959413
0.0952641
0.0943375
0.0923149
0.0903869
0.0886061
0.0864459
0.085376
0.0848036
0.0843718
0.0834958
0.0829115
0.0827494
0.0824879
0.0818296
0.0811361
0.0801608
0.0794214
0.0786737
0.0776462
0.0767399
0.0759195
0.0751023
0.0746522
0.0742483
0.0738196
0.0731595
0.0723508
0.0712795
0.0703765
0.0697234
0.0691505
0.0687517
0.0683237
0.067595
0.0670598
0.0663672
0.0657005
0.0651816
0.0645005
0.0640924
0.0636185
0.0632211
0.0626556
0.0622555
0.0616176
0.0609048
0.0602234
0.059642
0.0590944
0.0582272
0.0575131
0.0568508
0.0560987
0.0551702
0.0543141
0.0532021
0.051827
0.0500956
0.0477497
0.0439718
0.0375278
0.0243714
0.021997
0.0216405
0.0217266
0.021691
0.0214928
0.0211729
0.0207445
0.020245
0.0197151
0.0191194
0.0184793
0.0178081
0.0171084
0.0163849
0.0156359
0.0148589
0.0140608
0.013264
)
;

boundaryField
{
    inlet
    {
        type            fixedValue;
        value           uniform 0.2;
    }
    outlet
    {
        type            zeroGradient;
    }
    yzfaces
    {
        type            empty;
    }
}


// ************************************************************************* //
