/*--------------------------------*- C++ -*----------------------------------*\
| =========                 |                                                 |
| \\      /  F ield         | foam-extend: Open Source CFD                    |
|  \\    /   O peration     | Version:     5.0                                |
|   \\  /    A nd           | Web:         http://www.foam-extend.org         |
|    \\/     M anipulation  |                                                 |
\*---------------------------------------------------------------------------*/
FoamFile
{
    version     2.0;
    format      ascii;
    class       volScalarField;
    location    "9";
    object      Na.water;
}
// * * * * * * * * * * * * * * * * * * * * * * * * * * * * * * * * * * * * * //

dimensions      [0 0 0 0 0 0 0];

internalField   nonuniform List<scalar> 
100
(
0.00348239
0.00489326
0.00590126
0.00671457
0.0073706
0.00790684
0.00829764
0.00845563
0.00850721
0.00928999
0.00969048
0.0100618
0.0103102
0.0106113
0.0109235
0.0111326
0.0111968
0.0113825
0.0115642
0.0117535
0.0119261
0.0120423
0.0121888
0.0123608
0.0125071
0.0127219
0.0129547
0.013115
0.0132208
0.0133177
0.0133925
0.0134401
0.0134482
0.0135435
0.0136282
0.0137372
0.0138097
0.0138812
0.0139788
0.0140812
0.0141731
0.014249
0.014349
0.0144076
0.0144497
0.0145046
0.0145909
0.0146934
0.0147992
0.0148912
0.0149739
0.0150541
0.0151045
0.0151438
0.0152134
0.0152758
0.0153579
0.0154332
0.0154964
0.0155866
0.0155983
0.0156491
0.0157
0.0157703
0.015857
0.0159413
0.016031
0.0160968
0.0161667
0.0162614
0.0163414
0.0164211
0.0164865
0.0166106
0.0167034
0.0168355
0.0169946
0.0171815
0.0174642
0.0178975
0.0186185
0.0200799
0.0209351
0.0212851
0.0213814
0.0213725
0.0213609
0.0213707
0.0213597
0.0213451
0.0213566
0.0213487
0.0213362
0.0213229
0.0213125
0.0213135
0.0213133
0.0213045
0.0212915
0.0212799
)
;

boundaryField
{
    inlet
    {
        type            fixedValue;
        value           uniform 0;
    }
    outlet
    {
        type            zeroGradient;
    }
    yzfaces
    {
        type            empty;
    }
}


// ************************************************************************* //
