/*--------------------------------*- C++ -*----------------------------------*\
| =========                 |                                                 |
| \\      /  F ield         | foam-extend: Open Source CFD                    |
|  \\    /   O peration     | Version:     5.0                                |
|   \\  /    A nd           | Web:         http://www.foam-extend.org         |
|    \\/     M anipulation  |                                                 |
\*---------------------------------------------------------------------------*/
FoamFile
{
    version     2.0;
    format      ascii;
    class       surfaceScalarField;
    location    "9";
    object      phi.water;
}
// * * * * * * * * * * * * * * * * * * * * * * * * * * * * * * * * * * * * * //

dimensions      [0 3 -1 0 0 0 0];

internalField   nonuniform List<scalar> 
99
(
6.10757e-08
1.09463e-07
1.50244e-07
1.96537e-07
2.3653e-07
2.80712e-07
3.09682e-07
3.06821e-07
2.99841e-07
3.66371e-07
4.02769e-07
4.4074e-07
4.6851e-07
5.05579e-07
5.46188e-07
5.75082e-07
5.85611e-07
6.13133e-07
6.50069e-07
6.86989e-07
7.10172e-07
7.2353e-07
7.5794e-07
8.04117e-07
8.34214e-07
8.87915e-07
9.27965e-07
9.55432e-07
9.6957e-07
9.94554e-07
1.01776e-06
1.02054e-06
1.03259e-06
1.04866e-06
1.06883e-06
1.09689e-06
1.117e-06
1.13351e-06
1.16683e-06
1.19738e-06
1.22773e-06
1.25769e-06
1.2825e-06
1.3028e-06
1.31503e-06
1.3385e-06
1.36888e-06
1.41063e-06
1.45106e-06
1.48739e-06
1.51285e-06
1.53134e-06
1.55297e-06
1.58343e-06
1.60943e-06
1.63121e-06
1.66993e-06
1.69674e-06
1.73558e-06
1.7609e-06
1.78176e-06
1.80106e-06
1.83107e-06
1.85114e-06
1.88634e-06
1.93093e-06
1.97232e-06
1.99634e-06
2.03372e-06
2.08231e-06
2.12679e-06
2.16721e-06
2.21531e-06
2.27141e-06
2.33218e-06
2.39999e-06
2.49324e-06
2.60755e-06
2.78189e-06
3.06596e-06
3.56929e-06
4.91669e-06
5.16106e-06
5.16746e-06
5.12993e-06
5.10056e-06
5.07924e-06
5.06073e-06
5.06204e-06
5.04935e-06
5.04257e-06
5.04023e-06
5.03971e-06
5.03269e-06
5.02297e-06
5.01939e-06
5.01796e-06
5.00977e-06
5.00204e-06
)
;

boundaryField
{
    inlet
    {
        type            fixedValue;
        value           uniform 0;
    }
    outlet
    {
        type            calculated;
        value           uniform 4.98836e-06;
    }
    yzfaces
    {
        type            empty;
    }
}


// ************************************************************************* //
