/*--------------------------------*- C++ -*----------------------------------*\
| =========                 |                                                 |
| \\      /  F ield         | foam-extend: Open Source CFD                    |
|  \\    /   O peration     | Version:     5.0                                |
|   \\  /    A nd           | Web:         http://www.foam-extend.org         |
|    \\/     M anipulation  |                                                 |
\*---------------------------------------------------------------------------*/
FoamFile
{
    version     2.0;
    format      ascii;
    class       volVectorField;
    location    "9";
    object      U.gas;
}
// * * * * * * * * * * * * * * * * * * * * * * * * * * * * * * * * * * * * * //

dimensions      [0 1 -1 0 0 0 0];

internalField   nonuniform List<vector> 
100
(
(0.00588252 0 0)
(0.00633789 0 0)
(0.00668617 0 0)
(0.00699976 0 0)
(0.00722783 0 0)
(0.00744572 0 0)
(0.00760718 0 0)
(0.00761532 0 0)
(0.00764327 0 0)
(0.00795513 0 0)
(0.00809366 0 0)
(0.00825123 0 0)
(0.00838196 0 0)
(0.00856828 0 0)
(0.00873837 0 0)
(0.00886154 0 0)
(0.00891838 0 0)
(0.00901801 0 0)
(0.00914757 0 0)
(0.00928547 0 0)
(0.00937887 0 0)
(0.00943755 0 0)
(0.00952915 0 0)
(0.00967639 0 0)
(0.00979557 0 0)
(0.00994614 0 0)
(0.0100818 0 0)
(0.010195 0 0)
(0.0102634 0 0)
(0.0103279 0 0)
(0.0103947 0 0)
(0.0104102 0 0)
(0.0104719 0 0)
(0.0105504 0 0)
(0.0105884 0 0)
(0.010621 0 0)
(0.0106565 0 0)
(0.010676 0 0)
(0.0107454 0 0)
(0.0108287 0 0)
(0.0108969 0 0)
(0.0109694 0 0)
(0.0110447 0 0)
(0.0111001 0 0)
(0.0111439 0 0)
(0.011197 0 0)
(0.0112639 0 0)
(0.0113552 0 0)
(0.011442 0 0)
(0.0115262 0 0)
(0.0115878 0 0)
(0.0116089 0 0)
(0.0116416 0 0)
(0.0117125 0 0)
(0.0117538 0 0)
(0.0117849 0 0)
(0.0118339 0 0)
(0.0118878 0 0)
(0.0119603 0 0)
(0.0120096 0 0)
(0.0120401 0 0)
(0.0120588 0 0)
(0.0121013 0 0)
(0.0121335 0 0)
(0.0121837 0 0)
(0.0122529 0 0)
(0.012321 0 0)
(0.0123417 0 0)
(0.0123737 0 0)
(0.0124349 0 0)
(0.0124678 0 0)
(0.012498 0 0)
(0.0125525 0 0)
(0.0126101 0 0)
(0.0126651 0 0)
(0.0127213 0 0)
(0.0127831 0 0)
(0.012876 0 0)
(0.013039 0 0)
(0.0132719 0 0)
(0.0136312 0 0)
(0.0144453 0 0)
(0.0102391 0 0)
(0.00931789 0 0)
(0.0092865 0 0)
(0.00943341 0 0)
(0.0095648 0 0)
(0.00964948 0 0)
(0.00970989 0 0)
(0.00974894 0 0)
(0.00977597 0 0)
(0.00980358 0 0)
(0.00983199 0 0)
(0.00985275 0 0)
(0.00987171 0 0)
(0.00989594 0 0)
(0.00992223 0 0)
(0.00994216 0 0)
(0.00995552 0 0)
(0.0099599 0 0)
)
;

boundaryField
{
    inlet
    {
        type            fixedValue;
        value           uniform (0.005 0 0);
    }
    outlet
    {
        type            zeroGradient;
    }
    yzfaces
    {
        type            empty;
    }
}


// ************************************************************************* //
