/*--------------------------------*- C++ -*----------------------------------*\
| =========                 |                                                 |
| \\      /  F ield         | foam-extend: Open Source CFD                    |
|  \\    /   O peration     | Version:     5.0                                |
|   \\  /    A nd           | Web:         http://www.foam-extend.org         |
|    \\/     M anipulation  |                                                 |
\*---------------------------------------------------------------------------*/
FoamFile
{
    version     2.0;
    format      ascii;
    class       volVectorField;
    location    "9";
    object      U.water;
}
// * * * * * * * * * * * * * * * * * * * * * * * * * * * * * * * * * * * * * //

dimensions      [0 1 -1 0 0 0 0];

internalField   nonuniform List<vector> 
100
(
(2.9959e-05 0 0)
(7.04633e-05 0 0)
(0.000106542 0 0)
(0.000140138 0 0)
(0.000173867 0 0)
(0.000206066 0 0)
(0.000235174 0 0)
(0.000251222 0 0)
(0.000252412 0 0)
(0.000270327 0 0)
(0.000314056 0 0)
(0.000343596 0 0)
(0.00037159 0 0)
(0.000397372 0 0)
(0.000428195 0 0)
(0.000456575 0 0)
(0.000474518 0 0)
(0.000488779 0 0)
(0.000512932 0 0)
(0.000541576 0 0)
(0.000567754 0 0)
(0.00058386 0 0)
(0.000601021 0 0)
(0.000631644 0 0)
(0.000662062 0 0)
(0.000694262 0 0)
(0.000734234 0 0)
(0.000764844 0 0)
(0.000784287 0 0)
(0.000800109 0 0)
(0.000819461 0 0)
(0.000831713 0 0)
(0.000837902 0 0)
(0.000849831 0 0)
(0.000864703 0 0)
(0.000883761 0 0)
(0.000903081 0 0)
(0.000917881 0 0)
(0.000936938 0 0)
(0.000962596 0 0)
(0.000987074 0 0)
(0.00101161 0 0)
(0.00103482 0 0)
(0.00105424 0 0)
(0.00106765 0 0)
(0.00108162 0 0)
(0.00110297 0 0)
(0.00113107 0 0)
(0.00116433 0 0)
(0.00119646 0 0)
(0.00122267 0 0)
(0.00124188 0 0)
(0.00125894 0 0)
(0.00127831 0 0)
(0.00130093 0 0)
(0.00132011 0 0)
(0.00134465 0 0)
(0.00137224 0 0)
(0.00139867 0 0)
(0.00142548 0 0)
(0.0014438 0 0)
(0.00145969 0 0)
(0.00147942 0 0)
(0.00150127 0 0)
(0.00152436 0 0)
(0.00155715 0 0)
(0.00159245 0 0)
(0.00162003 0 0)
(0.00164554 0 0)
(0.00167984 0 0)
(0.00171769 0 0)
(0.00175259 0 0)
(0.00178839 0 0)
(0.0018309 0 0)
(0.0018796 0 0)
(0.00193275 0 0)
(0.00199831 0 0)
(0.00208447 0 0)
(0.0022049 0 0)
(0.00239803 0 0)
(0.00273786 0 0)
(0.00341602 0 0)
(0.00409133 0 0)
(0.00420788 0 0)
(0.00420074 0 0)
(0.0041743 0 0)
(0.00415397 0 0)
(0.00413938 0 0)
(0.0041332 0 0)
(0.00412913 0 0)
(0.00412257 0 0)
(0.00411939 0 0)
(0.00411704 0 0)
(0.00411264 0 0)
(0.00410581 0 0)
(0.00410204 0 0)
(0.00410134 0 0)
(0.00409706 0 0)
(0.00408946 0 0)
(0.00408062 0 0)
)
;

boundaryField
{
    inlet
    {
        type            fixedValue;
        value           uniform (0 0 0);
    }
    outlet
    {
        type            zeroGradient;
    }
    yzfaces
    {
        type            empty;
    }
}


// ************************************************************************* //
