/*--------------------------------*- C++ -*----------------------------------*\
| =========                 |                                                 |
| \\      /  F ield         | foam-extend: Open Source CFD                    |
|  \\    /   O peration     | Version:     5.0                                |
|   \\  /    A nd           | Web:         http://www.foam-extend.org         |
|    \\/     M anipulation  |                                                 |
\*---------------------------------------------------------------------------*/
FoamFile
{
    version     2.0;
    format      ascii;
    class       volScalarField;
    location    "6";
    object      alpha.gas;
}
// * * * * * * * * * * * * * * * * * * * * * * * * * * * * * * * * * * * * * //

dimensions      [0 0 0 0 0 0 0];

internalField   nonuniform List<scalar> 
100
(
0.159975
0.146234
0.13738
0.132403
0.128023
0.122108
0.116554
0.112648
0.109012
0.105201
0.102292
0.0993994
0.0972233
0.0948109
0.0929718
0.0907907
0.0888333
0.0874269
0.0867593
0.085886
0.084491
0.0832714
0.0817202
0.0802507
0.0787489
0.0776408
0.0767172
0.0758109
0.0751002
0.0742089
0.0731636
0.0722748
0.0714085
0.0706536
0.0698757
0.0691052
0.068411
0.0677628
0.0669488
0.0663356
0.0655273
0.0649103
0.0642673
0.0635016
0.0628302
0.0621942
0.0616243
0.0610788
0.0604077
0.0597131
0.0591557
0.0586481
0.0580162
0.0574683
0.0568539
0.0563528
0.0559133
0.0553758
0.0549523
0.0544076
0.0539205
0.0534554
0.0529834
0.0525022
0.0520371
0.0515675
0.0510359
0.050544
0.0500463
0.0495925
0.0490603
0.0484425
0.047932
0.047442
0.046902
0.0463283
0.0457402
0.0451449
0.0445619
0.0439478
0.0434205
0.0428743
0.0423132
0.0416891
0.041116
0.0404915
0.0398696
0.0392168
0.0385634
0.0378918
0.0371795
0.0364494
0.035668
0.0348473
0.0339614
0.0330085
0.0320038
0.0308883
0.0296904
0.0283613
)
;

boundaryField
{
    inlet
    {
        type            fixedValue;
        value           uniform 0.2;
    }
    outlet
    {
        type            zeroGradient;
    }
    yzfaces
    {
        type            empty;
    }
}


// ************************************************************************* //
