/*--------------------------------*- C++ -*----------------------------------*\
| =========                 |                                                 |
| \\      /  F ield         | foam-extend: Open Source CFD                    |
|  \\    /   O peration     | Version:     5.0                                |
|   \\  /    A nd           | Web:         http://www.foam-extend.org         |
|    \\/     M anipulation  |                                                 |
\*---------------------------------------------------------------------------*/
FoamFile
{
    version     2.0;
    format      ascii;
    class       volScalarField;
    location    "6";
    object      CO2.water;
}
// * * * * * * * * * * * * * * * * * * * * * * * * * * * * * * * * * * * * * //

dimensions      [0 0 0 0 0 0 0];

internalField   nonuniform List<scalar> 
100
(
0.00105123
0.00141214
0.00164468
0.0017754
0.00189045
0.00204581
0.00219167
0.00229426
0.00238977
0.00248984
0.00256626
0.00264223
0.00269938
0.00276274
0.00281105
0.00286833
0.00291974
0.00295668
0.00297422
0.00299715
0.00303379
0.00306582
0.00310657
0.00314516
0.0031846
0.00321371
0.00323797
0.00326177
0.00328044
0.00330384
0.0033313
0.00335464
0.0033774
0.00339722
0.00341765
0.00343789
0.00345612
0.00347315
0.00349453
0.00351063
0.00353186
0.00354807
0.00356496
0.00358507
0.0036027
0.00361941
0.00363437
0.0036487
0.00366633
0.00368457
0.00369921
0.00371254
0.00372914
0.00374353
0.00375967
0.00377283
0.00378437
0.00379849
0.00380961
0.00382392
0.00383671
0.00384893
0.00386132
0.00387396
0.00388618
0.00389851
0.00391247
0.00392539
0.00393846
0.00395038
0.00396436
0.00398059
0.003994
0.00400686
0.00402105
0.00403612
0.00405156
0.0040672
0.000465364
5.86745e-05
8.05404e-06
1.17749e-06
1.7888e-07
2.75359e-08
4.18666e-09
6.09778e-10
8.20258e-11
9.72813e-12
1.06186e-12
2.01866e-13
1.00111e-13
5.49034e-14
2.58453e-14
1.08633e-14
4.23095e-15
1.5652e-15
5.61018e-16
1.96813e-16
6.82308e-17
2.29524e-17
)
;

boundaryField
{
    inlet
    {
        type            fixedValue;
        value           uniform 0;
    }
    outlet
    {
        type            zeroGradient;
    }
    yzfaces
    {
        type            empty;
    }
}


// ************************************************************************* //
