/*--------------------------------*- C++ -*----------------------------------*\
| =========                 |                                                 |
| \\      /  F ield         | foam-extend: Open Source CFD                    |
|  \\    /   O peration     | Version:     5.0                                |
|   \\  /    A nd           | Web:         http://www.foam-extend.org         |
|    \\/     M anipulation  |                                                 |
\*---------------------------------------------------------------------------*/
FoamFile
{
    version     2.0;
    format      ascii;
    class       volScalarField;
    location    "6";
    object      H2O.water;
}
// * * * * * * * * * * * * * * * * * * * * * * * * * * * * * * * * * * * * * //

dimensions      [0 0 0 0 0 0 0];

internalField   nonuniform List<scalar> 
100
(
0.0299759
0.0400608
0.047451
0.049969
0.0543397
0.058603
0.0622162
0.0649442
0.0678116
0.0702788
0.0722856
0.0744788
0.0762773
0.0780156
0.0795812
0.080664
0.0822578
0.0834109
0.0841973
0.085043
0.0860834
0.0869773
0.0879105
0.0889533
0.0898565
0.0905638
0.0914363
0.0922118
0.0927732
0.0934808
0.0941191
0.0948166
0.0954931
0.0960357
0.0965889
0.0971949
0.0976909
0.0983192
0.0989972
0.0996263
0.100039
0.100589
0.101165
0.101665
0.102129
0.102578
0.103008
0.103401
0.103922
0.104346
0.10475
0.105187
0.105609
0.106002
0.106446
0.106793
0.107166
0.107553
0.107928
0.108311
0.108654
0.108996
0.109361
0.109739
0.110094
0.110421
0.110792
0.111214
0.111591
0.111948
0.112298
0.112659
0.113054
0.113449
0.113836
0.114284
0.114715
0.11517
0.115588
0.116008
0.116436
0.116859
0.117288
0.117734
0.11816
0.118616
0.121064
0.121745
0.122177
0.122637
0.12316
0.123682
0.124171
0.124809
0.125562
0.126226
0.12701
0.127876
0.128884
0.129765
)
;

boundaryField
{
    inlet
    {
        type            fixedValue;
        value           uniform 0;
    }
    outlet
    {
        type            zeroGradient;
    }
    yzfaces
    {
        type            empty;
    }
}


// ************************************************************************* //
