/*--------------------------------*- C++ -*----------------------------------*\
| =========                 |                                                 |
| \\      /  F ield         | foam-extend: Open Source CFD                    |
|  \\    /   O peration     | Version:     5.0                                |
|   \\  /    A nd           | Web:         http://www.foam-extend.org         |
|    \\/     M anipulation  |                                                 |
\*---------------------------------------------------------------------------*/
FoamFile
{
    version     2.0;
    format      ascii;
    class       volScalarField;
    location    "6";
    object      Na.water;
}
// * * * * * * * * * * * * * * * * * * * * * * * * * * * * * * * * * * * * * //

dimensions      [0 0 0 0 0 0 0];

internalField   nonuniform List<scalar> 
100
(
0.00459625
0.00617176
0.00718729
0.00775544
0.00826188
0.00893931
0.00957898
0.0100286
0.0104462
0.0108842
0.0112183
0.0115453
0.0117973
0.012074
0.0122887
0.0125394
0.0127654
0.0129241
0.0130011
0.013102
0.0132601
0.013401
0.0135777
0.0137444
0.0139165
0.0140461
0.0141533
0.014255
0.0143353
0.0144417
0.014564
0.0146682
0.0147673
0.0148525
0.0149411
0.0150249
0.0151054
0.0151822
0.0152733
0.0153428
0.0154385
0.0155081
0.0155821
0.0156707
0.015749
0.0158246
0.0158893
0.015953
0.0160277
0.016108
0.0161718
0.016231
0.0163001
0.0163624
0.0164323
0.0164905
0.0165435
0.0166054
0.0166566
0.0167189
0.0167717
0.0168278
0.0168767
0.0169309
0.016984
0.0170417
0.0171024
0.0171653
0.0172249
0.0172783
0.0173397
0.0174114
0.0174712
0.0175279
0.0175875
0.01765
0.0177153
0.0177844
0.0178491
0.0179185
0.0179793
0.0180404
0.0181033
0.018182
0.018238
0.0183125
0.0183849
0.0184612
0.0185338
0.0186131
0.0186974
0.0187784
0.0188662
0.0189557
0.0190612
0.0191723
0.0192836
0.0194148
0.0195488
0.0197018
)
;

boundaryField
{
    inlet
    {
        type            fixedValue;
        value           uniform 0;
    }
    outlet
    {
        type            zeroGradient;
    }
    yzfaces
    {
        type            empty;
    }
}


// ************************************************************************* //
