/*--------------------------------*- C++ -*----------------------------------*\
| =========                 |                                                 |
| \\      /  F ield         | foam-extend: Open Source CFD                    |
|  \\    /   O peration     | Version:     5.0                                |
|   \\  /    A nd           | Web:         http://www.foam-extend.org         |
|    \\/     M anipulation  |                                                 |
\*---------------------------------------------------------------------------*/
FoamFile
{
    version     2.0;
    format      ascii;
    class       volScalarField;
    location    "6";
    object      Na.water;
}
// * * * * * * * * * * * * * * * * * * * * * * * * * * * * * * * * * * * * * //

dimensions      [0 0 0 0 0 0 0];

internalField   nonuniform List<scalar> 
100
(
0.00462634
0.00618309
0.00732464
0.00771262
0.00838514
0.00904305
0.00960412
0.0100237
0.0104648
0.0108482
0.011156
0.0114942
0.0117757
0.0120404
0.0122793
0.0124447
0.0126956
0.0128708
0.012991
0.0131207
0.0132798
0.0134175
0.0135635
0.0137273
0.0138684
0.0139794
0.0141148
0.0142343
0.0143241
0.0144326
0.0145292
0.0146396
0.0147416
0.0148228
0.0149106
0.0150003
0.0150794
0.0151754
0.0152792
0.0153742
0.0154378
0.0155237
0.0156101
0.0156846
0.0157555
0.0158263
0.0158895
0.0159525
0.0160367
0.0161003
0.0161651
0.0162279
0.016293
0.0163508
0.016422
0.0164761
0.0165406
0.0166009
0.016659
0.0167149
0.0167673
0.0168194
0.0168733
0.0169318
0.0169884
0.0170385
0.0170979
0.017166
0.0172264
0.0172878
0.0173431
0.0173941
0.0174548
0.0175129
0.0175689
0.0176381
0.0177079
0.0177787
0.0178448
0.0179076
0.0179729
0.0180399
0.0181056
0.0181773
0.0182394
0.0183091
0.0192692
0.0194408
0.019526
0.0196031
0.0196881
0.0197683
0.0198504
0.0199402
0.0200592
0.0201683
0.0202957
0.0204388
0.0206011
0.0207335
)
;

boundaryField
{
    inlet
    {
        type            fixedValue;
        value           uniform 0;
    }
    outlet
    {
        type            zeroGradient;
    }
    yzfaces
    {
        type            empty;
    }
}


// ************************************************************************* //
