/*--------------------------------*- C++ -*----------------------------------*\
| =========                 |                                                 |
| \\      /  F ield         | foam-extend: Open Source CFD                    |
|  \\    /   O peration     | Version:     5.0                                |
|   \\  /    A nd           | Web:         http://www.foam-extend.org         |
|    \\/     M anipulation  |                                                 |
\*---------------------------------------------------------------------------*/
FoamFile
{
    version     2.0;
    format      ascii;
    class       volScalarField;
    location    "6";
    object      Ns;
}
// * * * * * * * * * * * * * * * * * * * * * * * * * * * * * * * * * * * * * //

dimensions      [0 -3 0 0 1 0 0];

internalField   nonuniform List<scalar> 
100
(
39.3304
92.7865
55.5587
202.196
86.4973
96.5618
80.8635
94.8187
61.5588
33.7006
85.1395
52.5483
55.452
45.3139
56.6638
44.3255
33.3849
83.1569
44.7385
35.26
48.2893
49.378
85.9015
40.3429
48.5923
79.2005
46.8999
81.0166
49.4991
47.2642
66.1836
52.3975
56.4087
49.145
51.2453
33.7844
68.0042
52.9199
57.6183
47.9921
80.3564
64.6688
54.1113
67.2216
69.8617
65.4145
54.5549
55.3131
64.4921
69.9982
56.4395
40.4653
73.6564
47.7313
56.142
68.8135
57.7674
63.9787
53.1297
58.0801
51.5512
61.5201
60.6523
55.9523
57.7785
55.5581
63.1236
55.3534
59.904
55.5492
60.2523
63.2912
52.8384
64.0374
62.7357
47.5537
52.882
50.253
54.7933
49.6311
52.9395
54.2109
57.3315
53.8552
54.5678
56.0703
2
2
2
2
2
2
2
2
2
2
2
2
2
2
)
;

boundaryField
{
    inlet
    {
        type            fixedValue;
        value           uniform 0;
    }
    outlet
    {
        type            zeroGradient;
    }
    yzfaces
    {
        type            empty;
    }
}


// ************************************************************************* //
