/*--------------------------------*- C++ -*----------------------------------*\
| =========                 |                                                 |
| \\      /  F ield         | foam-extend: Open Source CFD                    |
|  \\    /   O peration     | Version:     5.0                                |
|   \\  /    A nd           | Web:         http://www.foam-extend.org         |
|    \\/     M anipulation  |                                                 |
\*---------------------------------------------------------------------------*/
FoamFile
{
    version     2.0;
    format      ascii;
    class       surfaceScalarField;
    location    "6";
    object      phi;
}
// * * * * * * * * * * * * * * * * * * * * * * * * * * * * * * * * * * * * * //

dimensions      [0 3 -1 0 0 0 0];

internalField   nonuniform List<scalar> 
99
(
1.22998e-06
1.22169e-06
1.2372e-06
1.22933e-06
1.21864e-06
1.21832e-06
1.20617e-06
1.20579e-06
1.20576e-06
1.20861e-06
1.20032e-06
1.19959e-06
1.19831e-06
1.20211e-06
1.20204e-06
1.20108e-06
1.20645e-06
1.21189e-06
1.21715e-06
1.2101e-06
1.20715e-06
1.20521e-06
1.19869e-06
1.19913e-06
1.20638e-06
1.20929e-06
1.20862e-06
1.21307e-06
1.21235e-06
1.21059e-06
1.20458e-06
1.20751e-06
1.2063e-06
1.21173e-06
1.21318e-06
1.21424e-06
1.21233e-06
1.21243e-06
1.21311e-06
1.20636e-06
1.20848e-06
1.20458e-06
1.20489e-06
1.20455e-06
1.20668e-06
1.20758e-06
1.21059e-06
1.20702e-06
1.20708e-06
1.20983e-06
1.20893e-06
1.20674e-06
1.20739e-06
1.20512e-06
1.20792e-06
1.20606e-06
1.20343e-06
1.20325e-06
1.20187e-06
1.20396e-06
1.20263e-06
1.20225e-06
1.20152e-06
1.20082e-06
1.19863e-06
1.1982e-06
1.19801e-06
1.19874e-06
1.19684e-06
1.19401e-06
1.18993e-06
1.18892e-06
1.18827e-06
1.1806e-06
1.17825e-06
1.17296e-06
1.17068e-06
1.16957e-06
1.16981e-06
1.17057e-06
1.17173e-06
1.17012e-06
1.17135e-06
1.17223e-06
1.17245e-06
1.17193e-06
1.17257e-06
1.17046e-06
1.16911e-06
1.17039e-06
1.17152e-06
1.17123e-06
1.17089e-06
1.17069e-06
1.16927e-06
1.1707e-06
1.17049e-06
1.17191e-06
1.17111e-06
)
;

boundaryField
{
    inlet
    {
        type            calculated;
        value           uniform -1.225e-06;
    }
    outlet
    {
        type            calculated;
        value           uniform 1.1726e-06;
    }
    yzfaces
    {
        type            empty;
    }
}


// ************************************************************************* //
