/*--------------------------------*- C++ -*----------------------------------*\
| =========                 |                                                 |
| \\      /  F ield         | foam-extend: Open Source CFD                    |
|  \\    /   O peration     | Version:     5.0                                |
|   \\  /    A nd           | Web:         http://www.foam-extend.org         |
|    \\/     M anipulation  |                                                 |
\*---------------------------------------------------------------------------*/
FoamFile
{
    version     2.0;
    format      ascii;
    class       surfaceScalarField;
    location    "6";
    object      phi;
}
// * * * * * * * * * * * * * * * * * * * * * * * * * * * * * * * * * * * * * //

dimensions      [0 3 -1 0 0 0 0];

internalField   nonuniform List<scalar> 
99
(
1.23261e-06
1.22275e-06
1.23592e-06
1.23894e-06
1.22507e-06
1.21404e-06
1.20709e-06
1.20583e-06
1.20581e-06
1.2025e-06
1.19566e-06
1.19244e-06
1.19816e-06
1.19558e-06
1.19277e-06
1.19662e-06
1.19688e-06
1.2012e-06
1.20419e-06
1.19579e-06
1.19261e-06
1.19477e-06
1.18925e-06
1.18613e-06
1.19185e-06
1.19553e-06
1.20026e-06
1.20324e-06
1.19769e-06
1.19977e-06
1.19902e-06
1.20069e-06
1.20151e-06
1.20194e-06
1.20141e-06
1.19903e-06
1.19711e-06
1.19343e-06
1.20005e-06
1.20213e-06
1.19819e-06
1.1981e-06
1.20179e-06
1.20336e-06
1.2004e-06
1.20082e-06
1.2046e-06
1.20586e-06
1.20953e-06
1.20783e-06
1.20663e-06
1.20762e-06
1.20841e-06
1.20788e-06
1.20994e-06
1.21084e-06
1.21009e-06
1.20994e-06
1.2108e-06
1.21393e-06
1.21303e-06
1.21009e-06
1.20949e-06
1.21207e-06
1.21059e-06
1.21054e-06
1.20584e-06
1.2066e-06
1.20662e-06
1.20695e-06
1.2045e-06
1.19971e-06
1.19925e-06
1.19945e-06
1.19888e-06
1.20172e-06
1.20045e-06
1.20213e-06
1.2003e-06
1.2014e-06
1.20241e-06
1.20122e-06
1.20168e-06
1.20129e-06
1.20108e-06
1.20072e-06
1.19938e-06
1.19884e-06
1.19914e-06
1.1976e-06
1.19799e-06
1.19814e-06
1.19701e-06
1.19736e-06
1.19633e-06
1.19573e-06
1.19538e-06
1.1967e-06
1.19557e-06
)
;

boundaryField
{
    inlet
    {
        type            calculated;
        value           uniform -1.225e-06;
    }
    outlet
    {
        type            calculated;
        value           uniform 1.1993e-06;
    }
    yzfaces
    {
        type            empty;
    }
}


// ************************************************************************* //
