/*--------------------------------*- C++ -*----------------------------------*\
| =========                 |                                                 |
| \\      /  F ield         | foam-extend: Open Source CFD                    |
|  \\    /   O peration     | Version:     5.0                                |
|   \\  /    A nd           | Web:         http://www.foam-extend.org         |
|    \\/     M anipulation  |                                                 |
\*---------------------------------------------------------------------------*/
FoamFile
{
    version     2.0;
    format      ascii;
    class       surfaceScalarField;
    location    "6";
    object      phi.water;
}
// * * * * * * * * * * * * * * * * * * * * * * * * * * * * * * * * * * * * * //

dimensions      [0 3 -1 0 0 0 0];

internalField   nonuniform List<scalar> 
99
(
9.26242e-08
1.59552e-07
2.21213e-07
2.56502e-07
2.86862e-07
3.41096e-07
3.9927e-07
4.47088e-07
4.93694e-07
5.53161e-07
5.96229e-07
6.4894e-07
6.87937e-07
7.3977e-07
7.78657e-07
8.27856e-07
8.82081e-07
9.25183e-07
9.43781e-07
9.6011e-07
9.97795e-07
1.03001e-06
1.07122e-06
1.11868e-06
1.17648e-06
1.21795e-06
1.24981e-06
1.2885e-06
1.31242e-06
1.34584e-06
1.3807e-06
1.42076e-06
1.45605e-06
1.49546e-06
1.53093e-06
1.56699e-06
1.59547e-06
1.6259e-06
1.667e-06
1.68599e-06
1.73027e-06
1.75683e-06
1.78955e-06
1.8306e-06
1.87067e-06
1.90763e-06
1.94328e-06
1.96899e-06
2.00892e-06
2.05523e-06
2.08597e-06
2.113e-06
2.15468e-06
2.18534e-06
2.23082e-06
2.2579e-06
2.28381e-06
2.31998e-06
2.34487e-06
2.38725e-06
2.41942e-06
2.45105e-06
2.48237e-06
2.51728e-06
2.54592e-06
2.57761e-06
2.6189e-06
2.65727e-06
2.69135e-06
2.71775e-06
2.74982e-06
2.79867e-06
2.83557e-06
2.85719e-06
2.89492e-06
2.92861e-06
2.97335e-06
3.01958e-06
3.06982e-06
3.12575e-06
3.17343e-06
3.21653e-06
3.2706e-06
3.32906e-06
3.37978e-06
3.43653e-06
3.49432e-06
3.54765e-06
3.60613e-06
3.67286e-06
3.74421e-06
3.81261e-06
3.88542e-06
3.96329e-06
4.04511e-06
4.14195e-06
4.23817e-06
4.35087e-06
4.46302e-06
)
;

boundaryField
{
    inlet
    {
        type            fixedValue;
        value           uniform 0;
    }
    outlet
    {
        type            calculated;
        value           uniform 4.61314e-06;
    }
    yzfaces
    {
        type            empty;
    }
}


// ************************************************************************* //
