/*--------------------------------*- C++ -*----------------------------------*\
| =========                 |                                                 |
| \\      /  F ield         | foam-extend: Open Source CFD                    |
|  \\    /   O peration     | Version:     5.0                                |
|   \\  /    A nd           | Web:         http://www.foam-extend.org         |
|    \\/     M anipulation  |                                                 |
\*---------------------------------------------------------------------------*/
FoamFile
{
    version     2.0;
    format      ascii;
    class       volVectorField;
    location    "6";
    object      U.water;
}
// * * * * * * * * * * * * * * * * * * * * * * * * * * * * * * * * * * * * * //

dimensions      [0 1 -1 0 0 0 0];

internalField   nonuniform List<vector> 
100
(
(4.49723e-05 0 0)
(0.00010455 0 0)
(0.000157226 0 0)
(0.000200132 0 0)
(0.000225022 0 0)
(0.0002643 0 0)
(0.000306934 0 0)
(0.000346483 0 0)
(0.000384362 0 0)
(0.000425694 0 0)
(0.000462252 0 0)
(0.000497669 0 0)
(0.00053839 0 0)
(0.000576261 0 0)
(0.000612345 0 0)
(0.000645545 0 0)
(0.000678623 0 0)
(0.000717781 0 0)
(0.000748068 0 0)
(0.000769928 0 0)
(0.000793972 0 0)
(0.000824601 0 0)
(0.000852209 0 0)
(0.000880885 0 0)
(0.000916255 0 0)
(0.000950163 0 0)
(0.000982018 0 0)
(0.00101748 0 0)
(0.00104469 0 0)
(0.0010685 0 0)
(0.00109762 0 0)
(0.00112617 0 0)
(0.00115812 0 0)
(0.00118746 0 0)
(0.00121275 0 0)
(0.0012391 0 0)
(0.00126485 0 0)
(0.00128962 0 0)
(0.00132405 0 0)
(0.00136277 0 0)
(0.0013914 0 0)
(0.00141506 0 0)
(0.00144859 0 0)
(0.0014831 0 0)
(0.00151093 0 0)
(0.00153687 0 0)
(0.00156651 0 0)
(0.00159536 0 0)
(0.00162585 0 0)
(0.00165842 0 0)
(0.0016847 0 0)
(0.00171278 0 0)
(0.00174313 0 0)
(0.00177161 0 0)
(0.00180193 0 0)
(0.00183283 0 0)
(0.00185815 0 0)
(0.00188559 0 0)
(0.00191518 0 0)
(0.00194653 0 0)
(0.00197609 0 0)
(0.00199943 0 0)
(0.00202381 0 0)
(0.00205464 0 0)
(0.00208537 0 0)
(0.00211219 0 0)
(0.00213669 0 0)
(0.00216587 0 0)
(0.00220044 0 0)
(0.00223225 0 0)
(0.00226064 0 0)
(0.0022844 0 0)
(0.00231247 0 0)
(0.00234744 0 0)
(0.00238183 0 0)
(0.00242206 0 0)
(0.00246474 0 0)
(0.00250594 0 0)
(0.00254757 0 0)
(0.00258692 0 0)
(0.00263044 0 0)
(0.00267202 0 0)
(0.00271286 0 0)
(0.00275667 0 0)
(0.00280018 0 0)
(0.00284396 0 0)
(0.00288902 0 0)
(0.00293521 0 0)
(0.00298589 0 0)
(0.0030366 0 0)
(0.00308955 0 0)
(0.00314878 0 0)
(0.00320829 0 0)
(0.00327174 0 0)
(0.00333992 0 0)
(0.00341102 0 0)
(0.00348879 0 0)
(0.00357625 0 0)
(0.00366901 0 0)
(0.00377457 0 0)
)
;

boundaryField
{
    inlet
    {
        type            fixedValue;
        value           uniform (0 0 0);
    }
    outlet
    {
        type            zeroGradient;
    }
    yzfaces
    {
        type            empty;
    }
}


// ************************************************************************* //
