/*--------------------------------*- C++ -*----------------------------------*\
| =========                 |                                                 |
| \\      /  F ield         | foam-extend: Open Source CFD                    |
|  \\    /   O peration     | Version:     5.0                                |
|   \\  /    A nd           | Web:         http://www.foam-extend.org         |
|    \\/     M anipulation  |                                                 |
\*---------------------------------------------------------------------------*/
FoamFile
{
    version     2.0;
    format      ascii;
    class       volScalarField;
    location    "9";
    object      alpha.gas;
}
// * * * * * * * * * * * * * * * * * * * * * * * * * * * * * * * * * * * * * //

dimensions      [0 0 0 0 0 0 0];

internalField   nonuniform List<scalar> 
100
(
0.16804
0.155539
0.146931
0.140347
0.134847
0.130015
0.124883
0.120732
0.117417
0.114744
0.11291
0.111224
0.109929
0.108154
0.106013
0.103743
0.101173
0.0997271
0.0985218
0.0967192
0.0941407
0.0918749
0.090362
0.089102
0.08725
0.0857658
0.0847393
0.0840265
0.0835648
0.0832132
0.0834699
0.0837874
0.0839705
0.083789
0.083026
0.0824343
0.0820918
0.0819606
0.0819528
0.081795
0.081299
0.0809212
0.0802937
0.0795559
0.0783337
0.0771219
0.0760102
0.0748886
0.073799
0.0728123
0.0717154
0.070789
0.0701158
0.0693975
0.0686782
0.067935
0.067271
0.0664936
0.0657146
0.0650112
0.0643518
0.0637537
0.0631051
0.0625367
0.0621858
0.0617971
0.0614674
0.0611687
0.0609804
0.060726
0.060299
0.0598362
0.0593898
0.0588201
0.0582068
0.0576759
0.057135
0.0565692
0.0560315
0.0553477
0.0547106
0.054016
0.0532943
0.0524942
0.0516931
0.0506342
0.0493643
0.0478052
0.0460427
0.0415507
0.0370341
0.0338733
0.0322595
0.0317865
0.0318771
0.032185
0.0324598
0.0326805
0.0328139
0.0329371
)
;

boundaryField
{
    inlet
    {
        type            fixedValue;
        value           uniform 0.2;
    }
    outlet
    {
        type            zeroGradient;
    }
    yzfaces
    {
        type            empty;
    }
}


// ************************************************************************* //
