/*--------------------------------*- C++ -*----------------------------------*\
| =========                 |                                                 |
| \\      /  F ield         | foam-extend: Open Source CFD                    |
|  \\    /   O peration     | Version:     5.0                                |
|   \\  /    A nd           | Web:         http://www.foam-extend.org         |
|    \\/     M anipulation  |                                                 |
\*---------------------------------------------------------------------------*/
FoamFile
{
    version     2.0;
    format      ascii;
    class       volScalarField;
    location    "9";
    object      Cl.water;
}
// * * * * * * * * * * * * * * * * * * * * * * * * * * * * * * * * * * * * * //

dimensions      [0 0 0 0 0 0 0];

internalField   nonuniform List<scalar> 
100
(
7.82469e-16
0.0012772
0.00278835
0.00376143
0.00424541
0.0045574
0.00498364
0.00554041
0.00602029
0.00633688
0.00653701
0.00670636
0.00684005
0.00692474
0.00700559
0.00711739
0.00725585
0.00739677
0.00748932
0.00757722
0.00771946
0.00789657
0.00803986
0.00813093
0.00823873
0.00839146
0.00853428
0.00865138
0.00876987
0.00894232
0.00912893
0.00925231
0.00935156
0.0094033
0.00940868
0.00938512
0.0093125
0.00922354
0.00913109
0.00904924
0.00901299
0.00899552
0.00899843
0.00900957
0.00904247
0.00917922
0.00938376
0.00959941
0.00977162
0.00990377
0.00998371
0.0100005
0.00996139
0.00995606
0.0100725
0.0102516
0.0104258
0.0105214
0.0106496
0.0108492
0.0110293
0.0110992
0.0110831
0.0111465
0.0113034
0.0113976
0.0113129
0.0111993
0.0110699
0.0107774
0.0104486
0.010415
0.0104456
0.0102513
0.0100975
0.010443
0.010532
0.0101762
0.0101139
0.0109001
0.0123792
0.0119152
0.0108503
0.0111117
0.0126649
0.0100117
0.00954983
0.0118836
0.0147487
0.00606805
0.0113801
0.0165814
0.0191165
0.0200177
0.0202617
0.020305
0.0202833
0.0202641
0.0202589
0.0202771
)
;

boundaryField
{
    inlet
    {
        type            fixedValue;
        value           uniform 0;
    }
    outlet
    {
        type            zeroGradient;
    }
    yzfaces
    {
        type            empty;
    }
}


// ************************************************************************* //
