/*--------------------------------*- C++ -*----------------------------------*\
| =========                 |                                                 |
| \\      /  F ield         | foam-extend: Open Source CFD                    |
|  \\    /   O peration     | Version:     5.0                                |
|   \\  /    A nd           | Web:         http://www.foam-extend.org         |
|    \\/     M anipulation  |                                                 |
\*---------------------------------------------------------------------------*/
FoamFile
{
    version     2.0;
    format      ascii;
    class       volScalarField;
    location    "9";
    object      CO2.gas;
}
// * * * * * * * * * * * * * * * * * * * * * * * * * * * * * * * * * * * * * //

dimensions      [0 0 0 0 0 0 0];

internalField   nonuniform List<scalar> 
100
(
0.168299
0.155008
0.146704
0.140211
0.134456
0.128998
0.122521
0.119136
0.116601
0.114449
0.113331
0.112095
0.111124
0.108797
0.105888
0.103131
0.099894
0.098911
0.0977833
0.0954778
0.0923792
0.0903234
0.0893892
0.0883763
0.0864334
0.0854916
0.0851705
0.085032
0.0849098
0.0848321
0.0855814
0.0860132
0.0864129
0.0862564
0.0852373
0.0847949
0.084504
0.0843927
0.0843168
0.0839645
0.0832867
0.0827839
0.0819117
0.0809782
0.0791854
0.0777009
0.0764046
0.0750987
0.0738152
0.0727742
0.0715772
0.0706334
0.0699594
0.0691569
0.0684525
0.0676175
0.0669692
0.0660835
0.0653359
0.0647308
0.064068
0.0635152
0.0628612
0.0623631
0.0621192
0.0618092
0.0615403
0.0612842
0.0611551
0.0607899
0.0602371
0.0597285
0.0592519
0.0586195
0.0580312
0.0575416
0.0569743
0.0563917
0.0558544
0.0551405
0.0545482
0.0538787
0.0531675
0.0523559
0.0515414
0.050449
0.0492085
0.0476066
0.0458302
0.0413325
0.0367946
0.0335038
0.0317127
0.0310074
0.0308387
0.0308553
0.030783
0.0306169
0.0303347
0.0300163
)
;

boundaryField
{
    inlet
    {
        type            fixedValue;
        value           uniform 0.2;
    }
    outlet
    {
        type            zeroGradient;
    }
    yzfaces
    {
        type            empty;
    }
}


// ************************************************************************* //
