/*--------------------------------*- C++ -*----------------------------------*\
| =========                 |                                                 |
| \\      /  F ield         | foam-extend: Open Source CFD                    |
|  \\    /   O peration     | Version:     5.0                                |
|   \\  /    A nd           | Web:         http://www.foam-extend.org         |
|    \\/     M anipulation  |                                                 |
\*---------------------------------------------------------------------------*/
FoamFile
{
    version     2.0;
    format      ascii;
    class       volScalarField;
    location    "9";
    object      CO2.water;
}
// * * * * * * * * * * * * * * * * * * * * * * * * * * * * * * * * * * * * * //

dimensions      [0 0 0 0 0 0 0];

internalField   nonuniform List<scalar> 
100
(
0.000840836
0.000887429
0.000787122
0.000749943
0.000785865
0.000834461
0.000853578
0.000852371
0.000847608
0.000857857
0.000877143
0.000895027
0.000908212
0.000924332
0.000946668
0.000970223
0.000989491
0.00100742
0.00102007
0.00103335
0.00105291
0.00107895
0.00110415
0.00112412
0.0011435
0.00116787
0.00119
0.00120446
0.00120343
0.00118578
0.00115724
0.00112499
0.0011053
0.00110096
0.00111321
0.00114015
0.00116784
0.00119103
0.00120854
0.00122335
0.00123714
0.00124636
0.00125475
0.00126529
0.00126838
0.00126047
0.00123763
0.00121286
0.00119573
0.0011892
0.00119502
0.00121435
0.00124005
0.00125687
0.00125225
0.00122776
0.00120893
0.00120233
0.00119681
0.0011768
0.00115507
0.0011568
0.00117787
0.00118357
0.00116531
0.00116002
0.0011904
0.00122476
0.00126067
0.00132392
0.00139963
0.00141592
0.00141965
0.00147348
0.00152345
0.0014658
0.00145877
0.00154989
0.00157689
0.00142146
0.00112049
0.0012419
0.00149296
0.00145734
0.00114134
0.0017448
0.00188264
0.00141451
0.000841179
0.00284084
0.00181147
0.00076622
0.00025911
7.49961e-05
1.93829e-05
4.65097e-06
1.07035e-06
2.43439e-07
5.5683e-08
1.2855e-08
)
;

boundaryField
{
    inlet
    {
        type            fixedValue;
        value           uniform 0;
    }
    outlet
    {
        type            zeroGradient;
    }
    yzfaces
    {
        type            empty;
    }
}


// ************************************************************************* //
