/*--------------------------------*- C++ -*----------------------------------*\
| =========                 |                                                 |
| \\      /  F ield         | foam-extend: Open Source CFD                    |
|  \\    /   O peration     | Version:     5.0                                |
|   \\  /    A nd           | Web:         http://www.foam-extend.org         |
|    \\/     M anipulation  |                                                 |
\*---------------------------------------------------------------------------*/
FoamFile
{
    version     2.0;
    format      ascii;
    class       volScalarField;
    location    "9";
    object      Na.water;
}
// * * * * * * * * * * * * * * * * * * * * * * * * * * * * * * * * * * * * * //

dimensions      [0 0 0 0 0 0 0];

internalField   nonuniform List<scalar> 
100
(
7.82378e-16
0.00127689
0.00278729
0.00375936
0.00424221
0.00455547
0.00498359
0.00554183
0.00601882
0.00633102
0.00653211
0.00670248
0.00683909
0.00692926
0.00701045
0.00712336
0.00725942
0.00740311
0.00749484
0.00758304
0.00772387
0.0078979
0.00804187
0.00813486
0.00824195
0.00839517
0.00853372
0.00864861
0.00877125
0.00894101
0.00912424
0.00925082
0.00935176
0.00940404
0.00941002
0.00938769
0.00931418
0.00922292
0.0091296
0.00904763
0.00901575
0.00900364
0.0089995
0.0090066
0.00903808
0.0091726
0.00937712
0.00959342
0.00976529
0.00990205
0.00998576
0.0100046
0.00996165
0.009952
0.0100696
0.0102491
0.0104181
0.0105143
0.0106453
0.0108437
0.0110183
0.0110888
0.0110719
0.0111293
0.0112883
0.0113828
0.0113007
0.0111949
0.0110666
0.0107754
0.0104488
0.0104147
0.0104403
0.0102459
0.0100955
0.0104395
0.0105308
0.0101729
0.0101115
0.0108974
0.0123748
0.0119102
0.0108475
0.0111093
0.0126684
0.0100113
0.00954841
0.011879
0.0147422
0.00606579
0.0113714
0.0165649
0.0190911
0.0199964
0.0202375
0.0202777
0.0202612
0.0202491
0.0202484
0.0202722
)
;

boundaryField
{
    inlet
    {
        type            fixedValue;
        value           uniform 0;
    }
    outlet
    {
        type            zeroGradient;
    }
    yzfaces
    {
        type            empty;
    }
}


// ************************************************************************* //
