/*--------------------------------*- C++ -*----------------------------------*\
| =========                 |                                                 |
| \\      /  F ield         | foam-extend: Open Source CFD                    |
|  \\    /   O peration     | Version:     5.0                                |
|   \\  /    A nd           | Web:         http://www.foam-extend.org         |
|    \\/     M anipulation  |                                                 |
\*---------------------------------------------------------------------------*/
FoamFile
{
    version     2.0;
    format      ascii;
    class       surfaceScalarField;
    location    "9";
    object      phi;
}
// * * * * * * * * * * * * * * * * * * * * * * * * * * * * * * * * * * * * * //

dimensions      [0 3 -1 0 0 0 0];

internalField   nonuniform List<scalar> 
99
(
1.22109e-06
1.2224e-06
1.22135e-06
1.22457e-06
1.21539e-06
1.20822e-06
1.20596e-06
1.20449e-06
1.19403e-06
1.20969e-06
1.2085e-06
1.2136e-06
1.2113e-06
1.20803e-06
1.20315e-06
1.19429e-06
1.19442e-06
1.19577e-06
1.19594e-06
1.19327e-06
1.18972e-06
1.18764e-06
1.18616e-06
1.17938e-06
1.18511e-06
1.18778e-06
1.19064e-06
1.20129e-06
1.20699e-06
1.21454e-06
1.21749e-06
1.21959e-06
1.22239e-06
1.22406e-06
1.22384e-06
1.2293e-06
1.23009e-06
1.23449e-06
1.23451e-06
1.23299e-06
1.23706e-06
1.22993e-06
1.22429e-06
1.21624e-06
1.21571e-06
1.21309e-06
1.20954e-06
1.20621e-06
1.20284e-06
1.20312e-06
1.19964e-06
1.20142e-06
1.19959e-06
1.19577e-06
1.19371e-06
1.19204e-06
1.19181e-06
1.19269e-06
1.19228e-06
1.19207e-06
1.19117e-06
1.19331e-06
1.19499e-06
1.20022e-06
1.19905e-06
1.20149e-06
1.20226e-06
1.20271e-06
1.20179e-06
1.20191e-06
1.19747e-06
1.19521e-06
1.1948e-06
1.19476e-06
1.19411e-06
1.19403e-06
1.19137e-06
1.1925e-06
1.1877e-06
1.18812e-06
1.18822e-06
1.18732e-06
1.19088e-06
1.19556e-06
1.1932e-06
1.19437e-06
1.19716e-06
1.19705e-06
1.19819e-06
1.19893e-06
1.19675e-06
1.19688e-06
1.19852e-06
1.19898e-06
1.20024e-06
1.19911e-06
1.20028e-06
1.19963e-06
1.20033e-06
)
;

boundaryField
{
    inlet
    {
        type            calculated;
        value           uniform -1.225e-06;
    }
    outlet
    {
        type            calculated;
        value           uniform 1.20093e-06;
    }
    yzfaces
    {
        type            empty;
    }
}


// ************************************************************************* //
