/*--------------------------------*- C++ -*----------------------------------*\
| =========                 |                                                 |
| \\      /  F ield         | foam-extend: Open Source CFD                    |
|  \\    /   O peration     | Version:     5.0                                |
|   \\  /    A nd           | Web:         http://www.foam-extend.org         |
|    \\/     M anipulation  |                                                 |
\*---------------------------------------------------------------------------*/
FoamFile
{
    version     2.0;
    format      ascii;
    class       volVectorField;
    location    "9";
    object      U.gas;
}
// * * * * * * * * * * * * * * * * * * * * * * * * * * * * * * * * * * * * * //

dimensions      [0 1 -1 0 0 0 0];

internalField   nonuniform List<vector> 
100
(
(0.00593536 0 0)
(0.00639076 0 0)
(0.00674785 0 0)
(0.00705112 0 0)
(0.00729969 0 0)
(0.00749715 0 0)
(0.00774712 0 0)
(0.0079697 0 0)
(0.00812408 0 0)
(0.0083033 0 0)
(0.00846557 0 0)
(0.00858775 0 0)
(0.00868085 0 0)
(0.00878271 0 0)
(0.00890211 0 0)
(0.00901107 0 0)
(0.00916439 0 0)
(0.00926534 0 0)
(0.00935786 0 0)
(0.00948971 0 0)
(0.00967183 0 0)
(0.00982275 0 0)
(0.00991747 0 0)
(0.00997978 0 0)
(0.0101355 0 0)
(0.0102869 0 0)
(0.0103855 0 0)
(0.0104984 0 0)
(0.0106049 0 0)
(0.0106907 0 0)
(0.0107025 0 0)
(0.0106963 0 0)
(0.0107042 0 0)
(0.0107464 0 0)
(0.0108309 0 0)
(0.010902 0 0)
(0.0109541 0 0)
(0.0109826 0 0)
(0.0109993 0 0)
(0.0110103 0 0)
(0.0110735 0 0)
(0.0110901 0 0)
(0.0110937 0 0)
(0.0110979 0 0)
(0.0111775 0 0)
(0.011269 0 0)
(0.0113343 0 0)
(0.0114001 0 0)
(0.0114625 0 0)
(0.0115298 0 0)
(0.0116126 0 0)
(0.0116766 0 0)
(0.0117239 0 0)
(0.0117592 0 0)
(0.0117914 0 0)
(0.0118355 0 0)
(0.0118758 0 0)
(0.0119484 0 0)
(0.0120132 0 0)
(0.0120616 0 0)
(0.0121072 0 0)
(0.0121551 0 0)
(0.0122271 0 0)
(0.0123011 0 0)
(0.012332 0 0)
(0.01237 0 0)
(0.012408 0 0)
(0.0124331 0 0)
(0.0124366 0 0)
(0.0124557 0 0)
(0.0124757 0 0)
(0.0124752 0 0)
(0.0124915 0 0)
(0.0125349 0 0)
(0.0125726 0 0)
(0.0125979 0 0)
(0.0126197 0 0)
(0.0126464 0 0)
(0.0126557 0 0)
(0.0126835 0 0)
(0.0127141 0 0)
(0.0127508 0 0)
(0.012803 0 0)
(0.0128891 0 0)
(0.0129347 0 0)
(0.0129954 0 0)
(0.0130805 0 0)
(0.0131682 0 0)
(0.0132274 0 0)
(0.0136462 0 0)
(0.0135153 0 0)
(0.0129589 0 0)
(0.0123752 0 0)
(0.0120072 0 0)
(0.0118815 0 0)
(0.0118743 0 0)
(0.0119279 0 0)
(0.0119841 0 0)
(0.0120277 0 0)
(0.0120544 0 0)
)
;

boundaryField
{
    inlet
    {
        type            fixedValue;
        value           uniform (0.005 0 0);
    }
    outlet
    {
        type            zeroGradient;
    }
    yzfaces
    {
        type            empty;
    }
}


// ************************************************************************* //
