/*--------------------------------*- C++ -*----------------------------------*\
| =========                 |                                                 |
| \\      /  F ield         | foam-extend: Open Source CFD                    |
|  \\    /   O peration     | Version:     5.0                                |
|   \\  /    A nd           | Web:         http://www.foam-extend.org         |
|    \\/     M anipulation  |                                                 |
\*---------------------------------------------------------------------------*/
FoamFile
{
    version     2.0;
    format      ascii;
    class       volVectorField;
    location    "9";
    object      U.water;
}
// * * * * * * * * * * * * * * * * * * * * * * * * * * * * * * * * * * * * * //

dimensions      [0 1 -1 0 0 0 0];

internalField   nonuniform List<vector> 
100
(
(3.20654e-05 0 0)
(7.49032e-05 0 0)
(0.000112627 0 0)
(0.00014641 0 0)
(0.000177466 0 0)
(0.000207034 0 0)
(0.000238297 0 0)
(0.000273238 0 0)
(0.000303698 0 0)
(0.000332615 0 0)
(0.000357907 0 0)
(0.000376797 0 0)
(0.000393845 0 0)
(0.000409293 0 0)
(0.000430019 0 0)
(0.000454141 0 0)
(0.000483656 0 0)
(0.000514417 0 0)
(0.000534648 0 0)
(0.000555266 0 0)
(0.000586955 0 0)
(0.000627869 0 0)
(0.000663442 0 0)
(0.000688107 0 0)
(0.000716422 0 0)
(0.000755147 0 0)
(0.000787124 0 0)
(0.000811854 0 0)
(0.000831182 0 0)
(0.000845769 0 0)
(0.000852399 0 0)
(0.0008477 0 0)
(0.000843626 0 0)
(0.000844355 0 0)
(0.000853999 0 0)
(0.000872531 0 0)
(0.000887077 0 0)
(0.000896398 0 0)
(0.000900803 0 0)
(0.000901445 0 0)
(0.000909165 0 0)
(0.000919658 0 0)
(0.000926983 0 0)
(0.000940114 0 0)
(0.000962098 0 0)
(0.00099497 0 0)
(0.00102679 0 0)
(0.00105731 0 0)
(0.00108847 0 0)
(0.00112052 0 0)
(0.00115301 0 0)
(0.00118756 0 0)
(0.00121629 0 0)
(0.00123764 0 0)
(0.00126013 0 0)
(0.00128522 0 0)
(0.00131169 0 0)
(0.00133906 0 0)
(0.00137037 0 0)
(0.00140064 0 0)
(0.00142745 0 0)
(0.00145563 0 0)
(0.00148455 0 0)
(0.00151579 0 0)
(0.00154133 0 0)
(0.00155846 0 0)
(0.00157679 0 0)
(0.00159257 0 0)
(0.00160438 0 0)
(0.00161347 0 0)
(0.0016254 0 0)
(0.00164192 0 0)
(0.00166165 0 0)
(0.00168599 0 0)
(0.00171544 0 0)
(0.0017436 0 0)
(0.00176815 0 0)
(0.00179607 0 0)
(0.00182255 0 0)
(0.00185079 0 0)
(0.00188819 0 0)
(0.0019239 0 0)
(0.00196563 0 0)
(0.00201656 0 0)
(0.00206578 0 0)
(0.00211901 0 0)
(0.00219355 0 0)
(0.00228472 0 0)
(0.00239435 0 0)
(0.00259646 0 0)
(0.00292885 0 0)
(0.00323869 0 0)
(0.00344874 0 0)
(0.0035485 0 0)
(0.00357194 0 0)
(0.00355839 0 0)
(0.00353447 0 0)
(0.00351369 0 0)
(0.00349848 0 0)
(0.00349011 0 0)
)
;

boundaryField
{
    inlet
    {
        type            fixedValue;
        value           uniform (0 0 0);
    }
    outlet
    {
        type            zeroGradient;
    }
    yzfaces
    {
        type            empty;
    }
}


// ************************************************************************* //
