/*--------------------------------*- C++ -*----------------------------------*\
| =========                 |                                                 |
| \\      /  F ield         | foam-extend: Open Source CFD                    |
|  \\    /   O peration     | Version:     5.0                                |
|   \\  /    A nd           | Web:         http://www.foam-extend.org         |
|    \\/     M anipulation  |                                                 |
\*---------------------------------------------------------------------------*/
FoamFile
{
    version     2.0;
    format      ascii;
    class       volScalarField;
    location    "7";
    object      alpha.water;
}
// * * * * * * * * * * * * * * * * * * * * * * * * * * * * * * * * * * * * * //

dimensions      [0 0 0 0 0 0 0];

internalField   nonuniform List<scalar> 
100
(
0.0028415
0.0045223
0.00601232
0.00739656
0.00870514
0.00994919
0.0111392
0.0122844
0.0133869
0.0144522
0.0154789
0.0164766
0.0174388
0.0183754
0.0192838
0.0201696
0.0210291
0.0218699
0.0226869
0.023483
0.0242582
0.0250172
0.0257623
0.0264865
0.0271956
0.0278898
0.0285666
0.0292373
0.0298931
0.0305313
0.0311609
0.0317798
0.0323793
0.0329675
0.0335524
0.0341134
0.0346784
0.0352271
0.0357771
0.0363142
0.0368406
0.0373604
0.0378734
0.0383864
0.0388849
0.0393841
0.0398638
0.0403456
0.0408172
0.0412849
0.0417388
0.042196
0.0426341
0.0430696
0.0434985
0.0439278
0.0443512
0.0447649
0.0451722
0.045582
0.0459838
0.0463678
0.0467601
0.0471391
0.0475175
0.0478853
0.0482522
0.048609
0.0489644
0.0493144
0.0496564
0.0499987
0.0503288
0.0506545
0.0509806
0.0512991
0.0516198
0.0519323
0.0522422
0.052547
0.0528511
0.0531513
0.0534575
0.0537523
0.0540466
0.0543366
0.0546229
0.0549015
0.055191
0.055471
0.0557544
0.0560213
0.056299
0.0565709
0.0568428
0.0571104
0.0573681
0.0576396
0.0578942
0.058167
)
;

boundaryField
{
    inlet
    {
        type            fixedValue;
        value           uniform 0;
    }
    outlet
    {
        type            zeroGradient;
    }
    yzfaces
    {
        type            empty;
    }
}


// ************************************************************************* //
