/*--------------------------------*- C++ -*----------------------------------*\
| =========                 |                                                 |
| \\      /  F ield         | foam-extend: Open Source CFD                    |
|  \\    /   O peration     | Version:     5.0                                |
|   \\  /    A nd           | Web:         http://www.foam-extend.org         |
|    \\/     M anipulation  |                                                 |
\*---------------------------------------------------------------------------*/
FoamFile
{
    version     2.0;
    format      ascii;
    class       volScalarField;
    location    "7";
    object      CO2.water;
}
// * * * * * * * * * * * * * * * * * * * * * * * * * * * * * * * * * * * * * //

dimensions      [0 0 0 0 0 0 0];

internalField   nonuniform List<scalar> 
100
(
7.46307e-05
3.55645e-06
1.37189e-07
4.76992e-09
1.55534e-10
4.84892e-12
1.46131e-13
4.28839e-15
1.23147e-16
3.47251e-18
9.63888e-20
2.63921e-21
7.14096e-23
1.91144e-24
5.06678e-26
1.33145e-27
3.47069e-29
8.97931e-31
2.30749e-32
5.89214e-34
1.49573e-35
3.7756e-37
9.48132e-39
2.36945e-40
5.894e-42
1.4597e-43
3.59966e-45
8.84106e-47
2.16365e-48
5.27468e-50
1.28166e-51
3.10382e-53
7.49601e-55
1.80481e-56
4.33363e-58
1.03788e-59
2.47918e-61
5.90728e-63
1.40418e-64
3.33095e-66
7.88387e-68
1.86227e-69
4.38999e-71
1.03282e-72
2.42568e-74
5.68612e-76
1.33044e-77
3.10646e-79
7.23973e-81
1.68368e-82
3.90661e-84
9.04483e-86
2.09015e-87
4.82035e-89
1.10987e-90
2.55187e-92
5.85883e-94
1.34339e-95
3.0753e-97
7.02906e-99
1.6041e-100
3.65536e-102
8.31603e-104
1.88952e-105
4.28849e-107
9.72274e-109
2.20149e-110
4.97927e-112
1.1248e-113
2.53833e-115
5.72143e-117
1.28842e-118
2.89896e-120
6.51513e-122
1.46298e-123
3.28247e-125
7.35909e-127
1.64886e-128
3.69095e-130
8.25769e-132
1.84583e-133
4.12409e-135
9.20949e-137
2.05594e-138
4.58841e-140
1.02347e-141
2.28178e-143
5.08448e-145
1.13247e-146
2.52244e-148
5.61519e-150
1.24975e-151
2.78026e-153
6.18486e-155
1.37556e-156
3.05878e-158
6.80175e-160
1.51209e-161
3.36214e-163
7.47439e-165
)
;

boundaryField
{
    inlet
    {
        type            fixedValue;
        value           uniform 0;
    }
    outlet
    {
        type            zeroGradient;
    }
    yzfaces
    {
        type            empty;
    }
}


// ************************************************************************* //
