/*--------------------------------*- C++ -*----------------------------------*\
| =========                 |                                                 |
| \\      /  F ield         | foam-extend: Open Source CFD                    |
|  \\    /   O peration     | Version:     5.0                                |
|   \\  /    A nd           | Web:         http://www.foam-extend.org         |
|    \\/     M anipulation  |                                                 |
\*---------------------------------------------------------------------------*/
FoamFile
{
    version     2.0;
    format      ascii;
    class       surfaceScalarField;
    location    "7";
    object      phi.gas;
}
// * * * * * * * * * * * * * * * * * * * * * * * * * * * * * * * * * * * * * //

dimensions      [0 3 -1 0 0 0 0];

internalField   nonuniform List<scalar> 
99
(
0.000624081
0.000629087
0.00063361
0.000638164
0.000642375
0.000646378
0.000650403
0.000654308
0.000658016
0.00066158
0.000665281
0.000668667
0.000672092
0.000675511
0.000678881
0.000682049
0.000685211
0.000688388
0.000691545
0.000694586
0.000697546
0.000700446
0.000703426
0.00070634
0.000709082
0.000711796
0.0007145
0.000717275
0.000720147
0.000722583
0.000725272
0.000727769
0.000730236
0.000732819
0.00073523
0.000737551
0.000740201
0.00074257
0.000745111
0.00074762
0.000749975
0.000752301
0.000754863
0.000757316
0.000759644
0.000761941
0.00076424
0.000766603
0.000768828
0.000771081
0.000773352
0.000775562
0.000777743
0.000779908
0.000782045
0.000784257
0.000786384
0.000788492
0.000790473
0.000792545
0.000794575
0.000796553
0.000798627
0.000800683
0.000802583
0.000804573
0.000806382
0.000808198
0.000810071
0.000811954
0.000813784
0.000815645
0.000817462
0.000819398
0.000820935
0.000822706
0.000824391
0.000826267
0.000827736
0.000829581
0.000831323
0.000832958
0.00083485
0.00083651
0.000838185
0.000839859
0.000841645
0.000843428
0.000844918
0.000846749
0.000848429
0.000850101
0.000851626
0.000853246
0.000855162
0.000856602
0.000858087
0.000859854
0.000861316
)
;

boundaryField
{
    inlet
    {
        type            fixedValue;
        value           uniform -0.0006125;
    }
    outlet
    {
        type            calculated;
        value           uniform 0.000862361;
    }
    yzfaces
    {
        type            empty;
    }
}


// ************************************************************************* //
