/*--------------------------------*- C++ -*----------------------------------*\
| =========                 |                                                 |
| \\      /  F ield         | foam-extend: Open Source CFD                    |
|  \\    /   O peration     | Version:     5.0                                |
|   \\  /    A nd           | Web:         http://www.foam-extend.org         |
|    \\/     M anipulation  |                                                 |
\*---------------------------------------------------------------------------*/
FoamFile
{
    version     2.0;
    format      ascii;
    class       volScalarField;
    location    "2";
    object      alpha.gas;
}
// * * * * * * * * * * * * * * * * * * * * * * * * * * * * * * * * * * * * * //

dimensions      [0 0 0 0 0 0 0];

internalField   nonuniform List<scalar> 
100
(
0.133418
0.115724
0.104459
0.0969221
0.0905557
0.08542
0.081181
0.076988
0.07349
0.0702843
0.0670262
0.0640555
0.060929
0.0576009
0.0539846
0.0497121
0.0438372
0.0344025
0.015632
0.0263895
0.0252451
0.0250143
0.0251647
0.0254298
0.0256672
0.0257983
0.0257833
0.0256065
0.0252664
0.0247361
0.0240091
0.0230767
0.0219196
0.0205526
0.0190091
0.0173568
0.0156945
0.0141518
0.0128499
0.0118507
0.0111483
0.0106859
0.0103992
0.0102284
0.0101291
0.0100737
0.0100419
0.0100231
0.0100131
0.010006
0.0100018
0.0100018
0.0100016
0.0100013
0.0100009
0.0100013
0.00999961
0.0100001
0.0099989
0.00999913
0.00999893
0.00999846
0.00999964
0.00999765
0.0099993
0.00999896
0.00999931
0.00999975
0.0100006
0.00999816
0.00999868
0.0100003
0.0100036
0.0100051
0.0100039
0.010002
0.0100013
0.0100015
0.0100002
0.00999892
0.00999834
0.0100001
0.0100004
0.00999958
0.00999896
0.00999693
0.00999696
0.0099968
0.00999968
0.00999951
0.00999812
0.0100006
0.00999956
0.0099981
0.00999822
0.00999856
0.00999864
0.00999725
0.00999736
0.00999768
)
;

boundaryField
{
    inlet
    {
        type            fixedValue;
        value           uniform 0.2;
    }
    outlet
    {
        type            zeroGradient;
    }
    yzfaces
    {
        type            empty;
    }
}


// ************************************************************************* //
