/*--------------------------------*- C++ -*----------------------------------*\
| =========                 |                                                 |
| \\      /  F ield         | foam-extend: Open Source CFD                    |
|  \\    /   O peration     | Version:     5.0                                |
|   \\  /    A nd           | Web:         http://www.foam-extend.org         |
|    \\/     M anipulation  |                                                 |
\*---------------------------------------------------------------------------*/
FoamFile
{
    version     2.0;
    format      ascii;
    class       volScalarField;
    location    "2";
    object      H2O.gas;
}
// * * * * * * * * * * * * * * * * * * * * * * * * * * * * * * * * * * * * * //

dimensions      [0 0 0 0 0 0 0];

internalField   nonuniform List<scalar> 
100
(
1.6658e-05
5.65483e-05
0.000106966
0.000126505
0.00013639
0.000139696
0.000139164
0.000135761
0.000131971
0.000127332
0.000126915
0.000119589
0.000118657
0.000111369
0.000105133
9.68128e-05
8.53718e-05
6.69979e-05
3.04428e-05
0.00187426
0.00325763
0.00479853
0.00645311
0.00820918
0.0100224
0.0118324
0.0135914
0.0152197
0.0166433
0.0178057
0.0186302
0.0190807
0.0191049
0.0186697
0.0178295
0.0166869
0.0153543
0.0139902
0.0127742
0.0118252
0.0111373
0.0106827
0.0104071
0.0102336
0.0101332
0.0100796
0.010057
0.0100344
0.0100302
0.0100181
0.010007
0.0100067
0.0100022
0.0100003
0.0100028
0.0100029
0.0100005
0.010002
0.0100114
0.0100008
0.00999866
0.00999637
0.00999487
0.00999651
0.0099931
0.00999371
0.00999651
0.00999182
0.00999195
0.00998751
0.00999393
0.00999129
0.00999106
0.00999532
0.0100041
0.0100023
0.00999405
0.0100015
0.00999551
0.00999993
0.0100033
0.0100003
0.010001
0.0100024
0.0100053
0.0100042
0.0100078
0.0100047
0.0100064
0.0100019
0.0100053
0.01001
0.010008
0.0100058
0.0100023
0.0100013
0.0100028
0.010005
0.0100006
0.0099857
)
;

boundaryField
{
    inlet
    {
        type            fixedValue;
        value           uniform 0;
    }
    outlet
    {
        type            zeroGradient;
    }
    yzfaces
    {
        type            empty;
    }
}


// ************************************************************************* //
