/*--------------------------------*- C++ -*----------------------------------*\
| =========                 |                                                 |
| \\      /  F ield         | foam-extend: Open Source CFD                    |
|  \\    /   O peration     | Version:     5.0                                |
|   \\  /    A nd           | Web:         http://www.foam-extend.org         |
|    \\/     M anipulation  |                                                 |
\*---------------------------------------------------------------------------*/
FoamFile
{
    version     2.0;
    format      ascii;
    class       volScalarField;
    location    "2";
    object      Na.water;
}
// * * * * * * * * * * * * * * * * * * * * * * * * * * * * * * * * * * * * * //

dimensions      [0 0 0 0 0 0 0];

internalField   nonuniform List<scalar> 
100
(
0.00762923
0.00963743
0.0109045
0.011823
0.0125233
0.0131145
0.0136117
0.0140828
0.0144991
0.0148655
0.0152431
0.0155935
0.0159701
0.0163421
0.0167666
0.0172507
0.0179186
0.0189789
0.0208406
0.0206914
0.0210191
0.0211357
0.0211372
0.0211306
0.0211002
0.0210728
0.0210759
0.0210943
0.0211279
0.0211994
0.0212858
0.0214133
0.0215697
0.0217214
0.0218899
0.0221015
0.0223131
0.0224904
0.0226349
0.0227722
0.0228486
0.0229095
0.0229579
0.022976
0.0229872
0.022999
0.0230239
0.023018
0.0230334
0.0230224
0.0230058
0.0230077
0.0229984
0.0229909
0.0229975
0.0229953
0.0229932
0.0229954
0.0230217
0.0230024
0.0230061
0.0230044
0.0230045
0.0230136
0.0230024
0.0230002
0.0230077
0.0229956
0.0229964
0.0229879
0.0230007
0.0229886
0.0229896
0.022988
0.0230087
0.0230083
0.0229944
0.0230122
0.022998
0.023006
0.0230082
0.023004
0.0230098
0.0230114
0.0230193
0.0230167
0.0230208
0.0230176
0.0230214
0.0230131
0.0230191
0.0230237
0.0230208
0.0230171
0.0230074
0.023003
0.0230082
0.0230159
0.0230086
0.022984
)
;

boundaryField
{
    inlet
    {
        type            fixedValue;
        value           uniform 0;
    }
    outlet
    {
        type            zeroGradient;
    }
    yzfaces
    {
        type            empty;
    }
}


// ************************************************************************* //
