/*--------------------------------*- C++ -*----------------------------------*\
| =========                 |                                                 |
| \\      /  F ield         | foam-extend: Open Source CFD                    |
|  \\    /   O peration     | Version:     5.0                                |
|   \\  /    A nd           | Web:         http://www.foam-extend.org         |
|    \\/     M anipulation  |                                                 |
\*---------------------------------------------------------------------------*/
FoamFile
{
    version     2.0;
    format      ascii;
    class       volScalarField;
    location    "2";
    object      S.gas;
}
// * * * * * * * * * * * * * * * * * * * * * * * * * * * * * * * * * * * * * //

dimensions      [0 0 0 0 0 0 0];

internalField   nonuniform List<scalar> 
100
(
0.667091
0.578622
0.522293
0.48461
0.452778
0.4271
0.405905
0.38494
0.36745
0.351421
0.335131
0.320277
0.304813
0.288004
0.270283
0.248987
0.220015
0.173391
0.146102
0.131947
0.126226
0.125071
0.125824
0.127149
0.128336
0.128991
0.128917
0.128033
0.126332
0.123681
0.120045
0.115383
0.109598
0.102763
0.0950457
0.0867839
0.0784725
0.0707589
0.0642494
0.0592534
0.0557416
0.0534295
0.0519959
0.0511422
0.0506456
0.0503685
0.0502094
0.0501155
0.0500656
0.0500302
0.0500092
0.050009
0.050008
0.0500063
0.0500045
0.0500066
0.049998
0.0500004
0.0499945
0.0499957
0.0499946
0.0499923
0.0499982
0.0499882
0.0499965
0.0499948
0.0499965
0.0499988
0.0500028
0.0499908
0.0499934
0.0500014
0.0500182
0.0500254
0.0500197
0.05001
0.0500064
0.0500073
0.0500009
0.0499946
0.0499917
0.0500004
0.0500019
0.0499979
0.0499948
0.0499847
0.0499848
0.049984
0.0499984
0.0499975
0.0499906
0.050003
0.0499978
0.0499905
0.0499911
0.0499928
0.0499932
0.0499863
0.0499868
0.0499884
)
;

boundaryField
{
    inlet
    {
        type            calculated;
        value           uniform 1;
    }
    outlet
    {
        type            calculated;
        value           uniform 0.0499884;
    }
    yzfaces
    {
        type            empty;
    }
}


// ************************************************************************* //
