/*--------------------------------*- C++ -*----------------------------------*\
| =========                 |                                                 |
| \\      /  F ield         | foam-extend: Open Source CFD                    |
|  \\    /   O peration     | Version:     5.0                                |
|   \\  /    A nd           | Web:         http://www.foam-extend.org         |
|    \\/     M anipulation  |                                                 |
\*---------------------------------------------------------------------------*/
FoamFile
{
    version     2.0;
    format      ascii;
    class       volVectorField;
    location    "2";
    object      U.gas;
}
// * * * * * * * * * * * * * * * * * * * * * * * * * * * * * * * * * * * * * //

dimensions      [0 1 -1 0 0 0 0];

internalField   nonuniform List<vector> 
100
(
(0.00743831 0 0)
(0.00845031 0 0)
(0.0092314 0 0)
(0.00981212 0 0)
(0.010312 0 0)
(0.0107392 0 0)
(0.0111239 0 0)
(0.0114852 0 0)
(0.011767 0 0)
(0.0120332 0 0)
(0.0123488 0 0)
(0.0126294 0 0)
(0.0129032 0 0)
(0.0131919 0 0)
(0.013454 0 0)
(0.0137681 0 0)
(0.0141825 0 0)
(0.0147802 0 0)
(0.0133417 0 0)
(0.0119668 0 0)
(0.0111049 0 0)
(0.0107094 0 0)
(0.0106024 0 0)
(0.0106372 0 0)
(0.0107108 0 0)
(0.010779 0 0)
(0.0108145 0 0)
(0.0108181 0 0)
(0.0107826 0 0)
(0.0106905 0 0)
(0.0105476 0 0)
(0.0103409 0 0)
(0.0100598 0 0)
(0.00969104 0 0)
(0.00922331 0 0)
(0.00864945 0 0)
(0.00798089 0 0)
(0.00727128 0 0)
(0.00658599 0 0)
(0.00598584 0 0)
(0.00551804 0 0)
(0.00518848 0 0)
(0.00496677 0 0)
(0.004831 0 0)
(0.00475377 0 0)
(0.00471038 0 0)
(0.00468615 0 0)
(0.00467098 0 0)
(0.00466227 0 0)
(0.00465518 0 0)
(0.0046481 0 0)
(0.00464342 0 0)
(0.00463966 0 0)
(0.00463526 0 0)
(0.00463293 0 0)
(0.00463144 0 0)
(0.00463262 0 0)
(0.00463715 0 0)
(0.00463811 0 0)
(0.00463466 0 0)
(0.00463229 0 0)
(0.00462978 0 0)
(0.00463029 0 0)
(0.00463114 0 0)
(0.00462924 0 0)
(0.00462453 0 0)
(0.00461939 0 0)
(0.00461923 0 0)
(0.00461908 0 0)
(0.00461832 0 0)
(0.00461249 0 0)
(0.00461066 0 0)
(0.00461388 0 0)
(0.00461468 0 0)
(0.0046129 0 0)
(0.00461206 0 0)
(0.00461226 0 0)
(0.00461566 0 0)
(0.00461688 0 0)
(0.00461678 0 0)
(0.00461798 0 0)
(0.00461489 0 0)
(0.00461203 0 0)
(0.00461073 0 0)
(0.00461024 0 0)
(0.00461075 0 0)
(0.0046105 0 0)
(0.00460926 0 0)
(0.00460649 0 0)
(0.0046077 0 0)
(0.00460773 0 0)
(0.00460784 0 0)
(0.00461384 0 0)
(0.00461492 0 0)
(0.00461185 0 0)
(0.0046119 0 0)
(0.00461357 0 0)
(0.00461703 0 0)
(0.00461964 0 0)
(0.00461978 0 0)
)
;

boundaryField
{
    inlet
    {
        type            fixedValue;
        value           uniform (0.005 0 0);
    }
    outlet
    {
        type            zeroGradient;
    }
    yzfaces
    {
        type            empty;
    }
}


// ************************************************************************* //
