/*--------------------------------*- C++ -*----------------------------------*\
| =========                 |                                                 |
| \\      /  F ield         | foam-extend: Open Source CFD                    |
|  \\    /   O peration     | Version:     5.0                                |
|   \\  /    A nd           | Web:         http://www.foam-extend.org         |
|    \\/     M anipulation  |                                                 |
\*---------------------------------------------------------------------------*/
FoamFile
{
    version     2.0;
    format      ascii;
    class       volScalarField;
    location    "9";
    object      alpha.gas;
}
// * * * * * * * * * * * * * * * * * * * * * * * * * * * * * * * * * * * * * //

dimensions      [0 0 0 0 0 0 0];

internalField   nonuniform List<scalar> 
100
(
0.168348
0.154661
0.146551
0.139038
0.135616
0.13445
0.132956
0.129176
0.124661
0.119796
0.116273
0.1133
0.111403
0.108834
0.10609
0.103937
0.101709
0.099279
0.0975843
0.0961381
0.094654
0.0930854
0.0916168
0.0904646
0.0888441
0.0872807
0.0870864
0.0868853
0.0864734
0.0862232
0.0856627
0.0848725
0.0838446
0.0829774
0.0821397
0.0810854
0.0798506
0.07879
0.0781329
0.0772441
0.0765384
0.0758854
0.0752198
0.0747534
0.0741534
0.0736656
0.0730941
0.0725209
0.0718553
0.071242
0.0706937
0.0702388
0.069804
0.0691719
0.0688171
0.0683756
0.0678048
0.0671977
0.0667884
0.066253
0.0658967
0.065414
0.0650716
0.0646435
0.0641483
0.0636304
0.0631852
0.0627003
0.0623237
0.0618103
0.0613924
0.0610415
0.0607213
0.0603387
0.0599448
0.0595011
0.0590718
0.0587256
0.0584059
0.0581698
0.0577635
0.0574332
0.0570459
0.0566423
0.0563014
0.0559622
0.055662
0.05536
0.0550684
0.0547353
0.0544443
0.0541709
0.0538802
0.0535637
0.0532976
0.0530224
0.0526953
0.0523888
0.052033
0.0517069
)
;

boundaryField
{
    inlet
    {
        type            fixedValue;
        value           uniform 0.2;
    }
    outlet
    {
        type            zeroGradient;
    }
    yzfaces
    {
        type            empty;
    }
}


// ************************************************************************* //
