/*--------------------------------*- C++ -*----------------------------------*\
| =========                 |                                                 |
| \\      /  F ield         | foam-extend: Open Source CFD                    |
|  \\    /   O peration     | Version:     5.0                                |
|   \\  /    A nd           | Web:         http://www.foam-extend.org         |
|    \\/     M anipulation  |                                                 |
\*---------------------------------------------------------------------------*/
FoamFile
{
    version     2.0;
    format      ascii;
    class       volScalarField;
    location    "9";
    object      alpha.gas;
}
// * * * * * * * * * * * * * * * * * * * * * * * * * * * * * * * * * * * * * //

dimensions      [0 0 0 0 0 0 0];

internalField   nonuniform List<scalar> 
100
(
0.168235
0.155228
0.147074
0.139542
0.135842
0.134589
0.133174
0.129691
0.124935
0.120152
0.116342
0.113336
0.111242
0.108986
0.106097
0.103947
0.101624
0.0994288
0.0977536
0.0963591
0.0954201
0.0936052
0.0918732
0.0903386
0.0889213
0.0878918
0.0873587
0.0868487
0.0866759
0.0865045
0.0860765
0.0851501
0.0838777
0.0831052
0.0823404
0.0811691
0.0799438
0.0791601
0.0782947
0.0774259
0.0766477
0.076
0.0754078
0.0748269
0.0744457
0.0736381
0.0730824
0.0723719
0.0717956
0.0711537
0.0705687
0.070076
0.0698124
0.0692754
0.0687929
0.0681577
0.0677025
0.0671493
0.0666958
0.066167
0.0657642
0.0652806
0.0649162
0.0644744
0.063908
0.0635417
0.0630339
0.0625901
0.0621469
0.0618211
0.0614348
0.061163
0.0607555
0.0604282
0.0598766
0.0595416
0.0590662
0.0586511
0.0583218
0.0579666
0.0576878
0.0573245
0.056989
0.056644
0.0563147
0.0559221
0.0555864
0.0553029
0.0550249
0.0547532
0.0544891
0.054174
0.053833
0.0534951
0.0531968
0.0529192
0.0525966
0.0523274
0.0520541
0.0517417
)
;

boundaryField
{
    inlet
    {
        type            fixedValue;
        value           uniform 0.2;
    }
    outlet
    {
        type            zeroGradient;
    }
    yzfaces
    {
        type            empty;
    }
}


// ************************************************************************* //
