/*--------------------------------*- C++ -*----------------------------------*\
| =========                 |                                                 |
| \\      /  F ield         | foam-extend: Open Source CFD                    |
|  \\    /   O peration     | Version:     5.0                                |
|   \\  /    A nd           | Web:         http://www.foam-extend.org         |
|    \\/     M anipulation  |                                                 |
\*---------------------------------------------------------------------------*/
FoamFile
{
    version     2.0;
    format      ascii;
    class       volScalarField;
    location    "9";
    object      Cl.water;
}
// * * * * * * * * * * * * * * * * * * * * * * * * * * * * * * * * * * * * * //

dimensions      [0 0 0 0 0 0 0];

internalField   nonuniform List<scalar> 
100
(
0.00362732
0.00520985
0.00613959
0.00700418
0.00739086
0.0075269
0.00769341
0.00813655
0.00865148
0.00920467
0.00960947
0.00995038
0.0101717
0.0104704
0.0107891
0.0110359
0.0112887
0.0115676
0.0117613
0.0119267
0.0120989
0.0122735
0.0124364
0.0125748
0.012761
0.012939
0.0129653
0.0129885
0.0130311
0.0130627
0.0131276
0.0132191
0.0133378
0.0134368
0.013535
0.0136541
0.0137968
0.0139138
0.0139901
0.0140907
0.014172
0.0142498
0.014324
0.0143834
0.0144513
0.0145084
0.0145761
0.0146429
0.0147195
0.0147875
0.0148503
0.0149061
0.0149591
0.0150257
0.015068
0.0151178
0.0151814
0.0152476
0.015299
0.0153569
0.0154056
0.0154552
0.0154972
0.0155459
0.0155977
0.0156555
0.0157104
0.0157633
0.0158099
0.0158679
0.0159102
0.0159465
0.0159906
0.0160313
0.0160781
0.0161287
0.0161806
0.0162219
0.0162586
0.0162868
0.0163304
0.0163696
0.0164131
0.0164589
0.0165022
0.0165431
0.0165795
0.0166135
0.016646
0.0166821
0.0167187
0.0167524
0.0167894
0.0168261
0.0168547
0.0168807
0.0169152
0.0169537
0.0169899
0.0170284
)
;

boundaryField
{
    inlet
    {
        type            fixedValue;
        value           uniform 0;
    }
    outlet
    {
        type            zeroGradient;
    }
    yzfaces
    {
        type            empty;
    }
}


// ************************************************************************* //
