/*--------------------------------*- C++ -*----------------------------------*\
| =========                 |                                                 |
| \\      /  F ield         | foam-extend: Open Source CFD                    |
|  \\    /   O peration     | Version:     5.0                                |
|   \\  /    A nd           | Web:         http://www.foam-extend.org         |
|    \\/     M anipulation  |                                                 |
\*---------------------------------------------------------------------------*/
FoamFile
{
    version     2.0;
    format      ascii;
    class       volScalarField;
    location    "9";
    object      Cl.water;
}
// * * * * * * * * * * * * * * * * * * * * * * * * * * * * * * * * * * * * * //

dimensions      [0 0 0 0 0 0 0];

internalField   nonuniform List<scalar> 
100
(
0.00365007
0.0051399
0.00607647
0.00693511
0.00736134
0.00750638
0.00767737
0.00808466
0.00862213
0.00917158
0.00960786
0.00994991
0.0101883
0.0104485
0.0107774
0.0110261
0.0112918
0.0115461
0.0117414
0.0118983
0.0120109
0.0122135
0.0124111
0.0125911
0.0127519
0.0128692
0.0129333
0.012993
0.0130134
0.0130347
0.0130816
0.0131889
0.0133292
0.0134224
0.0135151
0.0136469
0.0137879
0.0138812
0.0139796
0.0140772
0.0141663
0.0142439
0.0143094
0.0143735
0.014422
0.0145056
0.0145722
0.014643
0.0147138
0.0147929
0.0148617
0.0149167
0.0149498
0.0150076
0.0150641
0.0151382
0.0151898
0.0152462
0.0152975
0.0153591
0.0154102
0.0154624
0.0155052
0.0155552
0.0156131
0.0156603
0.0157237
0.0157776
0.015824
0.0158605
0.0159056
0.0159384
0.0159834
0.0160259
0.0160806
0.0161249
0.0161764
0.0162265
0.016268
0.0163054
0.0163393
0.0163788
0.0164193
0.0164589
0.0165017
0.0165487
0.0165863
0.0166188
0.0166501
0.0166836
0.0167064
0.0167415
0.0167769
0.0168137
0.0168532
0.0168831
0.016917
0.0169517
0.0169834
0.0170207
)
;

boundaryField
{
    inlet
    {
        type            fixedValue;
        value           uniform 0;
    }
    outlet
    {
        type            zeroGradient;
    }
    yzfaces
    {
        type            empty;
    }
}


// ************************************************************************* //
