/*--------------------------------*- C++ -*----------------------------------*\
| =========                 |                                                 |
| \\      /  F ield         | foam-extend: Open Source CFD                    |
|  \\    /   O peration     | Version:     5.0                                |
|   \\  /    A nd           | Web:         http://www.foam-extend.org         |
|    \\/     M anipulation  |                                                 |
\*---------------------------------------------------------------------------*/
FoamFile
{
    version     2.0;
    format      ascii;
    class       volScalarField;
    location    "9";
    object      CO2.water;
}
// * * * * * * * * * * * * * * * * * * * * * * * * * * * * * * * * * * * * * //

dimensions      [0 0 0 0 0 0 0];

internalField   nonuniform List<scalar> 
100
(
0.000834297
0.00117591
0.00139009
0.00158791
0.00168509
0.00171798
0.00175517
0.00184662
0.00197155
0.00209716
0.00219724
0.00227619
0.00233118
0.00239045
0.00246632
0.00252278
0.00258379
0.00264146
0.00268545
0.00272208
0.00274674
0.00279441
0.0028399
0.00288021
0.00291743
0.00294447
0.00295847
0.00297187
0.00297641
0.00298091
0.00299215
0.00301648
0.0030499
0.00307019
0.00309028
0.00312104
0.00315322
0.00317381
0.00319653
0.00321935
0.00323979
0.0032568
0.00327236
0.00328761
0.00329762
0.00331884
0.00333343
0.00335209
0.00336723
0.00338409
0.00339945
0.00341239
0.00341932
0.00343342
0.00344609
0.00346278
0.00347473
0.00348926
0.00350117
0.00351506
0.00352564
0.00353834
0.00354791
0.00355952
0.00357439
0.00358401
0.00359735
0.00360901
0.00362065
0.0036292
0.00363935
0.00364649
0.00365719
0.00366579
0.00368028
0.00368908
0.00370156
0.00371246
0.00372111
0.00373044
0.00373776
0.00374731
0.00375612
0.00376518
0.00377383
0.00378414
0.00379296
0.0038004
0.0038077
0.00381484
0.00382178
0.00383005
0.00383901
0.00384789
0.00385572
0.00386301
0.00387148
0.00387855
0.00388573
0.00389394
)
;

boundaryField
{
    inlet
    {
        type            fixedValue;
        value           uniform 0;
    }
    outlet
    {
        type            zeroGradient;
    }
    yzfaces
    {
        type            empty;
    }
}


// ************************************************************************* //
