/*--------------------------------*- C++ -*----------------------------------*\
| =========                 |                                                 |
| \\      /  F ield         | foam-extend: Open Source CFD                    |
|  \\    /   O peration     | Version:     5.0                                |
|   \\  /    A nd           | Web:         http://www.foam-extend.org         |
|    \\/     M anipulation  |                                                 |
\*---------------------------------------------------------------------------*/
FoamFile
{
    version     2.0;
    format      ascii;
    class       volScalarField;
    location    "9";
    object      CO2.water;
}
// * * * * * * * * * * * * * * * * * * * * * * * * * * * * * * * * * * * * * //

dimensions      [0 0 0 0 0 0 0];

internalField   nonuniform List<scalar> 
100
(
0.000831325
0.0011908
0.00140381
0.00160113
0.00169103
0.00172163
0.00176088
0.00186016
0.00197876
0.00210652
0.00219904
0.00227715
0.00232697
0.00239444
0.00246651
0.00252305
0.00258156
0.00264539
0.0026899
0.00272789
0.00276687
0.00280806
0.00284663
0.0028769
0.00291946
0.00296052
0.00296563
0.00297091
0.00298172
0.00298829
0.00300302
0.00302377
0.00305077
0.00307354
0.00309555
0.00312324
0.00315567
0.00318353
0.00320078
0.00322413
0.00324266
0.00325981
0.0032773
0.00328954
0.0033053
0.00331812
0.00333312
0.00334818
0.00336566
0.00338177
0.00339617
0.00340812
0.00341954
0.00343614
0.00344546
0.00345705
0.00347205
0.00348799
0.00349874
0.0035128
0.00352216
0.00353484
0.00354383
0.00355508
0.00356808
0.00358169
0.00359338
0.00360611
0.00361601
0.00362949
0.00364047
0.00364968
0.00365809
0.00366814
0.00367848
0.00369014
0.00370141
0.00371051
0.0037189
0.0037251
0.00373578
0.00374445
0.00375462
0.00376523
0.00377418
0.00378309
0.00379097
0.0037989
0.00380656
0.00381531
0.00382295
0.00383013
0.00383777
0.00384608
0.00385307
0.0038603
0.00386889
0.00387694
0.00388629
0.00389485
)
;

boundaryField
{
    inlet
    {
        type            fixedValue;
        value           uniform 0;
    }
    outlet
    {
        type            zeroGradient;
    }
    yzfaces
    {
        type            empty;
    }
}


// ************************************************************************* //
