/*--------------------------------*- C++ -*----------------------------------*\
| =========                 |                                                 |
| \\      /  F ield         | foam-extend: Open Source CFD                    |
|  \\    /   O peration     | Version:     5.0                                |
|   \\  /    A nd           | Web:         http://www.foam-extend.org         |
|    \\/     M anipulation  |                                                 |
\*---------------------------------------------------------------------------*/
FoamFile
{
    version     2.0;
    format      ascii;
    class       volScalarField;
    location    "9";
    object      CO2.gas;
}
// * * * * * * * * * * * * * * * * * * * * * * * * * * * * * * * * * * * * * //

dimensions      [0 0 0 0 0 0 0];

internalField   nonuniform List<scalar> 
100
(
0.167907
0.154926
0.146787
0.13927
0.135577
0.134327
0.132914
0.129439
0.124692
0.119918
0.116115
0.113115
0.111026
0.108774
0.10589
0.103745
0.101426
0.0992351
0.0975632
0.0961714
0.0952343
0.0934229
0.0916943
0.0901627
0.0887482
0.0877206
0.0871886
0.0866795
0.0865071
0.0863361
0.0859089
0.0849843
0.0837143
0.0829434
0.08218
0.081011
0.0797881
0.0790059
0.0781422
0.0772751
0.0764985
0.075852
0.0752609
0.0746812
0.0743008
0.0734947
0.0729401
0.0722309
0.0716558
0.0710151
0.0704313
0.0699395
0.0696764
0.0691405
0.0686589
0.068025
0.0675707
0.0670186
0.0665659
0.0660381
0.0656361
0.0651535
0.0647898
0.0643488
0.0637835
0.063418
0.0629111
0.0624682
0.0620258
0.0617007
0.0613152
0.0610439
0.0606372
0.0603105
0.05976
0.0594257
0.0589512
0.0585369
0.0582082
0.0578538
0.0575755
0.0572128
0.056878
0.0565337
0.056205
0.0558132
0.0554782
0.0551952
0.0549177
0.0546466
0.054383
0.0540685
0.0537281
0.0533909
0.0530932
0.0528161
0.0524942
0.0522255
0.0519528
0.0516409
)
;

boundaryField
{
    inlet
    {
        type            fixedValue;
        value           uniform 0.2;
    }
    outlet
    {
        type            zeroGradient;
    }
    yzfaces
    {
        type            empty;
    }
}


// ************************************************************************* //
