/*--------------------------------*- C++ -*----------------------------------*\
| =========                 |                                                 |
| \\      /  F ield         | foam-extend: Open Source CFD                    |
|  \\    /   O peration     | Version:     5.0                                |
|   \\  /    A nd           | Web:         http://www.foam-extend.org         |
|    \\/     M anipulation  |                                                 |
\*---------------------------------------------------------------------------*/
FoamFile
{
    version     2.0;
    format      ascii;
    class       volScalarField;
    location    "9";
    object      CO2.gas;
}
// * * * * * * * * * * * * * * * * * * * * * * * * * * * * * * * * * * * * * //

dimensions      [0 0 0 0 0 0 0];

internalField   nonuniform List<scalar> 
100
(
0.16802
0.15436
0.146266
0.138767
0.135351
0.134188
0.132697
0.128924
0.124418
0.119563
0.116047
0.113079
0.111186
0.108622
0.105883
0.103735
0.101511
0.0990856
0.0973942
0.0959509
0.0944696
0.0929042
0.0914384
0.0902885
0.0886711
0.0871107
0.0869168
0.0867161
0.086305
0.0860553
0.0854959
0.0847072
0.0836814
0.0828158
0.0819797
0.0809274
0.0796951
0.0786365
0.0779807
0.0770937
0.0763893
0.0757376
0.0750733
0.0746078
0.074009
0.0735221
0.0729518
0.0723796
0.0717154
0.0711032
0.070556
0.070102
0.069668
0.0690372
0.0686831
0.0682425
0.0676728
0.0670668
0.0666584
0.066124
0.0657683
0.0652866
0.0649448
0.0645176
0.0640233
0.0635064
0.0630621
0.0625782
0.0622023
0.06169
0.0612728
0.0609226
0.060603
0.0602212
0.0598281
0.0593852
0.0589568
0.0586113
0.0582922
0.0580566
0.057651
0.0573213
0.0569348
0.0565319
0.0561917
0.0558532
0.0555536
0.0552522
0.0549612
0.0546287
0.0543382
0.0540654
0.0537753
0.0534594
0.0531939
0.0529191
0.0525927
0.0522867
0.0519316
0.0516062
)
;

boundaryField
{
    inlet
    {
        type            fixedValue;
        value           uniform 0.2;
    }
    outlet
    {
        type            zeroGradient;
    }
    yzfaces
    {
        type            empty;
    }
}


// ************************************************************************* //
