/*--------------------------------*- C++ -*----------------------------------*\
| =========                 |                                                 |
| \\      /  F ield         | foam-extend: Open Source CFD                    |
|  \\    /   O peration     | Version:     5.0                                |
|   \\  /    A nd           | Web:         http://www.foam-extend.org         |
|    \\/     M anipulation  |                                                 |
\*---------------------------------------------------------------------------*/
FoamFile
{
    version     2.0;
    format      ascii;
    class       volScalarField;
    location    "9";
    object      H2O.water;
}
// * * * * * * * * * * * * * * * * * * * * * * * * * * * * * * * * * * * * * //

dimensions      [0 0 0 0 0 0 0];

internalField   nonuniform List<scalar> 
100
(
0.0235679
0.0337314
0.0397716
0.0453582
0.0479125
0.0487725
0.0498902
0.052687
0.0560501
0.0596792
0.0622968
0.0645116
0.0659239
0.0678349
0.0698772
0.0714804
0.0731336
0.074945
0.0762094
0.0772807
0.0783836
0.0795585
0.0806522
0.0815044
0.0827146
0.0838837
0.0840154
0.0841589
0.08447
0.0846526
0.0850739
0.0856612
0.0864273
0.0870694
0.0876911
0.088479
0.0893939
0.0901881
0.0906763
0.0913423
0.0918692
0.0923492
0.0928493
0.0931897
0.0936409
0.0940044
0.0944247
0.0948553
0.0953522
0.0958093
0.0962155
0.0965535
0.09687
0.0973474
0.0976081
0.0979353
0.0983622
0.0988169
0.0991128
0.0995217
0.0997787
0.100144
0.100394
0.100716
0.101088
0.101471
0.101797
0.10216
0.10244
0.102822
0.103135
0.1034
0.103633
0.103921
0.104213
0.104541
0.104861
0.105119
0.105358
0.105526
0.105835
0.106079
0.106369
0.106671
0.106923
0.107171
0.107396
0.107623
0.107836
0.108089
0.108304
0.108508
0.108725
0.108962
0.109157
0.10936
0.109606
0.109834
0.110101
0.110346
)
;

boundaryField
{
    inlet
    {
        type            fixedValue;
        value           uniform 0;
    }
    outlet
    {
        type            zeroGradient;
    }
    yzfaces
    {
        type            empty;
    }
}


// ************************************************************************* //
