/*--------------------------------*- C++ -*----------------------------------*\
| =========                 |                                                 |
| \\      /  F ield         | foam-extend: Open Source CFD                    |
|  \\    /   O peration     | Version:     5.0                                |
|   \\  /    A nd           | Web:         http://www.foam-extend.org         |
|    \\/     M anipulation  |                                                 |
\*---------------------------------------------------------------------------*/
FoamFile
{
    version     2.0;
    format      ascii;
    class       volScalarField;
    location    "9";
    object      H2O.gas;
}
// * * * * * * * * * * * * * * * * * * * * * * * * * * * * * * * * * * * * * //

dimensions      [0 0 0 0 0 0 0];

internalField   nonuniform List<scalar> 
100
(
0.000327853
0.000301199
0.000285404
0.000270773
0.000264107
0.000261838
0.000258928
0.000251566
0.000242773
0.0002333
0.000226439
0.000220647
0.000216953
0.000211951
0.000206607
0.000202415
0.000198076
0.000193343
0.000190042
0.000187226
0.000184336
0.000181281
0.000178421
0.000176177
0.000173021
0.000169977
0.000169598
0.000169207
0.000168405
0.000167917
0.000166826
0.000165287
0.000163285
0.000161596
0.000159965
0.000157911
0.000155507
0.000153441
0.000152162
0.000150431
0.000149056
0.000147785
0.000146488
0.00014558
0.000144412
0.000143462
0.000142349
0.000141232
0.000139936
0.000138742
0.000137674
0.000136788
0.000135941
0.00013471
0.000134019
0.00013316
0.000132048
0.000130866
0.000130069
0.000129026
0.000128332
0.000127392
0.000126725
0.000125891
0.000124927
0.000123918
0.000123051
0.000122107
0.000121374
0.000120374
0.00011956
0.000118876
0.000118253
0.000117508
0.000116741
0.000115877
0.000115041
0.000114366
0.000113744
0.000113284
0.000112493
0.000111849
0.000111095
0.000110309
0.000109645
0.000108985
0.0001084
0.000107812
0.000107244
0.000106595
0.000106029
0.000105496
0.00010493
0.000104314
0.000103796
0.00010326
0.000102623
0.000102026
0.000101333
0.000100698
)
;

boundaryField
{
    inlet
    {
        type            fixedValue;
        value           uniform 0;
    }
    outlet
    {
        type            zeroGradient;
    }
    yzfaces
    {
        type            empty;
    }
}


// ************************************************************************* //
