/*--------------------------------*- C++ -*----------------------------------*\
| =========                 |                                                 |
| \\      /  F ield         | foam-extend: Open Source CFD                    |
|  \\    /   O peration     | Version:     5.0                                |
|   \\  /    A nd           | Web:         http://www.foam-extend.org         |
|    \\/     M anipulation  |                                                 |
\*---------------------------------------------------------------------------*/
FoamFile
{
    version     2.0;
    format      ascii;
    class       volScalarField;
    location    "9";
    object      H2O.gas;
}
// * * * * * * * * * * * * * * * * * * * * * * * * * * * * * * * * * * * * * //

dimensions      [0 0 0 0 0 0 0];

internalField   nonuniform List<scalar> 
100
(
0.000327632
0.000302302
0.000286422
0.000271754
0.000264548
0.000262109
0.000259352
0.00025257
0.000243307
0.000233993
0.000226573
0.000220719
0.000216641
0.000212247
0.000206621
0.000202434
0.00019791
0.000193635
0.000190372
0.000187656
0.000185828
0.000182293
0.00017892
0.000175932
0.000173172
0.000171167
0.000170129
0.000169135
0.000168799
0.000168465
0.000167632
0.000165827
0.000163349
0.000161845
0.000160355
0.000158074
0.000155688
0.000154162
0.000152477
0.000150785
0.000149269
0.000148008
0.000146854
0.000145723
0.000144981
0.000143408
0.000142326
0.000140942
0.00013982
0.00013857
0.000137431
0.000136471
0.000135958
0.000134912
0.000133972
0.000132735
0.000131849
0.000130771
0.000129888
0.000128858
0.000128074
0.000127132
0.000126422
0.000125562
0.000124459
0.000123746
0.000122757
0.000121892
0.000121029
0.000120395
0.000119643
0.000119113
0.00011832
0.000117682
0.000116608
0.000115956
0.00011503
0.000114221
0.00011358
0.000112888
0.000112345
0.000111638
0.000110984
0.000110313
0.000109671
0.000108907
0.000108253
0.000107701
0.000107159
0.00010663
0.000106116
0.000105502
0.000104838
0.00010418
0.000103599
0.000103059
0.00010243
0.000101906
0.000101374
0.000100765
)
;

boundaryField
{
    inlet
    {
        type            fixedValue;
        value           uniform 0;
    }
    outlet
    {
        type            zeroGradient;
    }
    yzfaces
    {
        type            empty;
    }
}


// ************************************************************************* //
