/*--------------------------------*- C++ -*----------------------------------*\
| =========                 |                                                 |
| \\      /  F ield         | foam-extend: Open Source CFD                    |
|  \\    /   O peration     | Version:     5.0                                |
|   \\  /    A nd           | Web:         http://www.foam-extend.org         |
|    \\/     M anipulation  |                                                 |
\*---------------------------------------------------------------------------*/
FoamFile
{
    version     2.0;
    format      ascii;
    class       volScalarField;
    location    "9";
    object      H2O.water;
}
// * * * * * * * * * * * * * * * * * * * * * * * * * * * * * * * * * * * * * //

dimensions      [0 0 0 0 0 0 0];

internalField   nonuniform List<scalar> 
100
(
0.0236322
0.0333194
0.0393857
0.0450029
0.0477525
0.048677
0.0497127
0.0522873
0.0558499
0.0594065
0.0622432
0.0644843
0.0660394
0.0677188
0.0698729
0.071471
0.073199
0.0748316
0.0760831
0.0771194
0.0778096
0.0791667
0.0804627
0.0816024
0.0826564
0.0834273
0.0838163
0.0841891
0.0843123
0.084441
0.0847592
0.0854514
0.0864146
0.0869816
0.087541
0.0884188
0.0893309
0.0899114
0.0905587
0.0912084
0.091785
0.0922599
0.0927025
0.0931408
0.093414
0.0940246
0.0944331
0.0949738
0.0953951
0.0958741
0.0963047
0.0966748
0.096866
0.0972707
0.0976243
0.0981063
0.0984369
0.0988525
0.099185
0.099583
0.0998745
0.100238
0.100509
0.100839
0.101271
0.101533
0.101911
0.102242
0.102574
0.102813
0.103104
0.103303
0.103612
0.10385
0.104272
0.104509
0.104869
0.105176
0.105416
0.105684
0.105887
0.106162
0.106415
0.106672
0.106909
0.107207
0.107459
0.107666
0.107873
0.108071
0.108272
0.108505
0.108762
0.109015
0.109234
0.109437
0.109683
0.109878
0.110082
0.110316
)
;

boundaryField
{
    inlet
    {
        type            fixedValue;
        value           uniform 0;
    }
    outlet
    {
        type            zeroGradient;
    }
    yzfaces
    {
        type            empty;
    }
}


// ************************************************************************* //
