/*--------------------------------*- C++ -*----------------------------------*\
| =========                 |                                                 |
| \\      /  F ield         | foam-extend: Open Source CFD                    |
|  \\    /   O peration     | Version:     5.0                                |
|   \\  /    A nd           | Web:         http://www.foam-extend.org         |
|    \\/     M anipulation  |                                                 |
\*---------------------------------------------------------------------------*/
FoamFile
{
    version     2.0;
    format      ascii;
    class       volScalarField;
    location    "9";
    object      Na.water;
}
// * * * * * * * * * * * * * * * * * * * * * * * * * * * * * * * * * * * * * //

dimensions      [0 0 0 0 0 0 0];

internalField   nonuniform List<scalar> 
100
(
0.00364858
0.00513661
0.00607408
0.00693228
0.00735946
0.00750928
0.0076812
0.00808995
0.00862141
0.00917238
0.00960966
0.00995362
0.0101988
0.0104565
0.0107865
0.0110329
0.0113011
0.0115521
0.0117365
0.0119012
0.0120127
0.0122202
0.012413
0.0125877
0.0127529
0.0128672
0.0129332
0.0129973
0.0130219
0.0130389
0.0130906
0.0131931
0.0133286
0.0134206
0.0135133
0.0136441
0.0137841
0.0138736
0.0139705
0.0140691
0.0141612
0.0142395
0.014308
0.0143712
0.0144206
0.0145129
0.0145789
0.0146593
0.0147282
0.0147952
0.0148655
0.0149201
0.0149525
0.0150129
0.0150726
0.0151349
0.0151961
0.0152627
0.0153205
0.0153759
0.0154255
0.0154807
0.0155215
0.0155717
0.0156333
0.0156814
0.0157342
0.0157817
0.0158344
0.0158761
0.0159165
0.0159492
0.0159919
0.0160297
0.0160909
0.0161356
0.0161867
0.0162345
0.0162733
0.016314
0.0163478
0.0163871
0.0164204
0.0164596
0.0165008
0.0165382
0.0165753
0.0166117
0.0166443
0.0166772
0.0167104
0.0167492
0.016789
0.0168281
0.0168607
0.0168979
0.0169323
0.0169643
0.0169952
0.0170281
)
;

boundaryField
{
    inlet
    {
        type            fixedValue;
        value           uniform 0;
    }
    outlet
    {
        type            zeroGradient;
    }
    yzfaces
    {
        type            empty;
    }
}


// ************************************************************************* //
