/*--------------------------------*- C++ -*----------------------------------*\
| =========                 |                                                 |
| \\      /  F ield         | foam-extend: Open Source CFD                    |
|  \\    /   O peration     | Version:     5.0                                |
|   \\  /    A nd           | Web:         http://www.foam-extend.org         |
|    \\/     M anipulation  |                                                 |
\*---------------------------------------------------------------------------*/
FoamFile
{
    version     2.0;
    format      ascii;
    class       volScalarField;
    location    "9";
    object      Na.water;
}
// * * * * * * * * * * * * * * * * * * * * * * * * * * * * * * * * * * * * * //

dimensions      [0 0 0 0 0 0 0];

internalField   nonuniform List<scalar> 
100
(
0.00362549
0.00520645
0.0061338
0.00699825
0.00739011
0.00752862
0.00769934
0.00814039
0.00865909
0.00921342
0.00962117
0.00996132
0.0101747
0.0104663
0.0107774
0.0110236
0.0112867
0.011563
0.0117551
0.0119266
0.0120967
0.0122745
0.012448
0.0125794
0.0127608
0.0129361
0.0129673
0.0129964
0.0130437
0.0130732
0.0131328
0.0132234
0.0133394
0.0134429
0.0135387
0.0136583
0.013803
0.0139245
0.0139999
0.0140988
0.0141778
0.0142558
0.0143296
0.014384
0.014449
0.0145036
0.014572
0.0146327
0.0147073
0.0147795
0.0148444
0.0148936
0.0149474
0.0150188
0.0150612
0.0151142
0.0151795
0.0152498
0.015301
0.0153556
0.0153969
0.0154524
0.0154935
0.01554
0.0155977
0.0156615
0.0157138
0.0157699
0.0158106
0.01587
0.015922
0.015962
0.0159968
0.0160408
0.0160855
0.0161387
0.0161849
0.0162228
0.0162589
0.0162917
0.0163351
0.0163742
0.0164173
0.0164629
0.0164992
0.0165404
0.0165719
0.0166051
0.0166426
0.0166788
0.0167096
0.016739
0.0167678
0.0168023
0.0168375
0.0168763
0.0169146
0.0169468
0.0169901
0.0170234
)
;

boundaryField
{
    inlet
    {
        type            fixedValue;
        value           uniform 0;
    }
    outlet
    {
        type            zeroGradient;
    }
    yzfaces
    {
        type            empty;
    }
}


// ************************************************************************* //
