/*--------------------------------*- C++ -*----------------------------------*\
| =========                 |                                                 |
| \\      /  F ield         | foam-extend: Open Source CFD                    |
|  \\    /   O peration     | Version:     5.0                                |
|   \\  /    A nd           | Web:         http://www.foam-extend.org         |
|    \\/     M anipulation  |                                                 |
\*---------------------------------------------------------------------------*/
FoamFile
{
    version     2.0;
    format      ascii;
    class       volScalarField;
    location    "9";
    object      Ns;
}
// * * * * * * * * * * * * * * * * * * * * * * * * * * * * * * * * * * * * * //

dimensions      [0 -3 0 0 1 0 0];

internalField   nonuniform List<scalar> 
100
(
2103.72
1995.11
1954.03
1949.86
2010.91
2009.77
2037.71
1962.62
1902.5
1856.44
1852.5
1828.35
1863.61
1785.02
1811.88
1785.35
1762.3
1771.26
1752.05
1787.53
1771.26
1752.22
1789.69
1798.53
1777.14
1770.83
2171.49
1899.75
1811.19
1795.74
1782.74
1789.71
1757.65
1791.38
1753.29
1767.81
1784.98
1785.74
1765.7
1750.88
1766.15
1800.92
1751.74
1751.48
2129.03
1861.99
1762.96
1789.53
1770.48
1767.02
1763.41
1748.42
1771.83
1779.4
1766.13
1773.68
1762.4
1781.67
1765.84
1773.8
1789.86
1763.7
2148.56
1852.92
1787.03
1791.53
1783.4
1765.25
1765.32
1798.54
1776.98
1796.68
1776.61
1767.62
1768.08
1779.47
1750.9
2141.99
1865.55
1804.88
1791.85
1775.45
1789.68
1825.79
1844.57
1905.5
1917.91
1930.23
1978.56
1795.34
1963.64
1971.87
1746.56
1941.07
1754.15
1949.12
1762.03
1949.54
1767.11
1946.7
)
;

boundaryField
{
    inlet
    {
        type            fixedValue;
        value           uniform 0;
    }
    outlet
    {
        type            zeroGradient;
    }
    yzfaces
    {
        type            empty;
    }
}


// ************************************************************************* //
