/*--------------------------------*- C++ -*----------------------------------*\
| =========                 |                                                 |
| \\      /  F ield         | foam-extend: Open Source CFD                    |
|  \\    /   O peration     | Version:     5.0                                |
|   \\  /    A nd           | Web:         http://www.foam-extend.org         |
|    \\/     M anipulation  |                                                 |
\*---------------------------------------------------------------------------*/
FoamFile
{
    version     2.0;
    format      ascii;
    class       surfaceScalarField;
    location    "9";
    object      phi;
}
// * * * * * * * * * * * * * * * * * * * * * * * * * * * * * * * * * * * * * //

dimensions      [0 3 -1 0 0 0 0];

internalField   nonuniform List<scalar> 
99
(
1.22598e-06
1.23292e-06
1.23397e-06
1.22003e-06
1.22528e-06
1.22203e-06
1.22444e-06
1.20998e-06
1.1976e-06
1.20166e-06
1.19848e-06
1.19783e-06
1.19938e-06
1.19485e-06
1.19949e-06
1.19995e-06
1.19813e-06
1.19866e-06
1.1937e-06
1.19759e-06
1.1961e-06
1.1994e-06
1.20405e-06
1.20492e-06
1.20556e-06
1.20841e-06
1.21013e-06
1.20403e-06
1.2018e-06
1.1873e-06
1.18713e-06
1.18622e-06
1.18425e-06
1.17986e-06
1.17937e-06
1.17595e-06
1.16953e-06
1.16535e-06
1.16747e-06
1.16719e-06
1.17051e-06
1.16982e-06
1.16709e-06
1.16493e-06
1.16434e-06
1.165e-06
1.16271e-06
1.16227e-06
1.1647e-06
1.16614e-06
1.16529e-06
1.16578e-06
1.16124e-06
1.16093e-06
1.16161e-06
1.15985e-06
1.15775e-06
1.16106e-06
1.15511e-06
1.15883e-06
1.15442e-06
1.1567e-06
1.15461e-06
1.15589e-06
1.15806e-06
1.1603e-06
1.15788e-06
1.15778e-06
1.1573e-06
1.15507e-06
1.15556e-06
1.15804e-06
1.15744e-06
1.15936e-06
1.16125e-06
1.15976e-06
1.15907e-06
1.15792e-06
1.15781e-06
1.15343e-06
1.15283e-06
1.1518e-06
1.15246e-06
1.15281e-06
1.1555e-06
1.14956e-06
1.14752e-06
1.14823e-06
1.14447e-06
1.14619e-06
1.14658e-06
1.14674e-06
1.14686e-06
1.14699e-06
1.14825e-06
1.14691e-06
1.14682e-06
1.14803e-06
1.14782e-06
)
;

boundaryField
{
    inlet
    {
        type            calculated;
        value           uniform -1.225e-06;
    }
    outlet
    {
        type            calculated;
        value           uniform 1.1505e-06;
    }
    yzfaces
    {
        type            empty;
    }
}


// ************************************************************************* //
