/*--------------------------------*- C++ -*----------------------------------*\
| =========                 |                                                 |
| \\      /  F ield         | foam-extend: Open Source CFD                    |
|  \\    /   O peration     | Version:     5.0                                |
|   \\  /    A nd           | Web:         http://www.foam-extend.org         |
|    \\/     M anipulation  |                                                 |
\*---------------------------------------------------------------------------*/
FoamFile
{
    version     2.0;
    format      ascii;
    class       surfaceScalarField;
    location    "9";
    object      phi;
}
// * * * * * * * * * * * * * * * * * * * * * * * * * * * * * * * * * * * * * //

dimensions      [0 3 -1 0 0 0 0];

internalField   nonuniform List<scalar> 
99
(
1.22147e-06
1.22728e-06
1.23169e-06
1.24369e-06
1.23701e-06
1.24693e-06
1.23891e-06
1.22093e-06
1.2109e-06
1.20237e-06
1.20062e-06
1.20178e-06
1.20053e-06
1.19352e-06
1.19665e-06
1.19472e-06
1.19706e-06
1.19384e-06
1.19757e-06
1.19385e-06
1.18473e-06
1.18604e-06
1.19044e-06
1.19266e-06
1.19407e-06
1.20695e-06
1.2133e-06
1.20783e-06
1.20101e-06
1.19562e-06
1.19025e-06
1.18141e-06
1.18882e-06
1.19347e-06
1.18932e-06
1.18773e-06
1.1883e-06
1.18724e-06
1.18571e-06
1.18926e-06
1.18908e-06
1.18735e-06
1.18334e-06
1.18829e-06
1.1845e-06
1.18352e-06
1.18167e-06
1.1839e-06
1.18488e-06
1.18659e-06
1.1837e-06
1.1853e-06
1.18367e-06
1.18144e-06
1.17912e-06
1.18174e-06
1.17982e-06
1.18019e-06
1.18033e-06
1.18101e-06
1.17767e-06
1.1742e-06
1.17242e-06
1.17105e-06
1.17631e-06
1.17476e-06
1.17639e-06
1.17502e-06
1.17442e-06
1.17264e-06
1.17288e-06
1.17018e-06
1.17379e-06
1.17485e-06
1.17873e-06
1.17715e-06
1.18039e-06
1.17999e-06
1.17734e-06
1.17587e-06
1.17343e-06
1.17453e-06
1.1774e-06
1.18009e-06
1.17826e-06
1.17845e-06
1.181e-06
1.1811e-06
1.18256e-06
1.17928e-06
1.18064e-06
1.17891e-06
1.17874e-06
1.18046e-06
1.17912e-06
1.17818e-06
1.17931e-06
1.17795e-06
1.17877e-06
)
;

boundaryField
{
    inlet
    {
        type            calculated;
        value           uniform -1.225e-06;
    }
    outlet
    {
        type            calculated;
        value           uniform 1.17771e-06;
    }
    yzfaces
    {
        type            empty;
    }
}


// ************************************************************************* //
