/*--------------------------------*- C++ -*----------------------------------*\
| =========                 |                                                 |
| \\      /  F ield         | foam-extend: Open Source CFD                    |
|  \\    /   O peration     | Version:     5.0                                |
|   \\  /    A nd           | Web:         http://www.foam-extend.org         |
|    \\/     M anipulation  |                                                 |
\*---------------------------------------------------------------------------*/
FoamFile
{
    version     2.0;
    format      ascii;
    class       surfaceScalarField;
    location    "9";
    object      phi.water;
}
// * * * * * * * * * * * * * * * * * * * * * * * * * * * * * * * * * * * * * //

dimensions      [0 3 -1 0 0 0 0];

internalField   nonuniform List<scalar> 
99
(
6.48655e-08
1.18048e-07
1.58388e-07
2.11209e-07
2.39241e-07
2.49537e-07
2.53902e-07
2.75622e-07
3.14031e-07
3.60438e-07
4.01529e-07
4.40316e-07
4.65545e-07
4.91415e-07
5.36804e-07
5.68227e-07
6.07768e-07
6.47245e-07
6.79984e-07
7.07325e-07
7.17948e-07
7.56081e-07
7.97749e-07
8.35585e-07
8.71726e-07
9.08746e-07
9.27358e-07
9.36402e-07
9.37121e-07
9.35873e-07
9.41718e-07
9.59231e-07
1.00227e-06
1.0278e-06
1.04519e-06
1.07963e-06
1.12028e-06
1.14509e-06
1.17207e-06
1.205e-06
1.23313e-06
1.25357e-06
1.2728e-06
1.30017e-06
1.30788e-06
1.33882e-06
1.35798e-06
1.38971e-06
1.41361e-06
1.44221e-06
1.4631e-06
1.48857e-06
1.4971e-06
1.5167e-06
1.53636e-06
1.56921e-06
1.58616e-06
1.61338e-06
1.63453e-06
1.66029e-06
1.67557e-06
1.695e-06
1.71149e-06
1.73191e-06
1.76818e-06
1.78359e-06
1.81259e-06
1.83456e-06
1.85927e-06
1.87352e-06
1.8962e-06
1.90713e-06
1.93606e-06
1.95481e-06
1.99412e-06
2.00989e-06
2.04427e-06
2.06845e-06
2.08325e-06
2.10322e-06
2.11541e-06
2.14154e-06
2.16847e-06
2.19438e-06
2.21079e-06
2.23794e-06
2.26507e-06
2.28296e-06
2.30572e-06
2.31707e-06
2.33804e-06
2.35574e-06
2.37967e-06
2.40545e-06
2.42285e-06
2.44029e-06
2.46741e-06
2.48314e-06
2.50379e-06
)
;

boundaryField
{
    inlet
    {
        type            fixedValue;
        value           uniform 0;
    }
    outlet
    {
        type            calculated;
        value           uniform 2.52163e-06;
    }
    yzfaces
    {
        type            empty;
    }
}


// ************************************************************************* //
