/*--------------------------------*- C++ -*----------------------------------*\
| =========                 |                                                 |
| \\      /  F ield         | foam-extend: Open Source CFD                    |
|  \\    /   O peration     | Version:     5.0                                |
|   \\  /    A nd           | Web:         http://www.foam-extend.org         |
|    \\/     M anipulation  |                                                 |
\*---------------------------------------------------------------------------*/
FoamFile
{
    version     2.0;
    format      ascii;
    class       volVectorField;
    location    "9";
    object      U.gas;
}
// * * * * * * * * * * * * * * * * * * * * * * * * * * * * * * * * * * * * * //

dimensions      [0 1 -1 0 0 0 0];

internalField   nonuniform List<vector> 
100
(
(0.00593648 0 0)
(0.00646686 0 0)
(0.00682807 0 0)
(0.00713813 0 0)
(0.00727337 0 0)
(0.00733311 0 0)
(0.00740704 0 0)
(0.00757301 0 0)
(0.00773653 0 0)
(0.00798973 0 0)
(0.00820026 0 0)
(0.00837057 0 0)
(0.00848949 0 0)
(0.00865143 0 0)
(0.00883914 0 0)
(0.00900384 0 0)
(0.00915848 0 0)
(0.0093337 0 0)
(0.00943529 0 0)
(0.00953749 0 0)
(0.00966156 0 0)
(0.00979196 0 0)
(0.00993989 0 0)
(0.010051 0 0)
(0.0101964 0 0)
(0.0103391 0 0)
(0.0103498 0 0)
(0.0103478 0 0)
(0.0103507 0 0)
(0.0102957 0 0)
(0.0102835 0 0)
(0.0103486 0 0)
(0.0104261 0 0)
(0.0104671 0 0)
(0.0105149 0 0)
(0.0105904 0 0)
(0.0106535 0 0)
(0.0106893 0 0)
(0.0107244 0 0)
(0.0108135 0 0)
(0.0108811 0 0)
(0.0109466 0 0)
(0.0109867 0 0)
(0.010997 0 0)
(0.0110382 0 0)
(0.0110743 0 0)
(0.0111166 0 0)
(0.011151 0 0)
(0.0112187 0 0)
(0.0112869 0 0)
(0.0113317 0 0)
(0.0113638 0 0)
(0.0113796 0 0)
(0.011414 0 0)
(0.011433 0 0)
(0.0114679 0 0)
(0.0114991 0 0)
(0.0115547 0 0)
(0.0115663 0 0)
(0.0116026 0 0)
(0.0116166 0 0)
(0.0116491 0 0)
(0.0116694 0 0)
(0.0117016 0 0)
(0.0117596 0 0)
(0.0118218 0 0)
(0.01185 0 0)
(0.0118758 0 0)
(0.011894 0 0)
(0.0119241 0 0)
(0.0119385 0 0)
(0.0119741 0 0)
(0.0120037 0 0)
(0.0120403 0 0)
(0.0120869 0 0)
(0.0121219 0 0)
(0.0121371 0 0)
(0.0121435 0 0)
(0.0121555 0 0)
(0.0121405 0 0)
(0.0121517 0 0)
(0.0121571 0 0)
(0.0121814 0 0)
(0.0122118 0 0)
(0.0122423 0 0)
(0.0122433 0 0)
(0.0122142 0 0)
(0.0122218 0 0)
(0.0122187 0 0)
(0.0122263 0 0)
(0.0122478 0 0)
(0.0122636 0 0)
(0.0122807 0 0)
(0.0122984 0 0)
(0.0123121 0 0)
(0.0123236 0 0)
(0.0123336 0 0)
(0.0123503 0 0)
(0.0123751 0 0)
(0.0123969 0 0)
)
;

boundaryField
{
    inlet
    {
        type            fixedValue;
        value           uniform (0.005 0 0);
    }
    outlet
    {
        type            zeroGradient;
    }
    yzfaces
    {
        type            empty;
    }
}


// ************************************************************************* //
