/*--------------------------------*- C++ -*----------------------------------*\
| =========                 |                                                 |
| \\      /  F ield         | foam-extend: Open Source CFD                    |
|  \\    /   O peration     | Version:     5.0                                |
|   \\  /    A nd           | Web:         http://www.foam-extend.org         |
|    \\/     M anipulation  |                                                 |
\*---------------------------------------------------------------------------*/
FoamFile
{
    version     2.0;
    format      ascii;
    class       volVectorField;
    location    "9";
    object      U.gas;
}
// * * * * * * * * * * * * * * * * * * * * * * * * * * * * * * * * * * * * * //

dimensions      [0 1 -1 0 0 0 0];

internalField   nonuniform List<vector> 
100
(
(0.00592948 0 0)
(0.00641717 0 0)
(0.00678334 0 0)
(0.00717589 0 0)
(0.00736775 0 0)
(0.00743592 0 0)
(0.00751476 0 0)
(0.00762348 0 0)
(0.00779971 0 0)
(0.00801514 0 0)
(0.00820694 0 0)
(0.00838955 0 0)
(0.00851903 0 0)
(0.00863897 0 0)
(0.00882422 0 0)
(0.00897297 0 0)
(0.00914163 0 0)
(0.00929716 0 0)
(0.00941885 0 0)
(0.00952121 0 0)
(0.00953533 0 0)
(0.00965394 0 0)
(0.00981225 0 0)
(0.00995859 0 0)
(0.0100862 0 0)
(0.0102249 0 0)
(0.0103422 0 0)
(0.0103879 0 0)
(0.0103427 0 0)
(0.0103037 0 0)
(0.0102971 0 0)
(0.0103207 0 0)
(0.0104271 0 0)
(0.0105352 0 0)
(0.0106011 0 0)
(0.0106829 0 0)
(0.0107836 0 0)
(0.0108366 0 0)
(0.0109004 0 0)
(0.0109845 0 0)
(0.0110638 0 0)
(0.0111063 0 0)
(0.0111278 0 0)
(0.0111803 0 0)
(0.0112119 0 0)
(0.011272 0 0)
(0.0112973 0 0)
(0.0113646 0 0)
(0.0114237 0 0)
(0.011493 0 0)
(0.0115347 0 0)
(0.0115655 0 0)
(0.0115763 0 0)
(0.0116136 0 0)
(0.0116281 0 0)
(0.011687 0 0)
(0.0117201 0 0)
(0.0117616 0 0)
(0.0117954 0 0)
(0.0118461 0 0)
(0.011858 0 0)
(0.0118649 0 0)
(0.0118597 0 0)
(0.0118806 0 0)
(0.0119516 0 0)
(0.011988 0 0)
(0.0120344 0 0)
(0.0120653 0 0)
(0.0120865 0 0)
(0.0120899 0 0)
(0.0121133 0 0)
(0.0121114 0 0)
(0.0121527 0 0)
(0.0121952 0 0)
(0.0122745 0 0)
(0.012294 0 0)
(0.0123434 0 0)
(0.0123811 0 0)
(0.0123801 0 0)
(0.0123825 0 0)
(0.0123729 0 0)
(0.0123936 0 0)
(0.0124313 0 0)
(0.0124816 0 0)
(0.0125045 0 0)
(0.0125235 0 0)
(0.0125514 0 0)
(0.0125769 0 0)
(0.0125982 0 0)
(0.0126007 0 0)
(0.0126032 0 0)
(0.0126205 0 0)
(0.0126284 0 0)
(0.0126531 0 0)
(0.0126662 0 0)
(0.0126642 0 0)
(0.0126818 0 0)
(0.0126846 0 0)
(0.0126934 0 0)
(0.0127145 0 0)
)
;

boundaryField
{
    inlet
    {
        type            fixedValue;
        value           uniform (0.005 0 0);
    }
    outlet
    {
        type            zeroGradient;
    }
    yzfaces
    {
        type            empty;
    }
}


// ************************************************************************* //
