/*--------------------------------*- C++ -*----------------------------------*\
| =========                 |                                                 |
| \\      /  F ield         | foam-extend: Open Source CFD                    |
|  \\    /   O peration     | Version:     5.0                                |
|   \\  /    A nd           | Web:         http://www.foam-extend.org         |
|    \\/     M anipulation  |                                                 |
\*---------------------------------------------------------------------------*/
FoamFile
{
    version     2.0;
    format      ascii;
    class       volVectorField;
    location    "9";
    object      U.water;
}
// * * * * * * * * * * * * * * * * * * * * * * * * * * * * * * * * * * * * * //

dimensions      [0 1 -1 0 0 0 0];

internalField   nonuniform List<vector> 
100
(
(3.17755e-05 0 0)
(7.62309e-05 0 0)
(0.00011657 0 0)
(0.000150252 0 0)
(0.000181749 0 0)
(0.000197745 0 0)
(0.000205018 0 0)
(0.000217291 0 0)
(0.000242169 0 0)
(0.000276154 0 0)
(0.000312621 0 0)
(0.000342582 0 0)
(0.000369104 0 0)
(0.000391237 0 0)
(0.000420995 0 0)
(0.000453141 0 0)
(0.000481307 0 0)
(0.000512735 0 0)
(0.000544223 0 0)
(0.00056921 0 0)
(0.000593373 0 0)
(0.000619793 0 0)
(0.000648986 0 0)
(0.000675559 0 0)
(0.000701566 0 0)
(0.000735371 0 0)
(0.000760169 0 0)
(0.000762926 0 0)
(0.000765572 0 0)
(0.000768338 0 0)
(0.000771818 0 0)
(0.000785244 0 0)
(0.000803801 0 0)
(0.000823856 0 0)
(0.000842217 0 0)
(0.000863003 0 0)
(0.000887635 0 0)
(0.000914119 0 0)
(0.000937451 0 0)
(0.000958338 0 0)
(0.000982853 0 0)
(0.00100352 0 0)
(0.00102118 0 0)
(0.00103623 0 0)
(0.00105049 0 0)
(0.00106826 0 0)
(0.00108373 0 0)
(0.00110055 0 0)
(0.00112109 0 0)
(0.00114373 0 0)
(0.0011641 0 0)
(0.00118126 0 0)
(0.00119408 0 0)
(0.00120994 0 0)
(0.00122875 0 0)
(0.00124147 0 0)
(0.0012577 0 0)
(0.00128015 0 0)
(0.0012978 0 0)
(0.00131414 0 0)
(0.00133248 0 0)
(0.0013471 0 0)
(0.00136404 0 0)
(0.00137878 0 0)
(0.00139941 0 0)
(0.00142294 0 0)
(0.00144321 0 0)
(0.00146072 0 0)
(0.00147922 0 0)
(0.00149643 0 0)
(0.00151636 0 0)
(0.00153576 0 0)
(0.0015524 0 0)
(0.00156906 0 0)
(0.00158966 0 0)
(0.00160918 0 0)
(0.00162851 0 0)
(0.00164629 0 0)
(0.00166141 0 0)
(0.00167209 0 0)
(0.00168315 0 0)
(0.00170056 0 0)
(0.00171814 0 0)
(0.00173846 0 0)
(0.00175998 0 0)
(0.00177505 0 0)
(0.00178553 0 0)
(0.00180062 0 0)
(0.00181418 0 0)
(0.00182944 0 0)
(0.0018481 0 0)
(0.00186326 0 0)
(0.00187847 0 0)
(0.00189516 0 0)
(0.0019129 0 0)
(0.001928 0 0)
(0.00194354 0 0)
(0.00196227 0 0)
(0.00198132 0 0)
(0.00200339 0 0)
)
;

boundaryField
{
    inlet
    {
        type            fixedValue;
        value           uniform (0 0 0);
    }
    outlet
    {
        type            zeroGradient;
    }
    yzfaces
    {
        type            empty;
    }
}


// ************************************************************************* //
