/*--------------------------------*- C++ -*----------------------------------*\
| =========                 |                                                 |
| \\      /  F ield         | foam-extend: Open Source CFD                    |
|  \\    /   O peration     | Version:     5.0                                |
|   \\  /    A nd           | Web:         http://www.foam-extend.org         |
|    \\/     M anipulation  |                                                 |
\*---------------------------------------------------------------------------*/
FoamFile
{
    version     2.0;
    format      ascii;
    class       volVectorField;
    location    "9";
    object      U.water;
}
// * * * * * * * * * * * * * * * * * * * * * * * * * * * * * * * * * * * * * //

dimensions      [0 1 -1 0 0 0 0];

internalField   nonuniform List<vector> 
100
(
(3.1899e-05 0 0)
(7.51829e-05 0 0)
(0.000113602 0 0)
(0.000149235 0 0)
(0.000182091 0 0)
(0.000199597 0 0)
(0.000207392 0 0)
(0.000217853 0 0)
(0.000241512 0 0)
(0.00027518 0 0)
(0.00031079 0 0)
(0.000343073 0 0)
(0.000370183 0 0)
(0.000391548 0 0)
(0.000419113 0 0)
(0.000451351 0 0)
(0.000480062 0 0)
(0.000511795 0 0)
(0.000541438 0 0)
(0.000565758 0 0)
(0.000583169 0 0)
(0.000601536 0 0)
(0.000633581 0 0)
(0.000666145 0 0)
(0.000695901 0 0)
(0.000725409 0 0)
(0.000749053 0 0)
(0.000760391 0 0)
(0.000765355 0 0)
(0.000765617 0 0)
(0.00076788 0 0)
(0.000776796 0 0)
(0.000799467 0 0)
(0.000828352 0 0)
(0.000847091 0 0)
(0.000867678 0 0)
(0.000897311 0 0)
(0.000924999 0 0)
(0.000945811 0 0)
(0.000969898 0 0)
(0.000994953 0 0)
(0.00101526 0 0)
(0.00103143 0 0)
(0.00104994 0 0)
(0.00106577 0 0)
(0.00108015 0 0)
(0.00110113 0 0)
(0.00112091 0 0)
(0.00114408 0 0)
(0.0011655 0 0)
(0.00118575 0 0)
(0.0012044 0 0)
(0.00121946 0 0)
(0.00123023 0 0)
(0.00124662 0 0)
(0.0012671 0 0)
(0.00128818 0 0)
(0.00130586 0 0)
(0.00132607 0 0)
(0.00134488 0 0)
(0.00136247 0 0)
(0.00137617 0 0)
(0.0013911 0 0)
(0.00140582 0 0)
(0.00142775 0 0)
(0.0014501 0 0)
(0.00146805 0 0)
(0.00148892 0 0)
(0.00150755 0 0)
(0.00152389 0 0)
(0.00153844 0 0)
(0.00155275 0 0)
(0.00156828 0 0)
(0.00158834 0 0)
(0.00161065 0 0)
(0.00163448 0 0)
(0.00165455 0 0)
(0.00167851 0 0)
(0.00169501 0 0)
(0.0017089 0 0)
(0.00172249 0 0)
(0.00173746 0 0)
(0.00175874 0 0)
(0.00178041 0 0)
(0.00179839 0 0)
(0.00181558 0 0)
(0.00183746 0 0)
(0.00185614 0 0)
(0.00187305 0 0)
(0.00188705 0 0)
(0.0019002 0 0)
(0.00191584 0 0)
(0.00193258 0 0)
(0.00195258 0 0)
(0.00197063 0 0)
(0.00198522 0 0)
(0.00200283 0 0)
(0.00202064 0 0)
(0.00203573 0 0)
(0.00205019 0 0)
)
;

boundaryField
{
    inlet
    {
        type            fixedValue;
        value           uniform (0 0 0);
    }
    outlet
    {
        type            zeroGradient;
    }
    yzfaces
    {
        type            empty;
    }
}


// ************************************************************************* //
