/*--------------------------------*- C++ -*----------------------------------*\
| =========                 |                                                 |
| \\      /  F ield         | foam-extend: Open Source CFD                    |
|  \\    /   O peration     | Version:     5.0                                |
|   \\  /    A nd           | Web:         http://www.foam-extend.org         |
|    \\/     M anipulation  |                                                 |
\*---------------------------------------------------------------------------*/
FoamFile
{
    version     2.0;
    format      ascii;
    class       volScalarField;
    location    "1.81344545656384";
    object      alpha.gas;
}
// * * * * * * * * * * * * * * * * * * * * * * * * * * * * * * * * * * * * * //

dimensions      [0 0 0 0 0 0 0];

internalField   nonuniform List<scalar> 
100
(
0.130749
0.113434
0.102618
0.0948666
0.0886813
0.0836751
0.0791898
0.0751883
0.0715881
0.0682397
0.0650252
0.0620434
0.0591403
0.0563318
0.0530289
0.0494571
0.0461951
0.0433482
0.00421512
0.0395151
0.0382667
0.0373078
0.0364745
0.0356575
0.0347967
0.0338681
0.0327989
0.0316004
0.0302686
0.028762
0.0270744
0.0252111
0.0231966
0.0210708
0.0189182
0.0168398
0.0149623
0.0133962
0.0122033
0.0113606
0.0108085
0.0104668
0.0102649
0.0101488
0.0100836
0.010046
0.0100247
0.0100147
0.0100087
0.0100035
0.0100002
0.00999836
0.00999711
0.00999737
0.0100001
0.0100006
0.0100001
0.00999965
0.0100011
0.0100027
0.00999877
0.00999833
0.00999989
0.0100005
0.0100024
0.0100007
0.0100004
0.0100005
0.010001
0.0100017
0.0100024
0.0100008
0.0100028
0.0100027
0.0100019
0.0100014
0.0100021
0.0100025
0.0100028
0.0100015
0.01
0.00999985
0.00999897
0.00999728
0.00999577
0.00999691
0.00999794
0.0100007
0.0100001
0.0099987
0.00999889
0.00999741
0.00999985
0.00999881
0.00999999
0.00999855
0.0099975
0.00999577
0.00999544
0.00999953
)
;

boundaryField
{
    inlet
    {
        type            fixedValue;
        value           uniform 0.2;
    }
    outlet
    {
        type            zeroGradient;
    }
    yzfaces
    {
        type            empty;
    }
}


// ************************************************************************* //
