/*--------------------------------*- C++ -*----------------------------------*\
| =========                 |                                                 |
| \\      /  F ield         | foam-extend: Open Source CFD                    |
|  \\    /   O peration     | Version:     5.0                                |
|   \\  /    A nd           | Web:         http://www.foam-extend.org         |
|    \\/     M anipulation  |                                                 |
\*---------------------------------------------------------------------------*/
FoamFile
{
    version     2.0;
    format      ascii;
    class       volScalarField;
    location    "1.81344545656384";
    object      Cl.water;
}
// * * * * * * * * * * * * * * * * * * * * * * * * * * * * * * * * * * * * * //

dimensions      [0 0 0 0 0 0 0];

internalField   nonuniform List<scalar> 
100
(
0
0.00457808
0.00820627
0.00653659
0.00672636
0.00870571
0.00743135
0.00742384
0.00924811
0.0116243
0.00869127
0.00877238
0.0112717
0.0139661
0.00792569
0.00995813
0.0138923
0.0167209
5.16254e-15
0.0190655
0.0194444
0.0196599
0.019787
0.0198799
0.0199837
0.0200977
0.0202212
0.0203756
0.0205338
0.0207257
0.0209114
0.0211544
0.0213814
0.0216571
0.021928
0.0221713
0.0223882
0.0225873
0.0227422
0.0228411
0.0228968
0.0229441
0.0229769
0.0229731
0.0229813
0.0229882
0.0230057
0.0229944
0.0230044
0.0229858
0.0229779
0.0229876
0.0229853
0.0229845
0.0229703
0.023005
0.0230079
0.0230025
0.0230263
0.0230089
0.0230153
0.0229858
0.0229927
0.0229789
0.0229744
0.0229935
0.0229789
0.0230084
0.0229886
0.0229848
0.0229814
0.0230011
0.0230082
0.0230211
0.0230154
0.0230224
0.0230089
0.0230282
0.023004
0.0230057
0.0230381
0.0230233
0.0230156
0.023022
0.02302
0.023008
0.0229746
0.0229938
0.023005
0.0229954
0.0230141
0.023022
0.0229945
0.0229805
0.0229729
0.0229508
0.0229608
0.0229575
0.0229369
0.0229589
)
;

boundaryField
{
    inlet
    {
        type            fixedValue;
        value           uniform 0;
    }
    outlet
    {
        type            zeroGradient;
    }
    yzfaces
    {
        type            empty;
    }
}


// ************************************************************************* //
