/*--------------------------------*- C++ -*----------------------------------*\
| =========                 |                                                 |
| \\      /  F ield         | foam-extend: Open Source CFD                    |
|  \\    /   O peration     | Version:     5.0                                |
|   \\  /    A nd           | Web:         http://www.foam-extend.org         |
|    \\/     M anipulation  |                                                 |
\*---------------------------------------------------------------------------*/
FoamFile
{
    version     2.0;
    format      ascii;
    class       volScalarField;
    location    "1.81344545656384";
    object      H2O.gas;
}
// * * * * * * * * * * * * * * * * * * * * * * * * * * * * * * * * * * * * * //

dimensions      [0 0 0 0 0 0 0];

internalField   nonuniform List<scalar> 
100
(
1.31441e-10
1.31641e-08
9.42502e-08
3.78398e-07
1.13436e-06
2.85444e-06
6.34401e-06
1.27955e-05
2.40787e-05
4.3449e-05
7.38847e-05
0.00012004
0.000191553
0.000308209
0.000437099
0.000635625
0.000991963
0.00157331
8.20883e-06
0.00351347
0.00485069
0.00639755
0.00809192
0.00987953
0.0117281
0.013558
0.0152927
0.0168624
0.0181812
0.0191746
0.0197318
0.0198627
0.0194803
0.0186677
0.0174865
0.0160465
0.0145623
0.0132211
0.0121383
0.0113403
0.0107997
0.0104658
0.0102658
0.0101433
0.0100789
0.0100442
0.0100257
0.0100129
0.010013
0.00999911
0.0099916
0.00999397
0.0099904
0.00998969
0.00998561
0.00999921
0.00999893
0.00999599
0.0100056
0.0100021
0.0100052
0.00999491
0.00999546
0.0099915
0.00998984
0.00999882
0.00999233
0.0100056
0.00999909
0.010002
0.0100012
0.010006
0.010006
0.0100107
0.0100089
0.0100095
0.0100062
0.0100131
0.0100045
0.0100045
0.0100176
0.0100091
0.0100029
0.010005
0.0100054
0.00999949
0.00998619
0.00999482
0.00999913
0.00999145
0.0100004
0.0100045
0.00999816
0.00999321
0.00999131
0.00998133
0.00998412
0.0099817
0.00997188
0.00998408
)
;

boundaryField
{
    inlet
    {
        type            fixedValue;
        value           uniform 0;
    }
    outlet
    {
        type            zeroGradient;
    }
    yzfaces
    {
        type            empty;
    }
}


// ************************************************************************* //
