/*--------------------------------*- C++ -*----------------------------------*\
| =========                 |                                                 |
| \\      /  F ield         | foam-extend: Open Source CFD                    |
|  \\    /   O peration     | Version:     5.0                                |
|   \\  /    A nd           | Web:         http://www.foam-extend.org         |
|    \\/     M anipulation  |                                                 |
\*---------------------------------------------------------------------------*/
FoamFile
{
    version     2.0;
    format      ascii;
    class       volScalarField;
    location    "1.81344545656384";
    object      Na.water;
}
// * * * * * * * * * * * * * * * * * * * * * * * * * * * * * * * * * * * * * //

dimensions      [0 0 0 0 0 0 0];

internalField   nonuniform List<scalar> 
100
(
0
0.00457939
0.00820943
0.0065354
0.00672764
0.00871106
0.00743401
0.00742292
0.00924326
0.0116222
0.00869104
0.00877358
0.011275
0.0139652
0.00792365
0.00995462
0.0138891
0.0167252
5.16254e-15
0.0190665
0.0194457
0.0196574
0.0197803
0.0198739
0.0199857
0.0201047
0.0202347
0.0203809
0.0205354
0.0207314
0.0209204
0.0211553
0.0213815
0.0216537
0.0219244
0.0221586
0.0223774
0.022583
0.0227432
0.0228415
0.0228915
0.0229373
0.0229595
0.0229603
0.0229678
0.0229794
0.0229888
0.0229871
0.0229967
0.0229759
0.0229734
0.0229829
0.0229855
0.0229853
0.0229722
0.0230086
0.0230089
0.0230043
0.0230211
0.0230031
0.0230143
0.0229901
0.0229917
0.0229811
0.0229743
0.022996
0.0229871
0.0230121
0.0230025
0.0230061
0.0229881
0.0230026
0.0229978
0.0230096
0.0230034
0.023008
0.0229986
0.0230187
0.0230034
0.023009
0.0230423
0.0230242
0.0230127
0.0230224
0.0230301
0.023017
0.0229852
0.0229933
0.0230032
0.0229842
0.0230004
0.0230114
0.0229899
0.0229822
0.0229766
0.0229595
0.0229739
0.0229712
0.0229474
0.0229677
)
;

boundaryField
{
    inlet
    {
        type            fixedValue;
        value           uniform 0;
    }
    outlet
    {
        type            zeroGradient;
    }
    yzfaces
    {
        type            empty;
    }
}


// ************************************************************************* //
