/*--------------------------------*- C++ -*----------------------------------*\
| =========                 |                                                 |
| \\      /  F ield         | foam-extend: Open Source CFD                    |
|  \\    /   O peration     | Version:     5.0                                |
|   \\  /    A nd           | Web:         http://www.foam-extend.org         |
|    \\/     M anipulation  |                                                 |
\*---------------------------------------------------------------------------*/
FoamFile
{
    version     2.0;
    format      ascii;
    class       surfaceScalarField;
    location    "1.81344545656384";
    object      phi;
}
// * * * * * * * * * * * * * * * * * * * * * * * * * * * * * * * * * * * * * //

dimensions      [0 3 -1 0 0 0 0];

internalField   nonuniform List<scalar> 
99
(
1.22776e-06
1.22488e-06
1.21905e-06
1.21402e-06
1.21616e-06
1.20876e-06
1.19917e-06
1.19742e-06
1.19742e-06
1.19425e-06
1.19433e-06
1.19333e-06
1.19372e-06
1.19524e-06
1.19655e-06
1.19643e-06
1.19328e-06
1.1975e-06
1.20135e-06
1.20164e-06
1.20227e-06
1.20029e-06
1.19842e-06
1.19789e-06
1.19983e-06
1.1989e-06
1.20138e-06
1.20344e-06
1.20278e-06
1.20126e-06
1.19978e-06
1.19985e-06
1.20072e-06
1.20052e-06
1.19918e-06
1.19969e-06
1.19874e-06
1.20053e-06
1.19719e-06
1.19674e-06
1.19643e-06
1.19646e-06
1.19392e-06
1.19546e-06
1.1958e-06
1.19506e-06
1.19536e-06
1.19738e-06
1.19658e-06
1.1959e-06
1.197e-06
1.19796e-06
1.19641e-06
1.19771e-06
1.19883e-06
1.19779e-06
1.19757e-06
1.1989e-06
1.19905e-06
1.19719e-06
1.19661e-06
1.19565e-06
1.19481e-06
1.19598e-06
1.1942e-06
1.19476e-06
1.19539e-06
1.19392e-06
1.19319e-06
1.19424e-06
1.19501e-06
1.19469e-06
1.19491e-06
1.1956e-06
1.19491e-06
1.19417e-06
1.19511e-06
1.19318e-06
1.1945e-06
1.19449e-06
1.1939e-06
1.19354e-06
1.19463e-06
1.19367e-06
1.19285e-06
1.19258e-06
1.19202e-06
1.19227e-06
1.19142e-06
1.19206e-06
1.19169e-06
1.18968e-06
1.18852e-06
1.1875e-06
1.1861e-06
1.18729e-06
1.18731e-06
1.18604e-06
1.18661e-06
)
;

boundaryField
{
    inlet
    {
        type            calculated;
        value           uniform -1.225e-06;
    }
    outlet
    {
        type            calculated;
        value           uniform 1.18643e-06;
    }
    yzfaces
    {
        type            empty;
    }
}


// ************************************************************************* //
