/*--------------------------------*- C++ -*----------------------------------*\
| =========                 |                                                 |
| \\      /  F ield         | foam-extend: Open Source CFD                    |
|  \\    /   O peration     | Version:     5.0                                |
|   \\  /    A nd           | Web:         http://www.foam-extend.org         |
|    \\/     M anipulation  |                                                 |
\*---------------------------------------------------------------------------*/
FoamFile
{
    version     2.0;
    format      ascii;
    class       volScalarField;
    location    "1.81344545656384";
    object      S.gas;
}
// * * * * * * * * * * * * * * * * * * * * * * * * * * * * * * * * * * * * * //

dimensions      [0 0 0 0 0 0 0];

internalField   nonuniform List<scalar> 
100
(
0.653745
0.567171
0.513092
0.474333
0.443407
0.418376
0.395949
0.375942
0.357941
0.341198
0.325126
0.310217
0.295702
0.281659
0.265145
0.247286
0.230976
0.216741
0.205792
0.197576
0.191333
0.186539
0.182373
0.178287
0.173983
0.169341
0.163995
0.158002
0.151343
0.14381
0.135372
0.126055
0.115983
0.105354
0.0945911
0.0841992
0.0748114
0.0669811
0.0610165
0.056803
0.0540427
0.0523341
0.0513246
0.0507439
0.0504179
0.0502302
0.0501237
0.0500733
0.0500436
0.0500173
0.0500008
0.0499918
0.0499855
0.0499868
0.0500007
0.0500031
0.0500005
0.0499983
0.0500057
0.0500136
0.0499939
0.0499916
0.0499995
0.0500025
0.0500119
0.0500035
0.0500018
0.0500023
0.0500049
0.0500083
0.0500119
0.0500038
0.0500141
0.0500135
0.0500093
0.0500071
0.0500103
0.0500125
0.0500139
0.0500073
0.05
0.0499993
0.0499948
0.0499864
0.0499788
0.0499846
0.0499897
0.0500037
0.0500003
0.0499935
0.0499944
0.049987
0.0499993
0.0499941
0.05
0.0499927
0.0499875
0.0499789
0.0499772
0.0499976
)
;

boundaryField
{
    inlet
    {
        type            calculated;
        value           uniform 1;
    }
    outlet
    {
        type            calculated;
        value           uniform 0.0499976;
    }
    yzfaces
    {
        type            empty;
    }
}


// ************************************************************************* //
