/*--------------------------------*- C++ -*----------------------------------*\
| =========                 |                                                 |
| \\      /  F ield         | foam-extend: Open Source CFD                    |
|  \\    /   O peration     | Version:     5.0                                |
|   \\  /    A nd           | Web:         http://www.foam-extend.org         |
|    \\/     M anipulation  |                                                 |
\*---------------------------------------------------------------------------*/
FoamFile
{
    version     2.0;
    format      ascii;
    class       volVectorField;
    location    "1.81344545656384";
    object      U.gas;
}
// * * * * * * * * * * * * * * * * * * * * * * * * * * * * * * * * * * * * * //

dimensions      [0 1 -1 0 0 0 0];

internalField   nonuniform List<vector> 
100
(
(0.00759678 0 0)
(0.00861484 0 0)
(0.0093287 0 0)
(0.00987279 0 0)
(0.0103615 0 0)
(0.0107583 0 0)
(0.0110726 0 0)
(0.0113693 0 0)
(0.0116748 0 0)
(0.0119492 0 0)
(0.0122078 0 0)
(0.0124399 0 0)
(0.0126588 0 0)
(0.0128641 0 0)
(0.013129 0 0)
(0.0133439 0 0)
(0.0133943 0 0)
(0.0133664 0 0)
(0.0132726 0 0)
(0.013131 0 0)
(0.0129814 0 0)
(0.0128381 0 0)
(0.0127154 0 0)
(0.0126184 0 0)
(0.0125381 0 0)
(0.0124437 0 0)
(0.0123403 0 0)
(0.0122145 0 0)
(0.012032 0 0)
(0.0117835 0 0)
(0.0114614 0 0)
(0.0110609 0 0)
(0.0105718 0 0)
(0.00997158 0 0)
(0.00925011 0 0)
(0.00844889 0 0)
(0.00761193 0 0)
(0.00681021 0 0)
(0.00610855 0 0)
(0.00555423 0 0)
(0.00516583 0 0)
(0.00491166 0 0)
(0.00474955 0 0)
(0.00465465 0 0)
(0.00460461 0 0)
(0.00457438 0 0)
(0.00455652 0 0)
(0.00455121 0 0)
(0.0045498 0 0)
(0.00454425 0 0)
(0.0045419 0 0)
(0.00454412 0 0)
(0.0045428 0 0)
(0.00454185 0 0)
(0.00454627 0 0)
(0.0045475 0 0)
(0.00454537 0 0)
(0.00454725 0 0)
(0.00454984 0 0)
(0.00454832 0 0)
(0.00454451 0 0)
(0.00453864 0 0)
(0.00453462 0 0)
(0.00453633 0 0)
(0.00453586 0 0)
(0.00453431 0 0)
(0.00453524 0 0)
(0.00453381 0 0)
(0.00452955 0 0)
(0.00452987 0 0)
(0.00453442 0 0)
(0.00453581 0 0)
(0.0045342 0 0)
(0.00453684 0 0)
(0.004537 0 0)
(0.00453382 0 0)
(0.00453368 0 0)
(0.0045322 0 0)
(0.0045311 0 0)
(0.00453389 0 0)
(0.00453261 0 0)
(0.00452988 0 0)
(0.00453134 0 0)
(0.00453106 0 0)
(0.00452702 0 0)
(0.00452485 0 0)
(0.00452335 0 0)
(0.0045229 0 0)
(0.00452368 0 0)
(0.00452277 0 0)
(0.00452245 0 0)
(0.00451851 0 0)
(0.00451156 0 0)
(0.0045078 0 0)
(0.00450292 0 0)
(0.00450298 0 0)
(0.00450435 0 0)
(0.0045022 0 0)
(0.0045005 0 0)
(0.00449854 0 0)
)
;

boundaryField
{
    inlet
    {
        type            fixedValue;
        value           uniform (0.005 0 0);
    }
    outlet
    {
        type            zeroGradient;
    }
    yzfaces
    {
        type            empty;
    }
}


// ************************************************************************* //
