/*--------------------------------*- C++ -*----------------------------------*\
| =========                 |                                                 |
| \\      /  F ield         | foam-extend: Open Source CFD                    |
|  \\    /   O peration     | Version:     5.0                                |
|   \\  /    A nd           | Web:         http://www.foam-extend.org         |
|    \\/     M anipulation  |                                                 |
\*---------------------------------------------------------------------------*/
FoamFile
{
    version     2.0;
    format      ascii;
    class       volVectorField;
    location    "1.81344545656384";
    object      U.water;
}
// * * * * * * * * * * * * * * * * * * * * * * * * * * * * * * * * * * * * * //

dimensions      [0 1 -1 0 0 0 0];

internalField   nonuniform List<vector> 
100
(
(0.000113448 0 0)
(0.00027567 0 0)
(0.000413099 0 0)
(0.000537348 0 0)
(0.00065614 0 0)
(0.000769899 0 0)
(0.000877361 0 0)
(0.00098837 0 0)
(0.00110356 0 0)
(0.00122026 0 0)
(0.00134184 0 0)
(0.00146959 0 0)
(0.00160205 0 0)
(0.00174311 0 0)
(0.00190529 0 0)
(0.00210422 0 0)
(0.00231876 0 0)
(0.00253058 0 0)
(0.00272503 0 0)
(0.0028784 0 0)
(0.00299526 0 0)
(0.00308359 0 0)
(0.00315104 0 0)
(0.00321367 0 0)
(0.0032831 0 0)
(0.00335655 0 0)
(0.00343872 0 0)
(0.00353668 0 0)
(0.0036407 0 0)
(0.00375108 0 0)
(0.00387279 0 0)
(0.00400817 0 0)
(0.00415487 0 0)
(0.0043033 0 0)
(0.00444259 0 0)
(0.00456896 0 0)
(0.00467504 0 0)
(0.00475909 0 0)
(0.00481433 0 0)
(0.00484529 0 0)
(0.00486791 0 0)
(0.00488189 0 0)
(0.0048853 0 0)
(0.00488814 0 0)
(0.00489475 0 0)
(0.00489542 0 0)
(0.00489539 0 0)
(0.00490065 0 0)
(0.00490333 0 0)
(0.00490042 0 0)
(0.00490145 0 0)
(0.00490576 0 0)
(0.00490455 0 0)
(0.00490406 0 0)
(0.00490903 0 0)
(0.00490915 0 0)
(0.00490655 0 0)
(0.00490883 0 0)
(0.00491187 0 0)
(0.00490828 0 0)
(0.00490324 0 0)
(0.00490023 0 0)
(0.00489659 0 0)
(0.00489722 0 0)
(0.00489592 0 0)
(0.00489337 0 0)
(0.00489589 0 0)
(0.00489418 0 0)
(0.00488967 0 0)
(0.00489034 0 0)
(0.00489401 0 0)
(0.00489489 0 0)
(0.00489476 0 0)
(0.00489657 0 0)
(0.00489657 0 0)
(0.00489367 0 0)
(0.00489409 0 0)
(0.00489206 0 0)
(0.00489081 0 0)
(0.00489348 0 0)
(0.00489225 0 0)
(0.00489035 0 0)
(0.00489185 0 0)
(0.00489215 0 0)
(0.00488852 0 0)
(0.00488629 0 0)
(0.00488459 0 0)
(0.00488395 0 0)
(0.00488262 0 0)
(0.00488222 0 0)
(0.00488282 0 0)
(0.00487792 0 0)
(0.00487147 0 0)
(0.00486697 0 0)
(0.00486205 0 0)
(0.00486159 0 0)
(0.00486412 0 0)
(0.00486154 0 0)
(0.00486011 0 0)
(0.00486106 0 0)
)
;

boundaryField
{
    inlet
    {
        type            fixedValue;
        value           uniform (0 0 0);
    }
    outlet
    {
        type            zeroGradient;
    }
    yzfaces
    {
        type            empty;
    }
}


// ************************************************************************* //
