/*--------------------------------*- C++ -*----------------------------------*\
| =========                 |                                                 |
| \\      /  F ield         | foam-extend: Open Source CFD                    |
|  \\    /   O peration     | Version:     5.0                                |
|   \\  /    A nd           | Web:         http://www.foam-extend.org         |
|    \\/     M anipulation  |                                                 |
\*---------------------------------------------------------------------------*/
FoamFile
{
    version     2.0;
    format      ascii;
    class       volScalarField;
    location    "0.842089";
    object      alpha.gas;
}
// * * * * * * * * * * * * * * * * * * * * * * * * * * * * * * * * * * * * * //

dimensions      [0 0 0 0 0 0 0];

internalField   nonuniform List<scalar> 
100
(
0.107773
0.0895105
0.0787845
0.069754
0.0626489
0.0570751
0.0471844
0.0417448
0.0387537
0.036937
0.0354645
0.0339108
0.0321189
0.0300286
0.0276942
0.0251606
0.0224858
0.0197818
0.0172237
0.014987
0.0132102
0.0119354
0.0111076
0.0106085
0.0103262
0.0101724
0.0100916
0.0100487
0.0100247
0.0100151
0.0100073
0.0100025
0.0100026
0.0100022
0.0100019
0.0100012
0.00999945
0.0099974
0.00999597
0.00999729
0.00999968
0.00999985
0.00999931
0.00999845
0.00999768
0.00999787
0.00999948
0.00999901
0.00999958
0.0100008
0.00999934
0.0100011
0.01
0.00999847
0.00999956
0.0100007
0.0100001
0.00999933
0.00999982
0.0100004
0.0100011
0.00999991
0.00999982
0.0100014
0.0100014
0.0100001
0.010001
0.0100011
0.0100004
0.0100005
0.0100003
0.00999965
0.00999992
0.0099994
0.00999792
0.00999817
0.00999819
0.00999882
0.00999739
0.0100009
0.010002
0.0100014
0.0100031
0.0100019
0.0100018
0.0100009
0.010002
0.00999992
0.0100001
0.0100004
0.00999855
0.00999791
0.0099978
0.00999708
0.00999773
0.0099987
0.0099988
0.0099985
0.00999686
0.00999133
)
;

boundaryField
{
    inlet
    {
        type            fixedValue;
        value           uniform 0.2;
    }
    outlet
    {
        type            zeroGradient;
    }
    yzfaces
    {
        type            empty;
    }
}


// ************************************************************************* //
