/*--------------------------------*- C++ -*----------------------------------*\
| =========                 |                                                 |
| \\      /  F ield         | foam-extend: Open Source CFD                    |
|  \\    /   O peration     | Version:     5.0                                |
|   \\  /    A nd           | Web:         http://www.foam-extend.org         |
|    \\/     M anipulation  |                                                 |
\*---------------------------------------------------------------------------*/
FoamFile
{
    version     2.0;
    format      ascii;
    class       volScalarField;
    location    "0.842089";
    object      Cl.water;
}
// * * * * * * * * * * * * * * * * * * * * * * * * * * * * * * * * * * * * * //

dimensions      [0 0 0 0 0 0 0];

internalField   nonuniform List<scalar> 
100
(
0
0.0072955
0.0117621
0.00525187
0.0090709
0.0134337
0.00399194
0.0120023
0.0168822
0.0189108
0.0196857
0.0200472
0.0202902
0.0205607
0.0208571
0.021193
0.0214949
0.0218193
0.0221305
0.0223891
0.0226151
0.0227577
0.0228612
0.0229063
0.0229411
0.0229575
0.0229711
0.0229594
0.0229978
0.0229792
0.022994
0.0230022
0.0230087
0.0230017
0.0230003
0.0229973
0.0230159
0.0229974
0.0230164
0.0229971
0.0229861
0.0229921
0.0229974
0.0229791
0.022977
0.0229849
0.0229683
0.022973
0.0229876
0.0229917
0.0229965
0.0230034
0.0230166
0.0229981
0.0230047
0.0229932
0.0230075
0.0229862
0.0229911
0.0229976
0.0229901
0.023008
0.0229957
0.0229947
0.0229754
0.0229901
0.0229822
0.0229921
0.0230108
0.0230033
0.0230091
0.0230136
0.0229964
0.0229981
0.0230074
0.0230169
0.0230114
0.0230262
0.0230208
0.0230162
0.0229966
0.0229859
0.0229935
0.0229965
0.0230054
0.0230018
0.0230023
0.0229995
0.0230112
0.0229899
0.0229913
0.022979
0.0229814
0.0229871
0.022977
0.0229976
0.023006
0.0230116
0.023023
0.0230151
)
;

boundaryField
{
    inlet
    {
        type            fixedValue;
        value           uniform 0;
    }
    outlet
    {
        type            zeroGradient;
    }
    yzfaces
    {
        type            empty;
    }
}


// ************************************************************************* //
