/*--------------------------------*- C++ -*----------------------------------*\
| =========                 |                                                 |
| \\      /  F ield         | foam-extend: Open Source CFD                    |
|  \\    /   O peration     | Version:     5.0                                |
|   \\  /    A nd           | Web:         http://www.foam-extend.org         |
|    \\/     M anipulation  |                                                 |
\*---------------------------------------------------------------------------*/
FoamFile
{
    version     2.0;
    format      ascii;
    class       volScalarField;
    location    "0.842089";
    object      H2O.gas;
}
// * * * * * * * * * * * * * * * * * * * * * * * * * * * * * * * * * * * * * //

dimensions      [0 0 0 0 0 0 0];

internalField   nonuniform List<scalar> 
100
(
6.32245e-08
1.19799e-05
5.98781e-05
0.000128263
0.000272482
0.000588429
0.000655269
0.00143744
0.00282277
0.00464915
0.00675104
0.00897971
0.0111697
0.0131713
0.0147968
0.0158984
0.0162959
0.0160156
0.015171
0.0139907
0.012794
0.011775
0.0110564
0.010587
0.0103155
0.0101653
0.0100877
0.0100356
0.010026
0.0100089
0.0100083
0.0100068
0.0100076
0.0100032
0.0100039
0.0100019
0.0100064
0.00999506
0.0100032
0.00999677
0.00999327
0.00999597
0.00999681
0.00998885
0.00998922
0.00999033
0.00998559
0.00998497
0.00999011
0.0099929
0.0099936
0.00999839
0.0100036
0.00999652
0.00999928
0.00999722
0.0100032
0.00999313
0.00999638
0.0100007
0.00999781
0.0100036
0.00999983
0.0100009
0.00999261
0.00999907
0.00999784
0.0100021
0.0100078
0.0100044
0.0100037
0.0100072
0.00999798
0.0100012
0.0100033
0.0100063
0.0100035
0.0100125
0.0100072
0.0100049
0.00999915
0.00999355
0.00999544
0.0099977
0.00999766
0.00999775
0.00999834
0.00999811
0.0100049
0.00999604
0.00999498
0.00999056
0.00999229
0.00999297
0.00998905
0.0099971
0.0100015
0.0100023
0.0100035
0.00999508
)
;

boundaryField
{
    inlet
    {
        type            fixedValue;
        value           uniform 0;
    }
    outlet
    {
        type            zeroGradient;
    }
    yzfaces
    {
        type            empty;
    }
}


// ************************************************************************* //
