/*--------------------------------*- C++ -*----------------------------------*\
| =========                 |                                                 |
| \\      /  F ield         | foam-extend: Open Source CFD                    |
|  \\    /   O peration     | Version:     5.0                                |
|   \\  /    A nd           | Web:         http://www.foam-extend.org         |
|    \\/     M anipulation  |                                                 |
\*---------------------------------------------------------------------------*/
FoamFile
{
    version     2.0;
    format      ascii;
    class       volScalarField;
    location    "0.842089";
    object      Na.water;
}
// * * * * * * * * * * * * * * * * * * * * * * * * * * * * * * * * * * * * * //

dimensions      [0 0 0 0 0 0 0];

internalField   nonuniform List<scalar> 
100
(
0
0.00729711
0.0117665
0.00525306
0.0090763
0.013441
0.00399376
0.0119966
0.0168812
0.0189058
0.0196772
0.0200403
0.0202893
0.0205627
0.0208562
0.021193
0.0215004
0.0218197
0.0221288
0.0223766
0.0226099
0.0227558
0.0228661
0.0229186
0.0229571
0.0229694
0.0229807
0.0229607
0.022997
0.0229833
0.0230005
0.0230077
0.0230164
0.0230083
0.0230046
0.0229965
0.0230045
0.0229841
0.0230081
0.0229886
0.0229739
0.0229812
0.0229865
0.0229673
0.0229681
0.0229703
0.0229615
0.0229631
0.0229799
0.0229905
0.0229934
0.0229984
0.0230149
0.0229987
0.0229995
0.0229937
0.0230057
0.0229885
0.0229959
0.0230021
0.0229904
0.0229979
0.0229908
0.0229961
0.0229823
0.0229953
0.0229897
0.0229965
0.0230084
0.0230025
0.0230037
0.0230157
0.0229925
0.0229976
0.0230087
0.02302
0.0230129
0.0230317
0.0230227
0.0230253
0.0230164
0.0230032
0.0230025
0.0229997
0.0229931
0.0229968
0.02299
0.0229892
0.0230084
0.0229903
0.0229865
0.0229782
0.0229859
0.0229885
0.022976
0.0229922
0.0230146
0.023018
0.0230234
0.0230138
)
;

boundaryField
{
    inlet
    {
        type            fixedValue;
        value           uniform 0;
    }
    outlet
    {
        type            zeroGradient;
    }
    yzfaces
    {
        type            empty;
    }
}


// ************************************************************************* //
