/*--------------------------------*- C++ -*----------------------------------*\
| =========                 |                                                 |
| \\      /  F ield         | foam-extend: Open Source CFD                    |
|  \\    /   O peration     | Version:     5.0                                |
|   \\  /    A nd           | Web:         http://www.foam-extend.org         |
|    \\/     M anipulation  |                                                 |
\*---------------------------------------------------------------------------*/
FoamFile
{
    version     2.0;
    format      ascii;
    class       surfaceScalarField;
    location    "0.842089";
    object      phi;
}
// * * * * * * * * * * * * * * * * * * * * * * * * * * * * * * * * * * * * * //

dimensions      [0 3 -1 0 0 0 0];

internalField   nonuniform List<scalar> 
99
(
1.22475e-06
1.22198e-06
1.22034e-06
1.2218e-06
1.22141e-06
1.21855e-06
1.21691e-06
1.21546e-06
1.21759e-06
1.21873e-06
1.21764e-06
1.21739e-06
1.21811e-06
1.21666e-06
1.21822e-06
1.21563e-06
1.21417e-06
1.21484e-06
1.21483e-06
1.21636e-06
1.21458e-06
1.21604e-06
1.21608e-06
1.21569e-06
1.21673e-06
1.21789e-06
1.21552e-06
1.21622e-06
1.21567e-06
1.21477e-06
1.21439e-06
1.21254e-06
1.21095e-06
1.20984e-06
1.20999e-06
1.20936e-06
1.20672e-06
1.20668e-06
1.20667e-06
1.20511e-06
1.20513e-06
1.20374e-06
1.20367e-06
1.20425e-06
1.20499e-06
1.20605e-06
1.2067e-06
1.20545e-06
1.20648e-06
1.20823e-06
1.20782e-06
1.20654e-06
1.20569e-06
1.20634e-06
1.20541e-06
1.20531e-06
1.20661e-06
1.20579e-06
1.207e-06
1.20644e-06
1.20634e-06
1.20593e-06
1.20416e-06
1.20391e-06
1.20433e-06
1.20521e-06
1.20504e-06
1.20386e-06
1.20298e-06
1.20316e-06
1.20339e-06
1.20213e-06
1.20266e-06
1.20318e-06
1.2049e-06
1.2031e-06
1.20553e-06
1.20362e-06
1.20236e-06
1.20204e-06
1.20116e-06
1.2019e-06
1.20028e-06
1.19926e-06
1.20058e-06
1.20128e-06
1.20131e-06
1.20163e-06
1.20112e-06
1.20168e-06
1.1997e-06
1.20044e-06
1.20137e-06
1.20196e-06
1.20254e-06
1.2035e-06
1.2034e-06
1.20284e-06
1.20165e-06
)
;

boundaryField
{
    inlet
    {
        type            calculated;
        value           uniform -1.225e-06;
    }
    outlet
    {
        type            calculated;
        value           uniform 1.20201e-06;
    }
    yzfaces
    {
        type            empty;
    }
}


// ************************************************************************* //
