/*--------------------------------*- C++ -*----------------------------------*\
| =========                 |                                                 |
| \\      /  F ield         | foam-extend: Open Source CFD                    |
|  \\    /   O peration     | Version:     5.0                                |
|   \\  /    A nd           | Web:         http://www.foam-extend.org         |
|    \\/     M anipulation  |                                                 |
\*---------------------------------------------------------------------------*/
FoamFile
{
    version     2.0;
    format      ascii;
    class       surfaceScalarField;
    location    "0.842089";
    object      phi.water;
}
// * * * * * * * * * * * * * * * * * * * * * * * * * * * * * * * * * * * * * //

dimensions      [0 3 -1 0 0 0 0];

internalField   nonuniform List<scalar> 
99
(
4.82988e-07
8.42027e-07
1.15329e-06
1.51619e-06
1.87285e-06
2.16776e-06
2.92547e-06
3.42289e-06
3.72451e-06
3.90763e-06
4.04842e-06
4.20451e-06
4.38657e-06
4.58875e-06
4.8222e-06
5.05401e-06
5.29291e-06
5.52272e-06
5.71434e-06
5.8663e-06
5.95606e-06
6.02496e-06
6.0614e-06
6.08168e-06
6.09786e-06
6.10882e-06
6.10203e-06
6.10544e-06
6.10148e-06
6.09728e-06
6.09253e-06
6.08217e-06
6.07525e-06
6.07059e-06
6.0715e-06
6.06676e-06
6.05445e-06
6.0543e-06
6.05382e-06
6.05004e-06
6.05101e-06
6.04284e-06
6.04426e-06
6.04905e-06
6.05216e-06
6.05906e-06
6.06427e-06
6.05673e-06
6.05994e-06
6.06761e-06
6.06396e-06
6.05468e-06
6.05016e-06
6.05473e-06
6.05042e-06
6.04892e-06
6.0563e-06
6.05418e-06
6.05824e-06
6.05539e-06
6.05376e-06
6.05073e-06
6.04326e-06
6.04455e-06
6.04679e-06
6.0496e-06
6.048e-06
6.03896e-06
6.03382e-06
6.0358e-06
6.03593e-06
6.03121e-06
6.03561e-06
6.03599e-06
6.04285e-06
6.03374e-06
6.04425e-06
6.03318e-06
6.0301e-06
6.03209e-06
6.03115e-06
6.03641e-06
6.02706e-06
6.0209e-06
6.02726e-06
6.03067e-06
6.03037e-06
6.02952e-06
6.0276e-06
6.03302e-06
6.02407e-06
6.02829e-06
6.03201e-06
6.03597e-06
6.03809e-06
6.0395e-06
6.03736e-06
6.03329e-06
6.02733e-06
)
;

boundaryField
{
    inlet
    {
        type            fixedValue;
        value           uniform 0;
    }
    outlet
    {
        type            calculated;
        value           uniform 6.03015e-06;
    }
    yzfaces
    {
        type            empty;
    }
}


// ************************************************************************* //
