/*--------------------------------*- C++ -*----------------------------------*\
| =========                 |                                                 |
| \\      /  F ield         | foam-extend: Open Source CFD                    |
|  \\    /   O peration     | Version:     5.0                                |
|   \\  /    A nd           | Web:         http://www.foam-extend.org         |
|    \\/     M anipulation  |                                                 |
\*---------------------------------------------------------------------------*/
FoamFile
{
    version     2.0;
    format      ascii;
    class       volScalarField;
    location    "0.842089";
    object      S.gas;
}
// * * * * * * * * * * * * * * * * * * * * * * * * * * * * * * * * * * * * * //

dimensions      [0 0 0 0 0 0 0];

internalField   nonuniform List<scalar> 
100
(
0.538865
0.447553
0.393922
0.34877
0.313244
0.285375
0.235922
0.208724
0.193769
0.184685
0.177323
0.169554
0.160595
0.150143
0.138471
0.125803
0.112429
0.0989088
0.0861187
0.0749351
0.0660508
0.0596769
0.0555378
0.0530423
0.051631
0.050862
0.0504582
0.0502433
0.0501234
0.0500755
0.0500363
0.0500123
0.050013
0.0500109
0.0500095
0.0500061
0.0499972
0.049987
0.0499799
0.0499865
0.0499984
0.0499992
0.0499965
0.0499923
0.0499884
0.0499893
0.0499974
0.049995
0.0499979
0.0500041
0.0499967
0.0500054
0.0500001
0.0499923
0.0499978
0.0500034
0.0500006
0.0499966
0.0499991
0.0500018
0.0500053
0.0499995
0.0499991
0.0500071
0.0500072
0.0500005
0.0500048
0.0500056
0.050002
0.0500027
0.0500013
0.0499983
0.0499996
0.049997
0.0499896
0.0499908
0.049991
0.0499941
0.049987
0.0500047
0.0500102
0.0500071
0.0500157
0.0500096
0.0500089
0.0500047
0.05001
0.0499996
0.0500003
0.050002
0.0499927
0.0499896
0.049989
0.0499854
0.0499886
0.0499935
0.049994
0.0499925
0.0499843
0.0499567
)
;

boundaryField
{
    inlet
    {
        type            calculated;
        value           uniform 1;
    }
    outlet
    {
        type            calculated;
        value           uniform 0.0499567;
    }
    yzfaces
    {
        type            empty;
    }
}


// ************************************************************************* //
