/*--------------------------------*- C++ -*----------------------------------*\
| =========                 |                                                 |
| \\      /  F ield         | foam-extend: Open Source CFD                    |
|  \\    /   O peration     | Version:     5.0                                |
|   \\  /    A nd           | Web:         http://www.foam-extend.org         |
|    \\/     M anipulation  |                                                 |
\*---------------------------------------------------------------------------*/
FoamFile
{
    version     2.0;
    format      ascii;
    class       volVectorField;
    location    "0.842089";
    object      U.gas;
}
// * * * * * * * * * * * * * * * * * * * * * * * * * * * * * * * * * * * * * //

dimensions      [0 1 -1 0 0 0 0];

internalField   nonuniform List<vector> 
100
(
(0.00909268 0 0)
(0.01049 0 0)
(0.0113993 0 0)
(0.0122606 0 0)
(0.0128933 0 0)
(0.013286 0 0)
(0.0143675 0 0)
(0.0139981 0 0)
(0.0135128 0 0)
(0.0131731 0 0)
(0.012961 0 0)
(0.0127959 0 0)
(0.0126131 0 0)
(0.0123515 0 0)
(0.0119694 0 0)
(0.0114436 0 0)
(0.0107482 0 0)
(0.00990253 0 0)
(0.00892677 0 0)
(0.00790176 0 0)
(0.00692693 0 0)
(0.00611288 0 0)
(0.00552148 0 0)
(0.00513131 0 0)
(0.00489843 0 0)
(0.00477132 0 0)
(0.0046968 0 0)
(0.00465616 0 0)
(0.0046369 0 0)
(0.0046235 0 0)
(0.00461669 0 0)
(0.00460852 0 0)
(0.00459977 0 0)
(0.00459474 0 0)
(0.00459257 0 0)
(0.00459163 0 0)
(0.00458561 0 0)
(0.00457941 0 0)
(0.00457752 0 0)
(0.00457388 0 0)
(0.00457246 0 0)
(0.00457111 0 0)
(0.00456798 0 0)
(0.00456817 0 0)
(0.00457017 0 0)
(0.00457426 0 0)
(0.00457796 0 0)
(0.00457644 0 0)
(0.0045762 0 0)
(0.00458177 0 0)
(0.00458463 0 0)
(0.00458112 0 0)
(0.00457791 0 0)
(0.00457723 0 0)
(0.00457606 0 0)
(0.00457434 0 0)
(0.00457644 0 0)
(0.00457717 0 0)
(0.00457798 0 0)
(0.00457944 0 0)
(0.00457856 0 0)
(0.00457861 0 0)
(0.00457359 0 0)
(0.00456916 0 0)
(0.00457051 0 0)
(0.00457286 0 0)
(0.00457401 0 0)
(0.0045717 0 0)
(0.00456648 0 0)
(0.0045652 0 0)
(0.00456638 0 0)
(0.00456408 0 0)
(0.00456262 0 0)
(0.00456436 0 0)
(0.00456798 0 0)
(0.00456758 0 0)
(0.00456933 0 0)
(0.00457077 0 0)
(0.00456465 0 0)
(0.00456085 0 0)
(0.00456102 0 0)
(0.00456105 0 0)
(0.0045588 0 0)
(0.00455472 0 0)
(0.00455462 0 0)
(0.00455795 0 0)
(0.00455868 0 0)
(0.00455943 0 0)
(0.00455884 0 0)
(0.00455925 0 0)
(0.004556 0 0)
(0.00455349 0 0)
(0.00455664 0 0)
(0.00455893 0 0)
(0.00456109 0 0)
(0.00456419 0 0)
(0.00456589 0 0)
(0.00456501 0 0)
(0.00456182 0 0)
(0.00456015 0 0)
)
;

boundaryField
{
    inlet
    {
        type            fixedValue;
        value           uniform (0.005 0 0);
    }
    outlet
    {
        type            zeroGradient;
    }
    yzfaces
    {
        type            empty;
    }
}


// ************************************************************************* //
