/*--------------------------------*- C++ -*----------------------------------*\
| =========                 |                                                 |
| \\      /  F ield         | foam-extend: Open Source CFD                    |
|  \\    /   O peration     | Version:     5.0                                |
|   \\  /    A nd           | Web:         http://www.foam-extend.org         |
|    \\/     M anipulation  |                                                 |
\*---------------------------------------------------------------------------*/
FoamFile
{
    version     2.0;
    format      ascii;
    class       volVectorField;
    location    "0.842089";
    object      U.water;
}
// * * * * * * * * * * * * * * * * * * * * * * * * * * * * * * * * * * * * * //

dimensions      [0 1 -1 0 0 0 0];

internalField   nonuniform List<vector> 
100
(
(0.000216364 0 0)
(0.000540331 0 0)
(0.000814892 0 0)
(0.00108696 0 0)
(0.00137954 0 0)
(0.00166246 0 0)
(0.00206879 0 0)
(0.00258098 0 0)
(0.00291114 0 0)
(0.00311439 0 0)
(0.00325025 0 0)
(0.00337152 0 0)
(0.00350822 0 0)
(0.00366463 0 0)
(0.00384401 0 0)
(0.00403504 0 0)
(0.00422543 0 0)
(0.00441432 0 0)
(0.00458455 0 0)
(0.00472344 0 0)
(0.00482207 0 0)
(0.0048873 0 0)
(0.00493069 0 0)
(0.00495336 0 0)
(0.0049677 0 0)
(0.0049792 0 0)
(0.00498046 0 0)
(0.00497896 0 0)
(0.00498025 0 0)
(0.00497781 0 0)
(0.00497542 0 0)
(0.00497105 0 0)
(0.00496412 0 0)
(0.00495859 0 0)
(0.00495665 0 0)
(0.00495567 0 0)
(0.00494894 0 0)
(0.00494351 0 0)
(0.0049435 0 0)
(0.00494032 0 0)
(0.00493709 0 0)
(0.00493421 0 0)
(0.00493123 0 0)
(0.00493232 0 0)
(0.00493506 0 0)
(0.00493872 0 0)
(0.0049422 0 0)
(0.00494098 0 0)
(0.00494052 0 0)
(0.0049462 0 0)
(0.00494891 0 0)
(0.00494547 0 0)
(0.00494106 0 0)
(0.00494068 0 0)
(0.00494014 0 0)
(0.00493801 0 0)
(0.00494047 0 0)
(0.00494147 0 0)
(0.00494227 0 0)
(0.0049436 0 0)
(0.00494222 0 0)
(0.00494111 0 0)
(0.00493671 0 0)
(0.0049326 0 0)
(0.00493288 0 0)
(0.00493556 0 0)
(0.00493703 0 0)
(0.00493425 0 0)
(0.0049301 0 0)
(0.00492868 0 0)
(0.00492949 0 0)
(0.0049274 0 0)
(0.00492591 0 0)
(0.00492806 0 0)
(0.00493268 0 0)
(0.00493254 0 0)
(0.0049338 0 0)
(0.00493483 0 0)
(0.00492834 0 0)
(0.00492517 0 0)
(0.00492258 0 0)
(0.00492228 0 0)
(0.0049205 0 0)
(0.00491504 0 0)
(0.0049157 0 0)
(0.00491985 0 0)
(0.00492137 0 0)
(0.00492209 0 0)
(0.00492171 0 0)
(0.0049218 0 0)
(0.00491894 0 0)
(0.0049164 0 0)
(0.00491981 0 0)
(0.00492294 0 0)
(0.00492535 0 0)
(0.0049285 0 0)
(0.00493026 0 0)
(0.00492888 0 0)
(0.00492528 0 0)
(0.00492358 0 0)
)
;

boundaryField
{
    inlet
    {
        type            fixedValue;
        value           uniform (0 0 0);
    }
    outlet
    {
        type            zeroGradient;
    }
    yzfaces
    {
        type            empty;
    }
}


// ************************************************************************* //
