/*--------------------------------*- C++ -*----------------------------------*\
| =========                 |                                                 |
| \\      /  F ield         | foam-extend: Open Source CFD                    |
|  \\    /   O peration     | Version:     5.0                                |
|   \\  /    A nd           | Web:         http://www.foam-extend.org         |
|    \\/     M anipulation  |                                                 |
\*---------------------------------------------------------------------------*/
FoamFile
{
    version     2.0;
    format      ascii;
    class       volScalarField;
    location    "8";
    object      CO2.gas;
}
// * * * * * * * * * * * * * * * * * * * * * * * * * * * * * * * * * * * * * //

dimensions      [0 0 0 0 0 0 0];

internalField   nonuniform List<scalar> 
100
(
0.183363
0.175768
0.169645
0.164582
0.160179
0.156303
0.152811
0.149865
0.146937
0.144267
0.141838
0.139415
0.137215
0.135237
0.133489
0.131845
0.130296
0.128827
0.127357
0.126181
0.125001
0.123907
0.12275
0.12171
0.120708
0.11964
0.118734
0.117748
0.116764
0.115934
0.115123
0.114422
0.113748
0.113
0.112269
0.111568
0.110736
0.10996
0.109192
0.108434
0.107861
0.107276
0.10664
0.106053
0.105576
0.104891
0.104353
0.103738
0.103106
0.102496
0.101946
0.101382
0.100909
0.100373
0.0999659
0.0995053
0.0990465
0.0986453
0.0981208
0.0976986
0.0972323
0.0968764
0.0964541
0.0960726
0.0956859
0.0953014
0.0948861
0.0944863
0.0940859
0.0937213
0.0933584
0.0929566
0.0926153
0.0922363
0.0918752
0.0914743
0.0911603
0.0907962
0.0904307
0.0901095
0.0898332
0.0894997
0.0892183
0.0889447
0.0886355
0.0883258
0.0880347
0.0877613
0.0874766
0.0872175
0.0869777
0.086686
0.086385
0.0861421
0.0859091
0.0856499
0.0854218
0.0851835
0.084941
0.0847076
)
;

boundaryField
{
    inlet
    {
        type            fixedValue;
        value           uniform 0.2;
    }
    outlet
    {
        type            zeroGradient;
    }
    yzfaces
    {
        type            empty;
    }
}


// ************************************************************************* //
