/*--------------------------------*- C++ -*----------------------------------*\
| =========                 |                                                 |
| \\      /  F ield         | foam-extend: Open Source CFD                    |
|  \\    /   O peration     | Version:     5.0                                |
|   \\  /    A nd           | Web:         http://www.foam-extend.org         |
|    \\/     M anipulation  |                                                 |
\*---------------------------------------------------------------------------*/
FoamFile
{
    version     2.0;
    format      ascii;
    class       volScalarField;
    location    "8";
    object      H2O.water;
}
// * * * * * * * * * * * * * * * * * * * * * * * * * * * * * * * * * * * * * //

dimensions      [0 0 0 0 0 0 0];

internalField   nonuniform List<scalar> 
100
(
0.0165633
0.0243759
0.030465
0.0355338
0.0398903
0.0437104
0.0471187
0.0501887
0.0529799
0.0555428
0.0579084
0.0601024
0.0621472
0.0640501
0.0658408
0.0675262
0.0691174
0.0706319
0.0720665
0.0734395
0.0747285
0.0759604
0.0771415
0.0782849
0.0793709
0.080429
0.0814312
0.0824179
0.0833412
0.0842515
0.0851161
0.0859695
0.0867961
0.0875743
0.0883389
0.0890944
0.0898114
0.090518
0.0912022
0.0918775
0.0925347
0.0931714
0.0937797
0.0943763
0.0949677
0.0955445
0.0961093
0.0966509
0.0971935
0.0977126
0.0982317
0.0987365
0.0992391
0.099733
0.1002
0.100672
0.10111
0.101554
0.101994
0.102435
0.102871
0.103285
0.10369
0.104088
0.104478
0.104875
0.105252
0.105632
0.106008
0.106361
0.106711
0.107069
0.107422
0.10776
0.1081
0.108427
0.108756
0.109078
0.109406
0.109731
0.110038
0.110333
0.110635
0.110929
0.111213
0.111505
0.111802
0.112068
0.112358
0.11264
0.112918
0.113182
0.113434
0.113691
0.113953
0.114207
0.114473
0.114712
0.114952
0.115194
)
;

boundaryField
{
    inlet
    {
        type            fixedValue;
        value           uniform 0;
    }
    outlet
    {
        type            zeroGradient;
    }
    yzfaces
    {
        type            empty;
    }
}


// ************************************************************************* //
