/*--------------------------------*- C++ -*----------------------------------*\
| =========                 |                                                 |
| \\      /  F ield         | foam-extend: Open Source CFD                    |
|  \\    /   O peration     | Version:     5.0                                |
|   \\  /    A nd           | Web:         http://www.foam-extend.org         |
|    \\/     M anipulation  |                                                 |
\*---------------------------------------------------------------------------*/
FoamFile
{
    version     2.0;
    format      ascii;
    class       surfaceScalarField;
    location    "8";
    object      phi;
}
// * * * * * * * * * * * * * * * * * * * * * * * * * * * * * * * * * * * * * //

dimensions      [0 3 -1 0 0 0 0];

internalField   nonuniform List<scalar> 
99
(
1.22571e-05
1.22348e-05
1.22343e-05
1.22236e-05
1.22272e-05
1.22111e-05
1.22096e-05
1.21953e-05
1.21782e-05
1.21605e-05
1.21558e-05
1.21334e-05
1.21241e-05
1.21267e-05
1.213e-05
1.21271e-05
1.2133e-05
1.21389e-05
1.2148e-05
1.2154e-05
1.21581e-05
1.21687e-05
1.21598e-05
1.21725e-05
1.2179e-05
1.21773e-05
1.21714e-05
1.21721e-05
1.21803e-05
1.21766e-05
1.2195e-05
1.22073e-05
1.2206e-05
1.21969e-05
1.21924e-05
1.2186e-05
1.21861e-05
1.21894e-05
1.2186e-05
1.2195e-05
1.21975e-05
1.22003e-05
1.22095e-05
1.22187e-05
1.22061e-05
1.2198e-05
1.21956e-05
1.2186e-05
1.2177e-05
1.21748e-05
1.21827e-05
1.21819e-05
1.21839e-05
1.21842e-05
1.21758e-05
1.21679e-05
1.21615e-05
1.21615e-05
1.21709e-05
1.21631e-05
1.2171e-05
1.21678e-05
1.21653e-05
1.2169e-05
1.21685e-05
1.21746e-05
1.21714e-05
1.21727e-05
1.21734e-05
1.21697e-05
1.21648e-05
1.21617e-05
1.21594e-05
1.2158e-05
1.21585e-05
1.21569e-05
1.21585e-05
1.21517e-05
1.21541e-05
1.21546e-05
1.21526e-05
1.21581e-05
1.21532e-05
1.21545e-05
1.21593e-05
1.21527e-05
1.21575e-05
1.21525e-05
1.21496e-05
1.21516e-05
1.21479e-05
1.21441e-05
1.21466e-05
1.21435e-05
1.21401e-05
1.21433e-05
1.21464e-05
1.21439e-05
1.21493e-05
)
;

boundaryField
{
    inlet
    {
        type            calculated;
        value           uniform -1.225e-05;
    }
    outlet
    {
        type            calculated;
        value           uniform 1.21416e-05;
    }
    yzfaces
    {
        type            empty;
    }
}


// ************************************************************************* //
