/*--------------------------------*- C++ -*----------------------------------*\
| =========                 |                                                 |
| \\      /  F ield         | foam-extend: Open Source CFD                    |
|  \\    /   O peration     | Version:     5.0                                |
|   \\  /    A nd           | Web:         http://www.foam-extend.org         |
|    \\/     M anipulation  |                                                 |
\*---------------------------------------------------------------------------*/
FoamFile
{
    version     2.0;
    format      ascii;
    class       surfaceScalarField;
    location    "8";
    object      phi.water;
}
// * * * * * * * * * * * * * * * * * * * * * * * * * * * * * * * * * * * * * //

dimensions      [0 3 -1 0 0 0 0];

internalField   nonuniform List<scalar> 
99
(
8.59307e-08
1.50984e-07
2.10345e-07
2.65674e-07
3.19232e-07
3.69456e-07
4.19024e-07
4.65755e-07
5.12491e-07
5.57702e-07
6.02744e-07
6.47081e-07
6.91182e-07
7.34253e-07
7.75573e-07
8.15766e-07
8.55941e-07
8.94942e-07
9.36079e-07
9.72327e-07
1.00895e-06
1.04476e-06
1.08043e-06
1.11613e-06
1.15103e-06
1.18709e-06
1.22032e-06
1.25574e-06
1.29131e-06
1.32453e-06
1.35817e-06
1.39045e-06
1.41976e-06
1.4503e-06
1.48147e-06
1.51227e-06
1.54675e-06
1.58106e-06
1.61482e-06
1.65012e-06
1.68009e-06
1.71057e-06
1.74288e-06
1.77378e-06
1.79904e-06
1.83261e-06
1.86136e-06
1.89238e-06
1.92447e-06
1.9559e-06
1.98828e-06
2.02042e-06
2.05015e-06
2.08105e-06
2.10616e-06
2.13354e-06
2.16216e-06
2.18832e-06
2.22195e-06
2.24892e-06
2.28074e-06
2.30616e-06
2.33414e-06
2.36215e-06
2.3889e-06
2.41829e-06
2.44717e-06
2.47584e-06
2.50517e-06
2.53183e-06
2.55838e-06
2.58788e-06
2.61361e-06
2.64208e-06
2.67161e-06
2.7015e-06
2.72773e-06
2.75533e-06
2.78587e-06
2.81336e-06
2.83788e-06
2.8665e-06
2.8909e-06
2.91638e-06
2.94382e-06
2.97006e-06
2.99786e-06
3.02161e-06
3.04758e-06
3.07294e-06
3.09559e-06
3.12228e-06
3.15024e-06
3.17318e-06
3.19672e-06
3.22239e-06
3.24735e-06
3.271e-06
3.29697e-06
)
;

boundaryField
{
    inlet
    {
        type            fixedValue;
        value           uniform 0;
    }
    outlet
    {
        type            calculated;
        value           uniform 3.32395e-06;
    }
    yzfaces
    {
        type            empty;
    }
}


// ************************************************************************* //
