/*--------------------------------*- C++ -*----------------------------------*\
| =========                 |                                                 |
| \\      /  F ield         | foam-extend: Open Source CFD                    |
|  \\    /   O peration     | Version:     5.0                                |
|   \\  /    A nd           | Web:         http://www.foam-extend.org         |
|    \\/     M anipulation  |                                                 |
\*---------------------------------------------------------------------------*/
FoamFile
{
    version     2.0;
    format      ascii;
    class       surfaceScalarField;
    location    "8";
    object      phi.gas;
}
// * * * * * * * * * * * * * * * * * * * * * * * * * * * * * * * * * * * * * //

dimensions      [0 3 -1 0 0 0 0];

internalField   nonuniform List<scalar> 
99
(
6.825e-05
7.08176e-05
7.3168e-05
7.5216e-05
7.71855e-05
7.88988e-05
8.05426e-05
8.20162e-05
8.34493e-05
8.47864e-05
8.61875e-05
8.74372e-05
8.86796e-05
8.98981e-05
9.10421e-05
9.20988e-05
9.31847e-05
9.42682e-05
9.52908e-05
9.6201e-05
9.7081e-05
9.80202e-05
9.87963e-05
9.96997e-05
0.000100579
0.000101364
0.000102092
0.000102921
0.000103758
0.000104429
0.000105241
0.000105949
0.00010657
0.000107155
0.000107766
0.000108416
0.000109169
0.000109931
0.000110632
0.000111356
0.000111942
0.000112571
0.000113267
0.000113885
0.000114362
0.000114913
0.00011549
0.000116054
0.000116627
0.000117228
0.000117907
0.000118462
0.000119036
0.000119559
0.000119959
0.000120399
0.000120819
0.00012135
0.000121988
0.000122426
0.000122982
0.000123407
0.000123856
0.00012435
0.000124809
0.000125355
0.000125819
0.000126326
0.000126805
0.000127218
0.000127648
0.000128081
0.000128516
0.000128975
0.000129471
0.000129916
0.000130376
0.000130783
0.000131261
0.000131658
0.000132044
0.000132515
0.000132833
0.000133242
0.000133718
0.000134056
0.000134497
0.000134828
0.00013517
0.000135538
0.000135871
0.000136248
0.000136661
0.000136963
0.000137276
0.000137659
0.00013803
0.000138349
0.000138756
)
;

boundaryField
{
    inlet
    {
        type            fixedValue;
        value           uniform -6.125e-05;
    }
    outlet
    {
        type            calculated;
        value           uniform 0.000138815;
    }
    yzfaces
    {
        type            empty;
    }
}


// ************************************************************************* //
