/*--------------------------------*- C++ -*----------------------------------*\
| =========                 |                                                 |
| \\      /  F ield         | foam-extend: Open Source CFD                    |
|  \\    /   O peration     | Version:     5.0                                |
|   \\  /    A nd           | Web:         http://www.foam-extend.org         |
|    \\/     M anipulation  |                                                 |
\*---------------------------------------------------------------------------*/
FoamFile
{
    version     2.0;
    format      ascii;
    class       volVectorField;
    location    "8";
    object      U.gas;
}
// * * * * * * * * * * * * * * * * * * * * * * * * * * * * * * * * * * * * * //

dimensions      [0 1 -1 0 0 0 0];

internalField   nonuniform List<vector> 
100
(
(0.0545284 0 0)
(0.0569015 0 0)
(0.058878 0 0)
(0.0606487 0 0)
(0.0622671 0 0)
(0.063743 0 0)
(0.0651063 0 0)
(0.0663644 0 0)
(0.0675329 0 0)
(0.0686261 0 0)
(0.0696925 0 0)
(0.0707202 0 0)
(0.0716803 0 0)
(0.0726566 0 0)
(0.0736171 0 0)
(0.0745271 0 0)
(0.0754131 0 0)
(0.0763017 0 0)
(0.0771904 0 0)
(0.0780092 0 0)
(0.0787958 0 0)
(0.0795685 0 0)
(0.0803074 0 0)
(0.0810215 0 0)
(0.0817659 0 0)
(0.0824807 0 0)
(0.0830966 0 0)
(0.083747 0 0)
(0.0844296 0 0)
(0.0850555 0 0)
(0.0857012 0 0)
(0.0863731 0 0)
(0.0869634 0 0)
(0.0874876 0 0)
(0.0879946 0 0)
(0.0885029 0 0)
(0.0890636 0 0)
(0.089643 0 0)
(0.0902039 0 0)
(0.0907864 0 0)
(0.0913194 0 0)
(0.0918316 0 0)
(0.0923822 0 0)
(0.0929379 0 0)
(0.093369 0 0)
(0.0938176 0 0)
(0.0942412 0 0)
(0.094687 0 0)
(0.0951188 0 0)
(0.0955641 0 0)
(0.0960547 0 0)
(0.0965553 0 0)
(0.0969943 0 0)
(0.0974682 0 0)
(0.0978303 0 0)
(0.0981923 0 0)
(0.0985472 0 0)
(0.0989113 0 0)
(0.099404 0 0)
(0.0998155 0 0)
(0.100246 0 0)
(0.10063 0 0)
(0.101006 0 0)
(0.101388 0 0)
(0.101781 0 0)
(0.102189 0 0)
(0.102595 0 0)
(0.102976 0 0)
(0.103376 0 0)
(0.103726 0 0)
(0.104052 0 0)
(0.104409 0 0)
(0.104742 0 0)
(0.105101 0 0)
(0.105463 0 0)
(0.105845 0 0)
(0.106182 0 0)
(0.106528 0 0)
(0.106882 0 0)
(0.107241 0 0)
(0.107547 0 0)
(0.107908 0 0)
(0.108228 0 0)
(0.108523 0 0)
(0.108881 0 0)
(0.109209 0 0)
(0.109529 0 0)
(0.109831 0 0)
(0.11012 0 0)
(0.11042 0 0)
(0.110705 0 0)
(0.110993 0 0)
(0.111309 0 0)
(0.111593 0 0)
(0.111848 0 0)
(0.112148 0 0)
(0.112464 0 0)
(0.112747 0 0)
(0.113046 0 0)
(0.113316 0 0)
)
;

boundaryField
{
    inlet
    {
        type            fixedValue;
        value           uniform (0.05 0 0);
    }
    outlet
    {
        type            zeroGradient;
    }
    yzfaces
    {
        type            empty;
    }
}


// ************************************************************************* //
