/*--------------------------------*- C++ -*----------------------------------*\
| =========                 |                                                 |
| \\      /  F ield         | foam-extend: Open Source CFD                    |
|  \\    /   O peration     | Version:     5.0                                |
|   \\  /    A nd           | Web:         http://www.foam-extend.org         |
|    \\/     M anipulation  |                                                 |
\*---------------------------------------------------------------------------*/
FoamFile
{
    version     2.0;
    format      ascii;
    class       volVectorField;
    location    "8";
    object      U.water;
}
// * * * * * * * * * * * * * * * * * * * * * * * * * * * * * * * * * * * * * //

dimensions      [0 1 -1 0 0 0 0];

internalField   nonuniform List<vector> 
100
(
(4.33295e-05 0 0)
(9.8847e-05 0 0)
(0.000148547 0 0)
(0.000194931 0 0)
(0.000239137 0 0)
(0.000281301 0 0)
(0.000321834 0 0)
(0.000361286 0 0)
(0.000399169 0 0)
(0.000436418 0 0)
(0.000473062 0 0)
(0.000508904 0 0)
(0.000544462 0 0)
(0.000579736 0 0)
(0.000614167 0 0)
(0.000647455 0 0)
(0.000680322 0 0)
(0.000712679 0 0)
(0.000745205 0 0)
(0.000777374 0 0)
(0.000807563 0 0)
(0.000837669 0 0)
(0.000866958 0 0)
(0.000896471 0 0)
(0.000925751 0 0)
(0.000954592 0 0)
(0.000983462 0 0)
(0.00101136 0 0)
(0.0010402 0 0)
(0.00106861 0 0)
(0.00109632 0 0)
(0.00112406 0 0)
(0.00115004 0 0)
(0.00117483 0 0)
(0.0012003 0 0)
(0.00122591 0 0)
(0.00125202 0 0)
(0.00127968 0 0)
(0.00130703 0 0)
(0.00133469 0 0)
(0.00136193 0 0)
(0.00138698 0 0)
(0.00141253 0 0)
(0.00143847 0 0)
(0.00146223 0 0)
(0.00148553 0 0)
(0.00151117 0 0)
(0.00153516 0 0)
(0.00156017 0 0)
(0.00158551 0 0)
(0.00161127 0 0)
(0.0016372 0 0)
(0.00166268 0 0)
(0.00168702 0 0)
(0.00171053 0 0)
(0.00173191 0 0)
(0.00175477 0 0)
(0.00177748 0 0)
(0.00180117 0 0)
(0.00182607 0 0)
(0.00184973 0 0)
(0.00187369 0 0)
(0.00189535 0 0)
(0.00191837 0 0)
(0.00194085 0 0)
(0.00196378 0 0)
(0.00198731 0 0)
(0.00201058 0 0)
(0.00203393 0 0)
(0.00205677 0 0)
(0.00207841 0 0)
(0.00210078 0 0)
(0.0021234 0 0)
(0.00214517 0 0)
(0.00216854 0 0)
(0.00219205 0 0)
(0.00221506 0 0)
(0.00223663 0 0)
(0.00225987 0 0)
(0.0022835 0 0)
(0.0023051 0 0)
(0.00232643 0 0)
(0.00234821 0 0)
(0.00236878 0 0)
(0.00239017 0 0)
(0.00241183 0 0)
(0.00243374 0 0)
(0.00245497 0 0)
(0.00247514 0 0)
(0.00249638 0 0)
(0.00251639 0 0)
(0.00253618 0 0)
(0.00255794 0 0)
(0.00257887 0 0)
(0.00259813 0 0)
(0.00261825 0 0)
(0.00263918 0 0)
(0.00265918 0 0)
(0.00267939 0 0)
(0.00269967 0 0)
)
;

boundaryField
{
    inlet
    {
        type            fixedValue;
        value           uniform (0 0 0);
    }
    outlet
    {
        type            zeroGradient;
    }
    yzfaces
    {
        type            empty;
    }
}


// ************************************************************************* //
