/*--------------------------------*- C++ -*----------------------------------*\
| =========                 |                                                 |
| \\      /  F ield         | foam-extend: Open Source CFD                    |
|  \\    /   O peration     | Version:     5.0                                |
|   \\  /    A nd           | Web:         http://www.foam-extend.org         |
|    \\/     M anipulation  |                                                 |
\*---------------------------------------------------------------------------*/
FoamFile
{
    version     2.0;
    format      ascii;
    class       volScalarField;
    location    "0.984704";
    object      alpha.gas;
}
// * * * * * * * * * * * * * * * * * * * * * * * * * * * * * * * * * * * * * //

dimensions      [0 0 0 0 0 0 0];

internalField   nonuniform List<scalar> 
100
(
0.112691
0.0946053
0.0838127
0.0753225
0.0684053
0.0629394
0.0565241
0.0509332
0.0465777
0.0431901
0.040599
0.0384506
0.0365242
0.0346583
0.032727
0.0306753
0.0284656
0.0260863
0.0235726
0.0209964
0.0184759
0.0161537
0.0141828
0.012661
0.0116003
0.0109179
0.0105121
0.0102789
0.0101502
0.0100819
0.0100418
0.0100211
0.0100117
0.0100065
0.0100045
0.0100028
0.0100017
0.0100006
0.00999813
0.00999934
0.00999915
0.0099984
0.0100004
0.0100002
0.00999883
0.00999891
0.00999888
0.00999969
0.010003
0.010001
0.0100004
0.0100007
0.0100014
0.010001
0.0100008
0.00999928
0.00999958
0.00999975
0.00999848
0.00999972
0.010001
0.0100011
0.0100005
0.00999962
0.00999959
0.00999987
0.0100002
0.0100011
0.0100027
0.0100027
0.0100025
0.0100012
0.0100003
0.0100005
0.00999974
0.00999745
0.00999939
0.0100009
0.00999952
0.0100011
0.0100021
0.0100019
0.0100037
0.0100028
0.0100018
0.0100035
0.0100033
0.010002
0.00999995
0.0100003
0.00999913
0.00999802
0.00999864
0.00999725
0.00999868
0.00999923
0.00999917
0.00999938
0.00999704
0.00999782
)
;

boundaryField
{
    inlet
    {
        type            fixedValue;
        value           uniform 0.2;
    }
    outlet
    {
        type            zeroGradient;
    }
    yzfaces
    {
        type            empty;
    }
}


// ************************************************************************* //
