/*--------------------------------*- C++ -*----------------------------------*\
| =========                 |                                                 |
| \\      /  F ield         | foam-extend: Open Source CFD                    |
|  \\    /   O peration     | Version:     5.0                                |
|   \\  /    A nd           | Web:         http://www.foam-extend.org         |
|    \\/     M anipulation  |                                                 |
\*---------------------------------------------------------------------------*/
FoamFile
{
    version     2.0;
    format      ascii;
    class       volScalarField;
    location    "0.984704";
    object      Cl.water;
}
// * * * * * * * * * * * * * * * * * * * * * * * * * * * * * * * * * * * * * //

dimensions      [0 0 0 0 0 0 0];

internalField   nonuniform List<scalar> 
100
(
0
0.0066666
0.0109992
0.00574475
0.00830422
0.0122166
0.0054309
0.00997512
0.0146427
0.0173651
0.0187042
0.0193551
0.0197022
0.0199994
0.0202519
0.0205208
0.0207842
0.0210568
0.0213622
0.0216571
0.0219821
0.0222656
0.0225028
0.0226678
0.02278
0.0228787
0.0229112
0.0229612
0.0229638
0.0229798
0.0229692
0.0229951
0.0229964
0.0230157
0.0229965
0.0229905
0.0230021
0.0229972
0.023009
0.0229916
0.0229916
0.0229888
0.0230112
0.0229687
0.0229882
0.0229806
0.0229809
0.0229526
0.0229848
0.02299
0.0229981
0.0229943
0.0230198
0.0230021
0.0230311
0.0229945
0.0229963
0.0229849
0.0229796
0.022989
0.0229931
0.0229979
0.0230113
0.0230012
0.0229949
0.0229875
0.0229937
0.0229924
0.0230194
0.0230079
0.0230075
0.0230087
0.0230058
0.0229996
0.0230086
0.0230165
0.0230116
0.0230015
0.0230246
0.0230098
0.0230032
0.0229977
0.0229907
0.0229924
0.023006
0.0230111
0.0229886
0.0230022
0.0230036
0.0229844
0.0229839
0.0229795
0.0229862
0.0229787
0.0229702
0.0229804
0.0229955
0.0230029
0.0230137
0.0229945
)
;

boundaryField
{
    inlet
    {
        type            fixedValue;
        value           uniform 0;
    }
    outlet
    {
        type            zeroGradient;
    }
    yzfaces
    {
        type            empty;
    }
}


// ************************************************************************* //
