/*--------------------------------*- C++ -*----------------------------------*\
| =========                 |                                                 |
| \\      /  F ield         | foam-extend: Open Source CFD                    |
|  \\    /   O peration     | Version:     5.0                                |
|   \\  /    A nd           | Web:         http://www.foam-extend.org         |
|    \\/     M anipulation  |                                                 |
\*---------------------------------------------------------------------------*/
FoamFile
{
    version     2.0;
    format      ascii;
    class       volScalarField;
    location    "0.984704";
    object      H2O.gas;
}
// * * * * * * * * * * * * * * * * * * * * * * * * * * * * * * * * * * * * * //

dimensions      [0 0 0 0 0 0 0];

internalField   nonuniform List<scalar> 
100
(
2.42798e-08
4.14511e-06
2.24762e-05
5.64615e-05
0.00012321
0.000264396
0.00039289
0.000699543
0.00133234
0.00236874
0.00380596
0.0055755
0.00756773
0.00970417
0.0118104
0.0137475
0.0153251
0.0163981
0.0168849
0.0167073
0.0159928
0.0148642
0.0135895
0.0124138
0.0114986
0.0108843
0.0104933
0.0102769
0.0101432
0.0100805
0.0100327
0.0100211
0.0100099
0.0100123
0.0100036
0.0100014
0.0100039
0.00999866
0.010001
0.00999497
0.00999528
0.00999291
0.0100047
0.00998914
0.00999653
0.00999154
0.00999289
0.00997724
0.00999271
0.00999329
0.00999751
0.00999441
0.010003
0.0099979
0.0100093
0.00999294
0.00999589
0.00999296
0.00998875
0.00999568
0.0100017
0.0100028
0.0100063
0.0100037
0.00999901
0.00999695
0.0100011
0.0100017
0.0100127
0.010008
0.010007
0.0100054
0.0100025
0.0100012
0.0100054
0.0100036
0.0100043
0.0100029
0.0100106
0.0100052
0.0100027
0.00999871
0.00999533
0.00999727
0.0100007
0.0100059
0.00999304
0.00999907
0.0100005
0.00999355
0.00999219
0.0099912
0.00999672
0.00998924
0.00998974
0.00999164
0.00999661
0.00999931
0.0100002
0.00999322
)
;

boundaryField
{
    inlet
    {
        type            fixedValue;
        value           uniform 0;
    }
    outlet
    {
        type            zeroGradient;
    }
    yzfaces
    {
        type            empty;
    }
}


// ************************************************************************* //
