/*--------------------------------*- C++ -*----------------------------------*\
| =========                 |                                                 |
| \\      /  F ield         | foam-extend: Open Source CFD                    |
|  \\    /   O peration     | Version:     5.0                                |
|   \\  /    A nd           | Web:         http://www.foam-extend.org         |
|    \\/     M anipulation  |                                                 |
\*---------------------------------------------------------------------------*/
FoamFile
{
    version     2.0;
    format      ascii;
    class       volScalarField;
    location    "0.984704";
    object      Na.water;
}
// * * * * * * * * * * * * * * * * * * * * * * * * * * * * * * * * * * * * * //

dimensions      [0 0 0 0 0 0 0];

internalField   nonuniform List<scalar> 
100
(
0
0.00666806
0.0110027
0.00574489
0.00830958
0.0122233
0.00543363
0.00997101
0.0146444
0.0173621
0.0186981
0.0193517
0.0197042
0.0199987
0.0202496
0.0205227
0.0207905
0.0210588
0.0213656
0.0216525
0.0219761
0.0222642
0.0225049
0.0226778
0.0227922
0.022888
0.0229257
0.0229698
0.022963
0.0229897
0.0229733
0.0229958
0.0229979
0.0230113
0.0229972
0.0229915
0.0229907
0.0229827
0.0230019
0.0229846
0.0229855
0.0229749
0.0229963
0.0229595
0.0229821
0.0229725
0.0229784
0.0229414
0.0229735
0.0229925
0.0230027
0.0229931
0.0230105
0.0229947
0.0230206
0.022987
0.0229905
0.0229864
0.022976
0.0229888
0.0230033
0.0229956
0.0230085
0.0230092
0.0229994
0.0229944
0.0229991
0.0229968
0.0230103
0.0230043
0.0230042
0.0230026
0.022998
0.0229991
0.0230123
0.0230133
0.0230103
0.0229994
0.0230216
0.0230223
0.0230203
0.0230165
0.0230075
0.0230032
0.0230056
0.0230086
0.0229742
0.022997
0.0230009
0.022987
0.0229809
0.0229829
0.0229996
0.0229828
0.0229786
0.0229772
0.0229995
0.0230073
0.0230139
0.0229982
)
;

boundaryField
{
    inlet
    {
        type            fixedValue;
        value           uniform 0;
    }
    outlet
    {
        type            zeroGradient;
    }
    yzfaces
    {
        type            empty;
    }
}


// ************************************************************************* //
