/*--------------------------------*- C++ -*----------------------------------*\
| =========                 |                                                 |
| \\      /  F ield         | foam-extend: Open Source CFD                    |
|  \\    /   O peration     | Version:     5.0                                |
|   \\  /    A nd           | Web:         http://www.foam-extend.org         |
|    \\/     M anipulation  |                                                 |
\*---------------------------------------------------------------------------*/
FoamFile
{
    version     2.0;
    format      ascii;
    class       surfaceScalarField;
    location    "0.984704";
    object      phi;
}
// * * * * * * * * * * * * * * * * * * * * * * * * * * * * * * * * * * * * * //

dimensions      [0 3 -1 0 0 0 0];

internalField   nonuniform List<scalar> 
99
(
1.22357e-06
1.21919e-06
1.22138e-06
1.22084e-06
1.22511e-06
1.22349e-06
1.22208e-06
1.2218e-06
1.22108e-06
1.22222e-06
1.22308e-06
1.22285e-06
1.22405e-06
1.22413e-06
1.22413e-06
1.22159e-06
1.21844e-06
1.21697e-06
1.21727e-06
1.21847e-06
1.21783e-06
1.21611e-06
1.21635e-06
1.21527e-06
1.21497e-06
1.21484e-06
1.21706e-06
1.21483e-06
1.21411e-06
1.21519e-06
1.21734e-06
1.21752e-06
1.21783e-06
1.21647e-06
1.21631e-06
1.21628e-06
1.2173e-06
1.21784e-06
1.21859e-06
1.21894e-06
1.2169e-06
1.21779e-06
1.21674e-06
1.21457e-06
1.21417e-06
1.21338e-06
1.2138e-06
1.21398e-06
1.21577e-06
1.21567e-06
1.21596e-06
1.21707e-06
1.21825e-06
1.21909e-06
1.21756e-06
1.21767e-06
1.21919e-06
1.2194e-06
1.21991e-06
1.22062e-06
1.21925e-06
1.22108e-06
1.22073e-06
1.21892e-06
1.21863e-06
1.21672e-06
1.21678e-06
1.21625e-06
1.21571e-06
1.21517e-06
1.21635e-06
1.21653e-06
1.21458e-06
1.21507e-06
1.21407e-06
1.21374e-06
1.21265e-06
1.21489e-06
1.21261e-06
1.21368e-06
1.21317e-06
1.21103e-06
1.21132e-06
1.21163e-06
1.20996e-06
1.20816e-06
1.20983e-06
1.20883e-06
1.20992e-06
1.21025e-06
1.21182e-06
1.21031e-06
1.2091e-06
1.20833e-06
1.20901e-06
1.20998e-06
1.21083e-06
1.21251e-06
1.21142e-06
)
;

boundaryField
{
    inlet
    {
        type            calculated;
        value           uniform -1.225e-06;
    }
    outlet
    {
        type            calculated;
        value           uniform 1.21261e-06;
    }
    yzfaces
    {
        type            empty;
    }
}


// ************************************************************************* //
