/*--------------------------------*- C++ -*----------------------------------*\
| =========                 |                                                 |
| \\      /  F ield         | foam-extend: Open Source CFD                    |
|  \\    /   O peration     | Version:     5.0                                |
|   \\  /    A nd           | Web:         http://www.foam-extend.org         |
|    \\/     M anipulation  |                                                 |
\*---------------------------------------------------------------------------*/
FoamFile
{
    version     2.0;
    format      ascii;
    class       volScalarField;
    location    "0.984704";
    object      S.gas;
}
// * * * * * * * * * * * * * * * * * * * * * * * * * * * * * * * * * * * * * //

dimensions      [0 0 0 0 0 0 0];

internalField   nonuniform List<scalar> 
100
(
0.563454
0.473026
0.419063
0.376613
0.342027
0.314697
0.28262
0.254666
0.232888
0.215951
0.202995
0.192253
0.182621
0.173291
0.163635
0.153376
0.142328
0.130432
0.117863
0.104982
0.0923794
0.0807683
0.0709139
0.0633049
0.0580014
0.0545895
0.0525606
0.0513944
0.0507509
0.0504095
0.0502091
0.0501054
0.0500583
0.0500327
0.0500223
0.0500141
0.0500085
0.050003
0.0499906
0.0499967
0.0499958
0.049992
0.050002
0.0500008
0.0499942
0.0499945
0.0499944
0.0499985
0.0500148
0.0500049
0.050002
0.0500037
0.050007
0.0500049
0.050004
0.0499964
0.0499979
0.0499987
0.0499924
0.0499986
0.0500048
0.0500057
0.0500023
0.0499981
0.0499979
0.0499993
0.0500011
0.0500057
0.0500135
0.0500137
0.0500127
0.0500058
0.0500015
0.0500025
0.0499987
0.0499873
0.0499969
0.0500046
0.0499976
0.0500054
0.0500105
0.0500095
0.0500184
0.0500141
0.0500091
0.0500175
0.0500165
0.0500102
0.0499998
0.0500015
0.0499957
0.0499901
0.0499932
0.0499862
0.0499934
0.0499961
0.0499958
0.0499969
0.0499852
0.0499891
)
;

boundaryField
{
    inlet
    {
        type            calculated;
        value           uniform 1;
    }
    outlet
    {
        type            calculated;
        value           uniform 0.0499891;
    }
    yzfaces
    {
        type            empty;
    }
}


// ************************************************************************* //
