/*--------------------------------*- C++ -*----------------------------------*\
| =========                 |                                                 |
| \\      /  F ield         | foam-extend: Open Source CFD                    |
|  \\    /   O peration     | Version:     5.0                                |
|   \\  /    A nd           | Web:         http://www.foam-extend.org         |
|    \\/     M anipulation  |                                                 |
\*---------------------------------------------------------------------------*/
FoamFile
{
    version     2.0;
    format      ascii;
    class       volVectorField;
    location    "0.984704";
    object      U.gas;
}
// * * * * * * * * * * * * * * * * * * * * * * * * * * * * * * * * * * * * * //

dimensions      [0 1 -1 0 0 0 0];

internalField   nonuniform List<vector> 
100
(
(0.00872231 0 0)
(0.0100185 0 0)
(0.0109086 0 0)
(0.0116903 0 0)
(0.0123433 0 0)
(0.012815 0 0)
(0.0134199 0 0)
(0.0137565 0 0)
(0.0138221 0 0)
(0.0137423 0 0)
(0.0135798 0 0)
(0.0134026 0 0)
(0.013221 0 0)
(0.0130288 0 0)
(0.0128032 0 0)
(0.0125068 0 0)
(0.0121161 0 0)
(0.0116252 0 0)
(0.0110177 0 0)
(0.0102754 0 0)
(0.00939513 0 0)
(0.00842019 0 0)
(0.00744145 0 0)
(0.00656224 0 0)
(0.00585555 0 0)
(0.0053569 0 0)
(0.00504114 0 0)
(0.00485273 0 0)
(0.00473814 0 0)
(0.00467878 0 0)
(0.00465346 0 0)
(0.00463914 0 0)
(0.0046311 0 0)
(0.00462513 0 0)
(0.00461954 0 0)
(0.00461765 0 0)
(0.00461828 0 0)
(0.00462134 0 0)
(0.00462388 0 0)
(0.00462428 0 0)
(0.00462166 0 0)
(0.0046197 0 0)
(0.00461914 0 0)
(0.00461379 0 0)
(0.00460829 0 0)
(0.0046051 0 0)
(0.00460413 0 0)
(0.00460528 0 0)
(0.00461008 0 0)
(0.00461485 0 0)
(0.00461396 0 0)
(0.00461658 0 0)
(0.0046213 0 0)
(0.0046258 0 0)
(0.00462407 0 0)
(0.00462107 0 0)
(0.0046236 0 0)
(0.00462669 0 0)
(0.00462837 0 0)
(0.00463012 0 0)
(0.00462889 0 0)
(0.00463035 0 0)
(0.00463334 0 0)
(0.00462903 0 0)
(0.00462487 0 0)
(0.00462109 0 0)
(0.00461829 0 0)
(0.00461713 0 0)
(0.00461523 0 0)
(0.00461381 0 0)
(0.00461469 0 0)
(0.00461722 0 0)
(0.00461335 0 0)
(0.00461045 0 0)
(0.00460985 0 0)
(0.00460627 0 0)
(0.00460237 0 0)
(0.0046063 0 0)
(0.00460712 0 0)
(0.00460375 0 0)
(0.00460542 0 0)
(0.00460145 0 0)
(0.00459721 0 0)
(0.00459876 0 0)
(0.00459611 0 0)
(0.00458953 0 0)
(0.00458948 0 0)
(0.00458994 0 0)
(0.00459008 0 0)
(0.00459157 0 0)
(0.00459568 0 0)
(0.00459578 0 0)
(0.0045898 0 0)
(0.00458598 0 0)
(0.00458477 0 0)
(0.00458895 0 0)
(0.0045929 0 0)
(0.00459711 0 0)
(0.00459874 0 0)
(0.00459522 0 0)
)
;

boundaryField
{
    inlet
    {
        type            fixedValue;
        value           uniform (0.005 0 0);
    }
    outlet
    {
        type            zeroGradient;
    }
    yzfaces
    {
        type            empty;
    }
}


// ************************************************************************* //
