/*--------------------------------*- C++ -*----------------------------------*\
| =========                 |                                                 |
| \\      /  F ield         | foam-extend: Open Source CFD                    |
|  \\    /   O peration     | Version:     5.0                                |
|   \\  /    A nd           | Web:         http://www.foam-extend.org         |
|    \\/     M anipulation  |                                                 |
\*---------------------------------------------------------------------------*/
FoamFile
{
    version     2.0;
    format      ascii;
    class       volVectorField;
    location    "0.984704";
    object      U.water;
}
// * * * * * * * * * * * * * * * * * * * * * * * * * * * * * * * * * * * * * //

dimensions      [0 1 -1 0 0 0 0];

internalField   nonuniform List<vector> 
100
(
(0.000188911 0 0)
(0.000467225 0 0)
(0.000704662 0 0)
(0.00093263 0 0)
(0.00117024 0 0)
(0.00140708 0 0)
(0.00167024 0 0)
(0.0019913 0 0)
(0.00230275 0 0)
(0.00257466 0 0)
(0.00280271 0 0)
(0.00298979 0 0)
(0.00315548 0 0)
(0.00331254 0 0)
(0.00346905 0 0)
(0.00362971 0 0)
(0.00379538 0 0)
(0.00397199 0 0)
(0.00415949 0 0)
(0.00434868 0 0)
(0.00452184 0 0)
(0.00466382 0 0)
(0.00477513 0 0)
(0.00485439 0 0)
(0.00490451 0 0)
(0.00493581 0 0)
(0.00495874 0 0)
(0.00496902 0 0)
(0.00496872 0 0)
(0.00497257 0 0)
(0.00498078 0 0)
(0.00498649 0 0)
(0.00498796 0 0)
(0.00498603 0 0)
(0.00498306 0 0)
(0.00498273 0 0)
(0.00498481 0 0)
(0.00498801 0 0)
(0.00499064 0 0)
(0.00499298 0 0)
(0.0049895 0 0)
(0.00498712 0 0)
(0.00498681 0 0)
(0.00498017 0 0)
(0.00497493 0 0)
(0.00497255 0 0)
(0.00497181 0 0)
(0.00497303 0 0)
(0.00497702 0 0)
(0.00498041 0 0)
(0.00498087 0 0)
(0.00498373 0 0)
(0.00498839 0 0)
(0.0049925 0 0)
(0.00499111 0 0)
(0.00498821 0 0)
(0.00499158 0 0)
(0.00499513 0 0)
(0.00499659 0 0)
(0.00499912 0 0)
(0.00499776 0 0)
(0.00499869 0 0)
(0.0050017 0 0)
(0.00499728 0 0)
(0.00499301 0 0)
(0.00498847 0 0)
(0.00498463 0 0)
(0.0049837 0 0)
(0.00498151 0 0)
(0.00497926 0 0)
(0.00498059 0 0)
(0.00498336 0 0)
(0.00497977 0 0)
(0.00497679 0 0)
(0.00497571 0 0)
(0.00497304 0 0)
(0.0049702 0 0)
(0.00497246 0 0)
(0.00497233 0 0)
(0.00496993 0 0)
(0.00497105 0 0)
(0.00496557 0 0)
(0.00496181 0 0)
(0.00496302 0 0)
(0.00496025 0 0)
(0.00495313 0 0)
(0.00495285 0 0)
(0.00495426 0 0)
(0.00495445 0 0)
(0.00495742 0 0)
(0.00496127 0 0)
(0.00496139 0 0)
(0.00495586 0 0)
(0.00495181 0 0)
(0.00495167 0 0)
(0.004955 0 0)
(0.00495871 0 0)
(0.00496393 0 0)
(0.00496511 0 0)
(0.00496551 0 0)
)
;

boundaryField
{
    inlet
    {
        type            fixedValue;
        value           uniform (0 0 0);
    }
    outlet
    {
        type            zeroGradient;
    }
    yzfaces
    {
        type            empty;
    }
}


// ************************************************************************* //
