/*--------------------------------*- C++ -*----------------------------------*\
| =========                 |                                                 |
| \\      /  F ield         | foam-extend: Open Source CFD                    |
|  \\    /   O peration     | Version:     5.0                                |
|   \\  /    A nd           | Web:         http://www.foam-extend.org         |
|    \\/     M anipulation  |                                                 |
\*---------------------------------------------------------------------------*/
FoamFile
{
    version     2.0;
    format      ascii;
    class       volScalarField;
    location    "5";
    object      alpha.gas;
}
// * * * * * * * * * * * * * * * * * * * * * * * * * * * * * * * * * * * * * //

dimensions      [0 0 0 0 0 0 0];

internalField   nonuniform List<scalar> 
100
(
0.170254
0.169232
0.154114
0.149036
0.148895
0.141501
0.131925
0.128441
0.126518
0.125364
0.12193
0.117564
0.113656
0.110576
0.107239
0.104946
0.103383
0.100975
0.100101
0.0993628
0.097506
0.0970464
0.0943619
0.0934695
0.0919829
0.0906081
0.0887307
0.0876702
0.0866539
0.0854397
0.08349
0.0816717
0.0796702
0.0784961
0.0772208
0.0749104
0.0734654
0.0716409
0.0698394
0.06781
0.0656756
0.0633565
0.0602237
0.0567082
0.0521023
0.0457452
0.0352044
0.0120571
0.0290649
0.0282947
0.0279314
0.0277396
0.0276573
0.0276508
0.0276864
0.0277238
0.0277698
0.0278265
0.0278547
0.0278735
0.0278865
0.0278864
0.0278572
0.0278212
0.027774
0.0277002
0.0276125
0.02749
0.027322
0.0271106
0.0268633
0.0265436
0.0261521
0.0256795
0.0250917
0.0243694
0.0235193
0.0225137
0.0213422
0.0200155
0.0185722
0.0170521
0.0155417
0.0141378
0.012932
0.0119781
0.0112822
0.0108054
0.0104931
0.0102996
0.0101799
0.0101073
0.0100645
0.0100394
0.0100214
0.0100123
0.0100049
0.0100031
0.0100024
0.010003
)
;

boundaryField
{
    inlet
    {
        type            fixedValue;
        value           uniform 0.2;
    }
    outlet
    {
        type            zeroGradient;
    }
    yzfaces
    {
        type            empty;
    }
}


// ************************************************************************* //
