/*--------------------------------*- C++ -*----------------------------------*\
| =========                 |                                                 |
| \\      /  F ield         | foam-extend: Open Source CFD                    |
|  \\    /   O peration     | Version:     5.0                                |
|   \\  /    A nd           | Web:         http://www.foam-extend.org         |
|    \\/     M anipulation  |                                                 |
\*---------------------------------------------------------------------------*/
FoamFile
{
    version     2.0;
    format      ascii;
    class       volScalarField;
    location    "5";
    object      Cl.water;
}
// * * * * * * * * * * * * * * * * * * * * * * * * * * * * * * * * * * * * * //

dimensions      [0 0 0 0 0 0 0];

internalField   nonuniform List<scalar> 
100
(
0.00574633
0.00650482
0.00951148
0.0107501
0.0109355
0.0123468
0.0140361
0.0146979
0.0152315
0.0156241
0.0161528
0.0169068
0.0176172
0.0182185
0.0188388
0.0193391
0.0197791
0.020107
0.0204301
0.0206931
0.0209825
0.0211968
0.0215767
0.0217559
0.0220439
0.0222988
0.0225635
0.0229505
0.0232349
0.0235155
0.023854
0.0242081
0.0245349
0.0248368
0.0251092
0.025473
0.0259141
0.0262692
0.0266939
0.0270913
0.027502
0.0280286
0.0286096
0.0293676
0.0303122
0.031598
0.0337804
0.0385136
0.0358776
0.0361095
0.0362372
0.0362685
0.0362914
0.0363109
0.0363061
0.0362808
0.0362559
0.0362313
0.0361864
0.0361791
0.036196
0.0362101
0.0362131
0.0362427
0.0362309
0.0362686
0.0363059
0.0363244
0.0363567
0.0364094
0.0364789
0.0365534
0.0366674
0.0367495
0.0368379
0.0369561
0.0371503
0.0373708
0.0376136
0.037897
0.0381889
0.0385197
0.0388456
0.0391359
0.0394004
0.039596
0.0397685
0.0398728
0.0399054
0.0399577
0.0399827
0.0399857
0.0400137
0.0400365
0.0400399
0.0400167
0.0400023
0.0399984
0.0399912
0.0399904
)
;

boundaryField
{
    inlet
    {
        type            fixedValue;
        value           uniform 0;
    }
    outlet
    {
        type            zeroGradient;
    }
    yzfaces
    {
        type            empty;
    }
}


// ************************************************************************* //
