/*--------------------------------*- C++ -*----------------------------------*\
| =========                 |                                                 |
| \\      /  F ield         | foam-extend: Open Source CFD                    |
|  \\    /   O peration     | Version:     5.0                                |
|   \\  /    A nd           | Web:         http://www.foam-extend.org         |
|    \\/     M anipulation  |                                                 |
\*---------------------------------------------------------------------------*/
FoamFile
{
    version     2.0;
    format      ascii;
    class       volScalarField;
    location    "5";
    object      CO2.gas;
}
// * * * * * * * * * * * * * * * * * * * * * * * * * * * * * * * * * * * * * //

dimensions      [0 0 0 0 0 0 0];

internalField   nonuniform List<scalar> 
100
(
0.169922
0.168902
0.153814
0.148746
0.148605
0.141225
0.131668
0.12819
0.126272
0.12512
0.121692
0.117335
0.113434
0.11036
0.10703
0.104741
0.103182
0.100778
0.099906
0.0991693
0.0973161
0.0968575
0.0941782
0.0932874
0.0918037
0.0904316
0.0885579
0.0874994
0.0864852
0.0852733
0.0833275
0.0815127
0.079515
0.0783433
0.0770704
0.0747645
0.0733223
0.0715014
0.0697034
0.067678
0.0655477
0.0632331
0.0601064
0.0565978
0.0520008
0.0456561
0.0351359
0.0120336
0.028117
0.0266568
0.0255395
0.0244727
0.0234467
0.0224309
0.0213684
0.0202399
0.0190645
0.0178554
0.0165862
0.0153214
0.0140581
0.0128016
0.0115521
0.0103437
0.00917265
0.0080655
0.00702435
0.00604789
0.00514061
0.00431688
0.00357685
0.00291476
0.00233564
0.00183278
0.00140477
0.00104752
0.000757635
0.00052714
0.00035061
0.000220806
0.000130321
7.11902e-05
3.54497e-05
1.59231e-05
6.40529e-06
2.30046e-06
7.38153e-07
2.09392e-07
5.09711e-08
9.18369e-09
8.22638e-11
0
0
0
0
0
0
0
0
0
)
;

boundaryField
{
    inlet
    {
        type            fixedValue;
        value           uniform 0.2;
    }
    outlet
    {
        type            zeroGradient;
    }
    yzfaces
    {
        type            empty;
    }
}


// ************************************************************************* //
