/*--------------------------------*- C++ -*----------------------------------*\
| =========                 |                                                 |
| \\      /  F ield         | foam-extend: Open Source CFD                    |
|  \\    /   O peration     | Version:     5.0                                |
|   \\  /    A nd           | Web:         http://www.foam-extend.org         |
|    \\/     M anipulation  |                                                 |
\*---------------------------------------------------------------------------*/
FoamFile
{
    version     2.0;
    format      ascii;
    class       volScalarField;
    location    "5";
    object      H2O.water;
}
// * * * * * * * * * * * * * * * * * * * * * * * * * * * * * * * * * * * * * //

dimensions      [0 0 0 0 0 0 0];

internalField   nonuniform List<scalar> 
100
(
0.017473
0.0169526
0.0256564
0.0281254
0.0278861
0.0322664
0.0382174
0.0402729
0.0410806
0.0414171
0.0436943
0.0464435
0.0488337
0.0506275
0.052634
0.0538792
0.0545269
0.0562064
0.0564125
0.0565991
0.0578407
0.0578454
0.059695
0.0602234
0.0610829
0.0619085
0.0632019
0.0634469
0.0638639
0.0644802
0.0656971
0.0667591
0.0680671
0.0685961
0.0693047
0.0708276
0.0713682
0.072432
0.0733387
0.0745301
0.0757773
0.077006
0.078885
0.0807956
0.0834082
0.087026
0.0929167
0.105981
0.0986686
0.0993168
0.0997047
0.0997963
0.099858
0.0999426
0.0999283
0.0998997
0.0998395
0.0997376
0.0995752
0.0995375
0.099566
0.0996024
0.099616
0.0996714
0.0996478
0.0996831
0.0997806
0.0998707
0.0999893
0.100136
0.100316
0.100478
0.100798
0.100992
0.101267
0.101622
0.102168
0.10273
0.103387
0.104153
0.104959
0.105882
0.10681
0.10761
0.108345
0.108915
0.109412
0.109665
0.109768
0.109884
0.109921
0.1099
0.109961
0.110027
0.110077
0.110039
0.110045
0.110031
0.11002
0.110123
)
;

boundaryField
{
    inlet
    {
        type            fixedValue;
        value           uniform 0;
    }
    outlet
    {
        type            zeroGradient;
    }
    yzfaces
    {
        type            empty;
    }
}


// ************************************************************************* //
