/*--------------------------------*- C++ -*----------------------------------*\
| =========                 |                                                 |
| \\      /  F ield         | foam-extend: Open Source CFD                    |
|  \\    /   O peration     | Version:     5.0                                |
|   \\  /    A nd           | Web:         http://www.foam-extend.org         |
|    \\/     M anipulation  |                                                 |
\*---------------------------------------------------------------------------*/
FoamFile
{
    version     2.0;
    format      ascii;
    class       volScalarField;
    location    "5";
    object      H2O.gas;
}
// * * * * * * * * * * * * * * * * * * * * * * * * * * * * * * * * * * * * * //

dimensions      [0 0 0 0 0 0 0];

internalField   nonuniform List<scalar> 
100
(
0.000331564
0.000329575
0.000300132
0.000290244
0.000289968
0.000275569
0.00025692
0.000250134
0.00024639
0.000244142
0.000237455
0.000228953
0.000221341
0.000215343
0.000208845
0.000204378
0.000201336
0.000196645
0.000194944
0.000193506
0.00018989
0.000188995
0.000183767
0.000182029
0.000179134
0.000176457
0.000172801
0.000170735
0.000168756
0.000166391
0.000162594
0.000159053
0.000155155
0.000152869
0.000150385
0.000145886
0.000143072
0.000139519
0.00013601
0.000132058
0.000127901
0.000123385
0.000117284
0.000110438
0.000101468
8.90874e-05
6.85596e-05
2.34808e-05
0.000977628
0.00165152
0.00242663
0.00328725
0.00423366
0.0052626
0.00635974
0.00751776
0.00872921
0.00997919
0.0112373
0.0125169
0.0138042
0.0150713
0.0162904
0.0174723
0.0185812
0.01962
0.0205869
0.0214413
0.0221825
0.0227995
0.0233034
0.0236423
0.0238525
0.023866
0.0236877
0.0233055
0.0227565
0.02198
0.0209822
0.0197854
0.018429
0.0169753
0.0155077
0.0141211
0.0129287
0.0119798
0.0112952
0.0108171
0.0104978
0.0103057
0.0101838
0.0101063
0.0100675
0.0100469
0.0100313
0.0100174
0.0100088
0.0100066
0.0100043
0.0100115
)
;

boundaryField
{
    inlet
    {
        type            fixedValue;
        value           uniform 0;
    }
    outlet
    {
        type            zeroGradient;
    }
    yzfaces
    {
        type            empty;
    }
}


// ************************************************************************* //
