/*--------------------------------*- C++ -*----------------------------------*\
| =========                 |                                                 |
| \\      /  F ield         | foam-extend: Open Source CFD                    |
|  \\    /   O peration     | Version:     5.0                                |
|   \\  /    A nd           | Web:         http://www.foam-extend.org         |
|    \\/     M anipulation  |                                                 |
\*---------------------------------------------------------------------------*/
FoamFile
{
    version     2.0;
    format      ascii;
    class       volScalarField;
    location    "5";
    object      Na.water;
}
// * * * * * * * * * * * * * * * * * * * * * * * * * * * * * * * * * * * * * //

dimensions      [0 0 0 0 0 0 0];

internalField   nonuniform List<scalar> 
100
(
0.00574555
0.00650244
0.00951323
0.0107497
0.0109413
0.0123494
0.0140337
0.0147092
0.0152397
0.0156348
0.0161726
0.0169202
0.0176255
0.0182295
0.0188515
0.0193397
0.019773
0.0201112
0.0204326
0.0207017
0.0209789
0.0212073
0.0215918
0.0217533
0.0220533
0.0223115
0.0225815
0.0229821
0.0232703
0.0235557
0.0238988
0.0242533
0.0245674
0.0248797
0.0251405
0.0255036
0.0259289
0.0262866
0.0267093
0.0270967
0.0275171
0.02802
0.0286106
0.0293651
0.0302928
0.0315794
0.0337702
0.0385124
0.0358774
0.0361195
0.0362567
0.0362941
0.0363275
0.0363588
0.0363384
0.0363058
0.0362824
0.036254
0.0361909
0.0361928
0.036202
0.0362178
0.0362222
0.036232
0.0362226
0.0362566
0.0362939
0.0363095
0.0363387
0.0363808
0.0364511
0.0365132
0.0366222
0.0367096
0.0368084
0.0369349
0.0371232
0.0373346
0.0375789
0.0378507
0.0381539
0.0384859
0.0388192
0.0391072
0.0393679
0.0395725
0.0397664
0.0398646
0.0399184
0.0399702
0.0399877
0.0399882
0.0400179
0.0400381
0.0400486
0.0400276
0.0400232
0.040035
0.0400216
0.0400447
)
;

boundaryField
{
    inlet
    {
        type            fixedValue;
        value           uniform 0;
    }
    outlet
    {
        type            zeroGradient;
    }
    yzfaces
    {
        type            empty;
    }
}


// ************************************************************************* //
