/*--------------------------------*- C++ -*----------------------------------*\
| =========                 |                                                 |
| \\      /  F ield         | foam-extend: Open Source CFD                    |
|  \\    /   O peration     | Version:     5.0                                |
|   \\  /    A nd           | Web:         http://www.foam-extend.org         |
|    \\/     M anipulation  |                                                 |
\*---------------------------------------------------------------------------*/
FoamFile
{
    version     2.0;
    format      ascii;
    class       surfaceScalarField;
    location    "5";
    object      phi;
}
// * * * * * * * * * * * * * * * * * * * * * * * * * * * * * * * * * * * * * //

dimensions      [0 3 -1 0 0 0 0];

internalField   nonuniform List<scalar> 
99
(
1.23004e-06
1.22173e-06
1.21499e-06
1.23054e-06
1.21114e-06
1.20794e-06
1.2107e-06
1.21194e-06
1.19626e-06
1.20228e-06
1.19747e-06
1.20353e-06
1.19813e-06
1.19705e-06
1.19467e-06
1.1915e-06
1.18207e-06
1.18096e-06
1.18472e-06
1.18535e-06
1.18572e-06
1.18824e-06
1.19135e-06
1.18436e-06
1.18526e-06
1.18446e-06
1.19337e-06
1.19274e-06
1.19763e-06
1.19293e-06
1.19638e-06
1.1951e-06
1.19479e-06
1.19257e-06
1.18999e-06
1.19182e-06
1.1922e-06
1.19167e-06
1.19557e-06
1.19636e-06
1.19906e-06
1.1952e-06
1.18988e-06
1.18832e-06
1.18948e-06
1.19194e-06
1.19209e-06
1.19117e-06
1.19192e-06
1.19135e-06
1.19012e-06
1.18993e-06
1.19106e-06
1.19188e-06
1.19153e-06
1.19099e-06
1.19074e-06
1.18913e-06
1.1885e-06
1.18989e-06
1.18871e-06
1.18883e-06
1.19036e-06
1.19132e-06
1.19171e-06
1.19194e-06
1.19321e-06
1.19276e-06
1.19468e-06
1.19645e-06
1.1963e-06
1.19657e-06
1.19622e-06
1.19449e-06
1.19415e-06
1.19453e-06
1.19266e-06
1.1932e-06
1.19261e-06
1.1936e-06
1.1936e-06
1.19308e-06
1.19238e-06
1.19352e-06
1.19476e-06
1.19507e-06
1.1946e-06
1.19571e-06
1.19449e-06
1.19243e-06
1.19364e-06
1.19418e-06
1.19463e-06
1.19495e-06
1.19434e-06
1.19263e-06
1.19377e-06
1.19178e-06
1.19253e-06
)
;

boundaryField
{
    inlet
    {
        type            calculated;
        value           uniform -1.225e-06;
    }
    outlet
    {
        type            calculated;
        value           uniform 1.19048e-06;
    }
    yzfaces
    {
        type            empty;
    }
}


// ************************************************************************* //
