/*--------------------------------*- C++ -*----------------------------------*\
| =========                 |                                                 |
| \\      /  F ield         | foam-extend: Open Source CFD                    |
|  \\    /   O peration     | Version:     5.0                                |
|   \\  /    A nd           | Web:         http://www.foam-extend.org         |
|    \\/     M anipulation  |                                                 |
\*---------------------------------------------------------------------------*/
FoamFile
{
    version     2.0;
    format      ascii;
    class       volVectorField;
    location    "5";
    object      U.gas;
}
// * * * * * * * * * * * * * * * * * * * * * * * * * * * * * * * * * * * * * //

dimensions      [0 1 -1 0 0 0 0];

internalField   nonuniform List<vector> 
100
(
(0.00589167 0 0)
(0.00591734 0 0)
(0.00645246 0 0)
(0.00665754 0 0)
(0.00668999 0 0)
(0.00694908 0 0)
(0.00741362 0 0)
(0.00758452 0 0)
(0.00767367 0 0)
(0.00766927 0 0)
(0.00789082 0 0)
(0.00815119 0 0)
(0.00839899 0 0)
(0.00857029 0 0)
(0.00879476 0 0)
(0.00893087 0 0)
(0.00899336 0 0)
(0.00910768 0 0)
(0.00915509 0 0)
(0.00923805 0 0)
(0.00938779 0 0)
(0.00943785 0 0)
(0.00965329 0 0)
(0.0097158 0 0)
(0.00980817 0 0)
(0.00992785 0 0)
(0.0100796 0 0)
(0.0102047 0 0)
(0.0103146 0 0)
(0.0104409 0 0)
(0.0105798 0 0)
(0.0107632 0 0)
(0.010929 0 0)
(0.0110028 0 0)
(0.0110936 0 0)
(0.0113048 0 0)
(0.011424 0 0)
(0.0115921 0 0)
(0.011761 0 0)
(0.0119601 0 0)
(0.0121752 0 0)
(0.0123909 0 0)
(0.0126227 0 0)
(0.0128704 0 0)
(0.013238 0 0)
(0.0137558 0 0)
(0.0145479 0 0)
(0.012712 0 0)
(0.0117812 0 0)
(0.0113515 0 0)
(0.0111372 0 0)
(0.0110331 0 0)
(0.0109861 0 0)
(0.0109705 0 0)
(0.0109665 0 0)
(0.0109707 0 0)
(0.0109755 0 0)
(0.010975 0 0)
(0.01098 0 0)
(0.010992 0 0)
(0.0109974 0 0)
(0.0109964 0 0)
(0.0110056 0 0)
(0.0110108 0 0)
(0.0110092 0 0)
(0.0110036 0 0)
(0.0109962 0 0)
(0.0109815 0 0)
(0.0109598 0 0)
(0.0109392 0 0)
(0.0108995 0 0)
(0.0108444 0 0)
(0.010767 0 0)
(0.010661 0 0)
(0.0105326 0 0)
(0.0103793 0 0)
(0.010173 0 0)
(0.00991886 0 0)
(0.00960981 0 0)
(0.00922865 0 0)
(0.00876921 0 0)
(0.00823199 0 0)
(0.00762975 0 0)
(0.00700411 0 0)
(0.00640314 0 0)
(0.00586948 0 0)
(0.00543685 0 0)
(0.00512081 0 0)
(0.00490344 0 0)
(0.00475424 0 0)
(0.00466367 0 0)
(0.00461221 0 0)
(0.00458095 0 0)
(0.00456313 0 0)
(0.00455124 0 0)
(0.00453798 0 0)
(0.00453277 0 0)
(0.00452907 0 0)
(0.00452577 0 0)
(0.00452176 0 0)
)
;

boundaryField
{
    inlet
    {
        type            fixedValue;
        value           uniform (0.005 0 0);
    }
    outlet
    {
        type            zeroGradient;
    }
    yzfaces
    {
        type            empty;
    }
}


// ************************************************************************* //
