/*--------------------------------*- C++ -*----------------------------------*\
| =========                 |                                                 |
| \\      /  F ield         | foam-extend: Open Source CFD                    |
|  \\    /   O peration     | Version:     5.0                                |
|   \\  /    A nd           | Web:         http://www.foam-extend.org         |
|    \\/     M anipulation  |                                                 |
\*---------------------------------------------------------------------------*/
FoamFile
{
    version     2.0;
    format      ascii;
    class       volVectorField;
    location    "5";
    object      U.water;
}
// * * * * * * * * * * * * * * * * * * * * * * * * * * * * * * * * * * * * * //

dimensions      [0 1 -1 0 0 0 0];

internalField   nonuniform List<vector> 
100
(
(2.95912e-05 0 0)
(5.96148e-05 0 0)
(7.60481e-05 0 0)
(0.000115232 0 0)
(0.000129968 0 0)
(0.000141273 0 0)
(0.000180885 0 0)
(0.000224887 0 0)
(0.000244076 0 0)
(0.000257385 0 0)
(0.000269151 0 0)
(0.000300267 0 0)
(0.000337749 0 0)
(0.000373854 0 0)
(0.000408227 0 0)
(0.000444364 0 0)
(0.000469421 0 0)
(0.000491099 0 0)
(0.000514297 0 0)
(0.000526566 0 0)
(0.000545253 0 0)
(0.000568186 0 0)
(0.000589421 0 0)
(0.000620589 0 0)
(0.000641673 0 0)
(0.000668481 0 0)
(0.000699792 0 0)
(0.000730542 0 0)
(0.000755992 0 0)
(0.000782823 0 0)
(0.00081721 0 0)
(0.000860212 0 0)
(0.000909427 0 0)
(0.000953573 0 0)
(0.000985855 0 0)
(0.00103318 0 0)
(0.00109325 0 0)
(0.00114584 0 0)
(0.00120955 0 0)
(0.00127973 0 0)
(0.0013613 0 0)
(0.00145488 0 0)
(0.00156999 0 0)
(0.00172284 0 0)
(0.00193173 0 0)
(0.00225497 0 0)
(0.00283229 0 0)
(0.00343829 0 0)
(0.00368719 0 0)
(0.00379472 0 0)
(0.0038412 0 0)
(0.00386274 0 0)
(0.00387592 0 0)
(0.00388332 0 0)
(0.0038836 0 0)
(0.00387927 0 0)
(0.00387474 0 0)
(0.00386806 0 0)
(0.00386079 0 0)
(0.00385989 0 0)
(0.00385895 0 0)
(0.0038566 0 0)
(0.00386024 0 0)
(0.0038668 0 0)
(0.00387221 0 0)
(0.00387766 0 0)
(0.00388601 0 0)
(0.00389532 0 0)
(0.00390914 0 0)
(0.00392971 0 0)
(0.00394968 0 0)
(0.00397121 0 0)
(0.00399815 0 0)
(0.00402724 0 0)
(0.00406312 0 0)
(0.0041111 0 0)
(0.00416533 0 0)
(0.00422855 0 0)
(0.00430267 0 0)
(0.00438508 0 0)
(0.00447286 0 0)
(0.00455748 0 0)
(0.00463562 0 0)
(0.00470679 0 0)
(0.00476834 0 0)
(0.004814 0 0)
(0.00484341 0 0)
(0.00486432 0 0)
(0.00487654 0 0)
(0.0048776 0 0)
(0.00488057 0 0)
(0.004887 0 0)
(0.00489071 0 0)
(0.00489327 0 0)
(0.00489325 0 0)
(0.00488895 0 0)
(0.00488798 0 0)
(0.00488633 0 0)
(0.00488385 0 0)
(0.00488126 0 0)
)
;

boundaryField
{
    inlet
    {
        type            fixedValue;
        value           uniform (0 0 0);
    }
    outlet
    {
        type            zeroGradient;
    }
    yzfaces
    {
        type            empty;
    }
}


// ************************************************************************* //
