/*--------------------------------*- C++ -*----------------------------------*\
| =========                 |                                                 |
| \\      /  F ield         | foam-extend: Open Source CFD                    |
|  \\    /   O peration     | Version:     5.0                                |
|   \\  /    A nd           | Web:         http://www.foam-extend.org         |
|    \\/     M anipulation  |                                                 |
\*---------------------------------------------------------------------------*/
FoamFile
{
    version     2.0;
    format      ascii;
    class       volScalarField;
    location    "5";
    object      alpha.gas;
}
// * * * * * * * * * * * * * * * * * * * * * * * * * * * * * * * * * * * * * //

dimensions      [0 0 0 0 0 0 0];

internalField   nonuniform List<scalar> 
100
(
0.156276
0.141282
0.131293
0.123786
0.118011
0.113281
0.109299
0.105581
0.102536
0.0996473
0.0967284
0.0945891
0.0918193
0.0889859
0.0866689
0.0845506
0.0831185
0.081885
0.080608
0.0795916
0.0788176
0.0780681
0.0770194
0.0756919
0.0741368
0.0730217
0.0717133
0.0706298
0.0695121
0.0684475
0.0676919
0.0669356
0.0659969
0.0649157
0.0639687
0.0630363
0.0621107
0.0611007
0.0602092
0.0593583
0.0584927
0.0575799
0.0566315
0.055652
0.0547105
0.0535913
0.05251
0.0513168
0.0498117
0.0478692
0.0456857
0.0434921
0.0414949
0.0398119
0.0384686
0.0374726
0.036809
0.0364077
0.0361851
0.0360506
0.035994
0.0359571
0.0359228
0.0358999
0.0358353
0.0357329
0.0356141
0.0354786
0.0353131
0.0350965
0.0348382
0.0345391
0.0341857
0.0337702
0.0332829
0.0327115
0.0320884
0.0313598
0.0305487
0.0296065
0.028542
0.0273456
0.0260018
0.0245033
0.0228425
0.0210354
0.0191211
0.0172
0.015385
0.0137949
0.0125244
0.0115986
0.0109715
0.0105718
0.0103294
0.0101889
0.010109
0.0100653
0.0100372
0.0100193
)
;

boundaryField
{
    inlet
    {
        type            fixedValue;
        value           uniform 0.2;
    }
    outlet
    {
        type            zeroGradient;
    }
    yzfaces
    {
        type            empty;
    }
}


// ************************************************************************* //
