/*--------------------------------*- C++ -*----------------------------------*\
| =========                 |                                                 |
| \\      /  F ield         | foam-extend: Open Source CFD                    |
|  \\    /   O peration     | Version:     5.0                                |
|   \\  /    A nd           | Web:         http://www.foam-extend.org         |
|    \\/     M anipulation  |                                                 |
\*---------------------------------------------------------------------------*/
FoamFile
{
    version     2.0;
    format      ascii;
    class       volScalarField;
    location    "5";
    object      Cl.water;
}
// * * * * * * * * * * * * * * * * * * * * * * * * * * * * * * * * * * * * * //

dimensions      [0 0 0 0 0 0 0];

internalField   nonuniform List<scalar> 
100
(
0
0.00209468
0.00430542
0.00625563
0.00703335
0.00697339
0.00691821
0.00722862
0.00795552
0.00857278
0.00876589
0.00868626
0.00868528
0.00901925
0.00941353
0.00966771
0.00965457
0.00960624
0.00982593
0.0101946
0.0102939
0.0101399
0.0100354
0.0102916
0.0109103
0.0114747
0.0115339
0.0112557
0.0110594
0.0113111
0.0115398
0.0113132
0.0109155
0.0109148
0.0114899
0.0125048
0.012731
0.0120596
0.0115066
0.0117537
0.0127203
0.0140208
0.0130106
0.0115294
0.0115032
0.0127809
0.0145029
0.0159573
0.0106257
0.0103924
0.0132716
0.0160579
0.0178531
0.0188208
0.0192947
0.019568
0.0197158
0.0197818
0.0198203
0.019829
0.0198496
0.0198428
0.0198663
0.0198755
0.0198706
0.0198708
0.019896
0.0199132
0.0199371
0.0199572
0.0199961
0.0200295
0.0200768
0.0201068
0.0201551
0.0202293
0.0203202
0.0204043
0.0205176
0.0206272
0.0207582
0.0209046
0.0210675
0.0212387
0.0214552
0.0216543
0.0218919
0.022121
0.0223316
0.022524
0.0226866
0.022802
0.0228625
0.0229076
0.0229501
0.0229754
0.0229979
0.0229952
0.0230147
0.0229856
)
;

boundaryField
{
    inlet
    {
        type            fixedValue;
        value           uniform 0;
    }
    outlet
    {
        type            zeroGradient;
    }
    yzfaces
    {
        type            empty;
    }
}


// ************************************************************************* //
