/*--------------------------------*- C++ -*----------------------------------*\
| =========                 |                                                 |
| \\      /  F ield         | foam-extend: Open Source CFD                    |
|  \\    /   O peration     | Version:     5.0                                |
|   \\  /    A nd           | Web:         http://www.foam-extend.org         |
|    \\/     M anipulation  |                                                 |
\*---------------------------------------------------------------------------*/
FoamFile
{
    version     2.0;
    format      ascii;
    class       volScalarField;
    location    "5";
    object      CO2.water;
}
// * * * * * * * * * * * * * * * * * * * * * * * * * * * * * * * * * * * * * //

dimensions      [0 0 0 0 0 0 0];

internalField   nonuniform List<scalar> 
100
(
0.00114941
0.00107635
0.000858926
0.000633328
0.000626048
0.000759146
0.000881867
0.000903743
0.00082891
0.000765235
0.000789048
0.000871012
0.00093394
0.000927646
0.000891299
0.000906258
0.000969225
0.00102193
0.00100916
0.000974181
0.000979421
0.00103274
0.00107484
0.00105174
0.000942957
0.000851222
0.000864402
0.000958093
0.00102721
0.00100058
0.00097825
0.00104638
0.00114686
0.00117191
0.00107128
0.000877432
0.000854649
0.00102645
0.00117658
0.00114852
0.000954684
0.000697793
0.000939222
0.00128576
0.00132102
0.00106277
0.000721495
0.000431263
0.00162305
0.00172611
0.00116247
0.000617093
0.000282309
0.000115845
4.35064e-05
1.51806e-05
4.9594e-06
1.52808e-06
4.47697e-07
1.25614e-07
3.41485e-08
9.07587e-09
2.39128e-09
6.31864e-10
1.69325e-10
4.64542e-11
1.31397e-11
3.82507e-12
1.14144e-12
3.47333e-13
1.07567e-13
3.3841e-14
1.08079e-14
3.50938e-15
1.16323e-15
3.94852e-16
1.38089e-16
4.95818e-17
1.84016e-17
7.04153e-18
2.76952e-18
1.11931e-18
4.63625e-19
1.96016e-19
8.4277e-20
3.67378e-20
1.61749e-20
7.15294e-21
3.16338e-21
1.39031e-21
6.05298e-22
2.59948e-22
1.09703e-22
4.5677e-23
1.87872e-23
7.64918e-24
3.11116e-24
1.25551e-24
4.99178e-25
1.91986e-25
)
;

boundaryField
{
    inlet
    {
        type            fixedValue;
        value           uniform 0;
    }
    outlet
    {
        type            zeroGradient;
    }
    yzfaces
    {
        type            empty;
    }
}


// ************************************************************************* //
