/*--------------------------------*- C++ -*----------------------------------*\
| =========                 |                                                 |
| \\      /  F ield         | foam-extend: Open Source CFD                    |
|  \\    /   O peration     | Version:     5.0                                |
|   \\  /    A nd           | Web:         http://www.foam-extend.org         |
|    \\/     M anipulation  |                                                 |
\*---------------------------------------------------------------------------*/
FoamFile
{
    version     2.0;
    format      ascii;
    class       volScalarField;
    location    "5";
    object      CO2.gas;
}
// * * * * * * * * * * * * * * * * * * * * * * * * * * * * * * * * * * * * * //

dimensions      [0 0 0 0 0 0 0];

internalField   nonuniform List<scalar> 
100
(
0.156409
0.140275
0.130419
0.123055
0.11789
0.112984
0.10931
0.105206
0.102325
0.09917
0.095896
0.0940907
0.0909558
0.0879635
0.085417
0.083698
0.0828765
0.0819532
0.0806791
0.0801795
0.0795867
0.078849
0.0775927
0.0761717
0.0742296
0.0731642
0.0716572
0.070665
0.0694906
0.0684207
0.067801
0.0670215
0.0658899
0.0647487
0.0637802
0.0628716
0.0619804
0.0609576
0.0601801
0.0593649
0.0583894
0.0574905
0.0564918
0.0554528
0.0545588
0.0532739
0.0521773
0.0508237
0.0491639
0.0471355
0.0448751
0.0424801
0.040188
0.0380624
0.0361209
0.0344811
0.0330695
0.0317953
0.0306123
0.0294018
0.0282168
0.0269411
0.0256447
0.0242838
0.022826
0.0213076
0.019792
0.0182485
0.0167046
0.0151491
0.0136177
0.012121
0.0106839
0.00930258
0.00800709
0.00679823
0.00569585
0.00468963
0.00379397
0.00300231
0.00232072
0.00174361
0.00126696
0.000883668
0.000587345
0.000366519
0.000212407
0.000112529
5.37654e-05
2.29455e-05
8.75281e-06
3.0127e-06
9.51389e-07
2.82246e-07
7.99726e-08
2.18315e-08
5.78624e-09
1.48086e-09
3.61309e-10
2.92913e-11
)
;

boundaryField
{
    inlet
    {
        type            fixedValue;
        value           uniform 0.2;
    }
    outlet
    {
        type            zeroGradient;
    }
    yzfaces
    {
        type            empty;
    }
}


// ************************************************************************* //
