/*--------------------------------*- C++ -*----------------------------------*\
| =========                 |                                                 |
| \\      /  F ield         | foam-extend: Open Source CFD                    |
|  \\    /   O peration     | Version:     5.0                                |
|   \\  /    A nd           | Web:         http://www.foam-extend.org         |
|    \\/     M anipulation  |                                                 |
\*---------------------------------------------------------------------------*/
FoamFile
{
    version     2.0;
    format      ascii;
    class       volScalarField;
    location    "5";
    object      H2O.gas;
}
// * * * * * * * * * * * * * * * * * * * * * * * * * * * * * * * * * * * * * //

dimensions      [0 0 0 0 0 0 0];

internalField   nonuniform List<scalar> 
100
(
6.65262e-19
2.10674e-17
2.111e-16
1.35563e-15
6.834e-15
2.81394e-14
1.01969e-13
3.2566e-13
9.62182e-13
2.60534e-12
6.60531e-12
1.60045e-11
3.65538e-11
8.08054e-11
1.71948e-10
3.61247e-10
7.47431e-10
1.50453e-09
2.91713e-09
5.58567e-09
1.04151e-08
1.87803e-08
3.2778e-08
5.58246e-08
9.24729e-08
1.51756e-07
2.43495e-07
3.87037e-07
6.05025e-07
9.34072e-07
1.43143e-06
2.15716e-06
3.18797e-06
4.64814e-06
6.71604e-06
9.60001e-06
1.3578e-05
1.89689e-05
2.64306e-05
3.64083e-05
4.96103e-05
6.72155e-05
9.02305e-05
0.000120246
0.000159511
0.000208583
0.000273245
0.00035678
0.000453872
0.00056748
0.000721093
0.000945028
0.00126967
0.00171094
0.0022664
0.0029407
0.0037241
0.00460582
0.00558457
0.00664458
0.00780046
0.00901151
0.0103024
0.0116492
0.0130245
0.014412
0.0158329
0.0172391
0.0186306
0.0199557
0.0212316
0.0224219
0.0235127
0.0244457
0.0252371
0.0258809
0.0263819
0.0266508
0.0267468
0.0265822
0.0262106
0.0255925
0.024725
0.0236008
0.0222603
0.0206578
0.0189074
0.0170803
0.0153215
0.0137628
0.0125091
0.0115914
0.0109577
0.0105608
0.0103252
0.0101868
0.0101106
0.0100645
0.0100413
0.0100128
)
;

boundaryField
{
    inlet
    {
        type            fixedValue;
        value           uniform 0;
    }
    outlet
    {
        type            zeroGradient;
    }
    yzfaces
    {
        type            empty;
    }
}


// ************************************************************************* //
