/*--------------------------------*- C++ -*----------------------------------*\
| =========                 |                                                 |
| \\      /  F ield         | foam-extend: Open Source CFD                    |
|  \\    /   O peration     | Version:     5.0                                |
|   \\  /    A nd           | Web:         http://www.foam-extend.org         |
|    \\/     M anipulation  |                                                 |
\*---------------------------------------------------------------------------*/
FoamFile
{
    version     2.0;
    format      ascii;
    class       volScalarField;
    location    "5";
    object      Na.water;
}
// * * * * * * * * * * * * * * * * * * * * * * * * * * * * * * * * * * * * * //

dimensions      [0 0 0 0 0 0 0];

internalField   nonuniform List<scalar> 
100
(
0
0.00209374
0.0043039
0.00625438
0.00702908
0.00697522
0.00691767
0.00722618
0.00795538
0.00857066
0.00876338
0.00868395
0.00867207
0.00900392
0.00940704
0.00965586
0.00964132
0.00960309
0.00982377
0.0101956
0.0102992
0.0101487
0.0100418
0.0102913
0.0109054
0.0114709
0.0115295
0.0112484
0.0110541
0.0113058
0.0115328
0.0113066
0.0109105
0.0109095
0.011483
0.0125001
0.0127312
0.0120593
0.0115025
0.0117513
0.0127147
0.0140244
0.0130169
0.0115345
0.0115103
0.0127933
0.0145093
0.0159613
0.0106271
0.0103954
0.0132788
0.0160644
0.0178628
0.0188391
0.0193199
0.0195879
0.0197297
0.0198008
0.0198382
0.0198465
0.019867
0.0198558
0.0198774
0.019883
0.0198837
0.0198858
0.0199085
0.0199232
0.0199441
0.0199632
0.020004
0.020039
0.0200793
0.0201106
0.0201543
0.0202276
0.0203183
0.020396
0.0205009
0.0206051
0.0207355
0.020887
0.0210527
0.0212303
0.0214466
0.0216555
0.0219007
0.0221223
0.0223472
0.0225346
0.0226861
0.0228072
0.0228622
0.0229086
0.0229495
0.0229684
0.0229937
0.0229963
0.0230092
0.0229816
)
;

boundaryField
{
    inlet
    {
        type            fixedValue;
        value           uniform 0;
    }
    outlet
    {
        type            zeroGradient;
    }
    yzfaces
    {
        type            empty;
    }
}


// ************************************************************************* //
