/*--------------------------------*- C++ -*----------------------------------*\
| =========                 |                                                 |
| \\      /  F ield         | foam-extend: Open Source CFD                    |
|  \\    /   O peration     | Version:     5.0                                |
|   \\  /    A nd           | Web:         http://www.foam-extend.org         |
|    \\/     M anipulation  |                                                 |
\*---------------------------------------------------------------------------*/
FoamFile
{
    version     2.0;
    format      ascii;
    class       surfaceScalarField;
    location    "5";
    object      phi;
}
// * * * * * * * * * * * * * * * * * * * * * * * * * * * * * * * * * * * * * //

dimensions      [0 3 -1 0 0 0 0];

internalField   nonuniform List<scalar> 
99
(
1.2243e-06
1.22584e-06
1.22528e-06
1.22466e-06
1.22942e-06
1.23796e-06
1.23537e-06
1.23297e-06
1.23088e-06
1.22565e-06
1.22643e-06
1.23036e-06
1.2231e-06
1.22625e-06
1.23121e-06
1.23587e-06
1.23544e-06
1.23921e-06
1.24639e-06
1.24104e-06
1.23742e-06
1.23294e-06
1.22186e-06
1.21377e-06
1.21421e-06
1.21218e-06
1.21274e-06
1.21027e-06
1.20673e-06
1.20801e-06
1.21146e-06
1.20947e-06
1.20346e-06
1.20465e-06
1.20757e-06
1.20616e-06
1.20579e-06
1.21086e-06
1.21053e-06
1.20997e-06
1.20869e-06
1.21058e-06
1.20714e-06
1.21134e-06
1.2092e-06
1.21487e-06
1.21467e-06
1.21533e-06
1.21183e-06
1.21359e-06
1.21201e-06
1.21265e-06
1.21367e-06
1.21386e-06
1.21496e-06
1.21548e-06
1.21633e-06
1.21737e-06
1.21782e-06
1.21917e-06
1.21888e-06
1.21934e-06
1.21943e-06
1.21745e-06
1.21659e-06
1.21817e-06
1.21975e-06
1.22031e-06
1.21969e-06
1.22059e-06
1.22141e-06
1.22089e-06
1.22052e-06
1.22122e-06
1.21935e-06
1.22177e-06
1.22135e-06
1.22183e-06
1.22078e-06
1.2225e-06
1.22237e-06
1.22319e-06
1.22458e-06
1.22503e-06
1.22239e-06
1.2232e-06
1.22277e-06
1.22223e-06
1.22105e-06
1.2224e-06
1.22161e-06
1.22036e-06
1.22136e-06
1.22257e-06
1.2231e-06
1.2226e-06
1.22289e-06
1.22292e-06
1.22367e-06
)
;

boundaryField
{
    inlet
    {
        type            calculated;
        value           uniform -1.225e-06;
    }
    outlet
    {
        type            calculated;
        value           uniform 1.22245e-06;
    }
    yzfaces
    {
        type            empty;
    }
}


// ************************************************************************* //
