/*--------------------------------*- C++ -*----------------------------------*\
| =========                 |                                                 |
| \\      /  F ield         | foam-extend: Open Source CFD                    |
|  \\    /   O peration     | Version:     5.0                                |
|   \\  /    A nd           | Web:         http://www.foam-extend.org         |
|    \\/     M anipulation  |                                                 |
\*---------------------------------------------------------------------------*/
FoamFile
{
    version     2.0;
    format      ascii;
    class       volVectorField;
    location    "5";
    object      U.gas;
}
// * * * * * * * * * * * * * * * * * * * * * * * * * * * * * * * * * * * * * //

dimensions      [0 1 -1 0 0 0 0];

internalField   nonuniform List<vector> 
100
(
(0.00638299 0 0)
(0.00702833 0 0)
(0.00752448 0 0)
(0.00793098 0 0)
(0.00828512 0 0)
(0.0086286 0 0)
(0.00891371 0 0)
(0.00915492 0 0)
(0.00935482 0 0)
(0.00954212 0 0)
(0.00975037 0 0)
(0.00992959 0 0)
(0.0101479 0 0)
(0.0103665 0 0)
(0.0105907 0 0)
(0.0108124 0 0)
(0.0109414 0 0)
(0.0110598 0 0)
(0.011223 0 0)
(0.0113158 0 0)
(0.0113371 0 0)
(0.0113655 0 0)
(0.0113946 0 0)
(0.0114309 0 0)
(0.0115392 0 0)
(0.0116138 0 0)
(0.0117274 0 0)
(0.0118035 0 0)
(0.0118719 0 0)
(0.0119494 0 0)
(0.0120223 0 0)
(0.0120933 0 0)
(0.0121398 0 0)
(0.0122091 0 0)
(0.0122974 0 0)
(0.012379 0 0)
(0.0124407 0 0)
(0.0125459 0 0)
(0.0126269 0 0)
(0.0126788 0 0)
(0.0127307 0 0)
(0.0127973 0 0)
(0.0128535 0 0)
(0.0129186 0 0)
(0.0129782 0 0)
(0.0130728 0 0)
(0.0131507 0 0)
(0.0132156 0 0)
(0.0132916 0 0)
(0.0133903 0 0)
(0.0134616 0 0)
(0.0134583 0 0)
(0.0133975 0 0)
(0.013285 0 0)
(0.0131482 0 0)
(0.0130104 0 0)
(0.0128858 0 0)
(0.0127973 0 0)
(0.0127426 0 0)
(0.0127173 0 0)
(0.0126983 0 0)
(0.0126914 0 0)
(0.0126906 0 0)
(0.0126741 0 0)
(0.0126615 0 0)
(0.012662 0 0)
(0.0126679 0 0)
(0.0126676 0 0)
(0.0126546 0 0)
(0.0126418 0 0)
(0.0126273 0 0)
(0.0125993 0 0)
(0.0125617 0 0)
(0.0125235 0 0)
(0.0124666 0 0)
(0.0124037 0 0)
(0.0123285 0 0)
(0.0122352 0 0)
(0.0121115 0 0)
(0.0119725 0 0)
(0.0117967 0 0)
(0.0115738 0 0)
(0.0113046 0 0)
(0.0109682 0 0)
(0.0105372 0 0)
(0.0100114 0 0)
(0.00939585 0 0)
(0.00867817 0 0)
(0.00789985 0 0)
(0.00712199 0 0)
(0.00640883 0 0)
(0.00581602 0 0)
(0.0053817 0 0)
(0.00509283 0 0)
(0.00490877 0 0)
(0.00479503 0 0)
(0.00472853 0 0)
(0.00469134 0 0)
(0.00467289 0 0)
(0.00466035 0 0)
)
;

boundaryField
{
    inlet
    {
        type            fixedValue;
        value           uniform (0.005 0 0);
    }
    outlet
    {
        type            zeroGradient;
    }
    yzfaces
    {
        type            empty;
    }
}


// ************************************************************************* //
