/*--------------------------------*- C++ -*----------------------------------*\
| =========                 |                                                 |
| \\      /  F ield         | foam-extend: Open Source CFD                    |
|  \\    /   O peration     | Version:     5.0                                |
|   \\  /    A nd           | Web:         http://www.foam-extend.org         |
|    \\/     M anipulation  |                                                 |
\*---------------------------------------------------------------------------*/
FoamFile
{
    version     2.0;
    format      ascii;
    class       volVectorField;
    location    "5";
    object      U.water;
}
// * * * * * * * * * * * * * * * * * * * * * * * * * * * * * * * * * * * * * //

dimensions      [0 1 -1 0 0 0 0];

internalField   nonuniform List<vector> 
100
(
(5.05068e-05 0 0)
(0.000120555 0 0)
(0.000182559 0 0)
(0.000239171 0 0)
(0.0002919 0 0)
(0.000341782 0 0)
(0.000388818 0 0)
(0.000433142 0 0)
(0.000476531 0 0)
(0.000516391 0 0)
(0.000558813 0 0)
(0.000602786 0 0)
(0.000643728 0 0)
(0.000695964 0 0)
(0.000751414 0 0)
(0.000803628 0 0)
(0.000849255 0 0)
(0.000884139 0 0)
(0.000920233 0 0)
(0.000952032 0 0)
(0.000974206 0 0)
(0.000992611 0 0)
(0.00101117 0 0)
(0.00103703 0 0)
(0.00107682 0 0)
(0.00112071 0 0)
(0.00115952 0 0)
(0.00120048 0 0)
(0.00123609 0 0)
(0.0012748 0 0)
(0.00131303 0 0)
(0.00134268 0 0)
(0.00137075 0 0)
(0.00140905 0 0)
(0.00145504 0 0)
(0.00149577 0 0)
(0.00153576 0 0)
(0.00158262 0 0)
(0.0016315 0 0)
(0.00167353 0 0)
(0.00171408 0 0)
(0.00175949 0 0)
(0.00180592 0 0)
(0.00185793 0 0)
(0.00191292 0 0)
(0.00197274 0 0)
(0.00204155 0 0)
(0.00210956 0 0)
(0.0021879 0 0)
(0.00229396 0 0)
(0.00243036 0 0)
(0.00258343 0 0)
(0.00274066 0 0)
(0.00288367 0 0)
(0.00300599 0 0)
(0.00310398 0 0)
(0.00317579 0 0)
(0.00322401 0 0)
(0.00325284 0 0)
(0.00327066 0 0)
(0.00328075 0 0)
(0.0032848 0 0)
(0.00328832 0 0)
(0.00328852 0 0)
(0.00328788 0 0)
(0.00329541 0 0)
(0.00330874 0 0)
(0.00332184 0 0)
(0.00333387 0 0)
(0.00334953 0 0)
(0.00337137 0 0)
(0.0033947 0 0)
(0.00341988 0 0)
(0.0034513 0 0)
(0.00348629 0 0)
(0.0035306 0 0)
(0.00358278 0 0)
(0.00363806 0 0)
(0.00370014 0 0)
(0.00377242 0 0)
(0.00385637 0 0)
(0.00394832 0 0)
(0.00405263 0 0)
(0.00416579 0 0)
(0.00428009 0 0)
(0.00440092 0 0)
(0.00452622 0 0)
(0.00464275 0 0)
(0.00474348 0 0)
(0.00482844 0 0)
(0.00489284 0 0)
(0.00493235 0 0)
(0.00495996 0 0)
(0.00498174 0 0)
(0.00499565 0 0)
(0.00500175 0 0)
(0.00500475 0 0)
(0.00500735 0 0)
(0.00500996 0 0)
(0.00500959 0 0)
)
;

boundaryField
{
    inlet
    {
        type            fixedValue;
        value           uniform (0 0 0);
    }
    outlet
    {
        type            zeroGradient;
    }
    yzfaces
    {
        type            empty;
    }
}


// ************************************************************************* //
