/*--------------------------------*- C++ -*----------------------------------*\
| =========                 |                                                 |
| \\      /  F ield         | foam-extend: Open Source CFD                    |
|  \\    /   O peration     | Version:     5.0                                |
|   \\  /    A nd           | Web:         http://www.foam-extend.org         |
|    \\/     M anipulation  |                                                 |
\*---------------------------------------------------------------------------*/
FoamFile
{
    version     2.0;
    format      ascii;
    class       volScalarField;
    location    "4";
    object      alpha.gas;
}
// * * * * * * * * * * * * * * * * * * * * * * * * * * * * * * * * * * * * * //

dimensions      [0 0 0 0 0 0 0];

internalField   nonuniform List<scalar> 
100
(
0.151736
0.137428
0.127115
0.119524
0.113196
0.108006
0.103636
0.0992227
0.0959443
0.0926634
0.0898546
0.0876194
0.0860384
0.0840865
0.0820195
0.0796848
0.0781921
0.0765549
0.0750862
0.073777
0.072328
0.0711046
0.0701095
0.0689682
0.0679076
0.0666964
0.0655471
0.0646448
0.0636174
0.0626682
0.0617849
0.0608947
0.0599691
0.0590156
0.0581406
0.0573131
0.0563903
0.055633
0.0548687
0.0541042
0.0532406
0.052466
0.0517295
0.0510619
0.0503056
0.0496146
0.0489018
0.0481403
0.0473988
0.0465794
0.0457739
0.0449453
0.0441144
0.0433232
0.0424631
0.0415905
0.0407669
0.0398898
0.0389632
0.0380232
0.0370303
0.0360084
0.034926
0.0338017
0.032581
0.0312835
0.0298822
0.0283571
0.0267154
0.0249609
0.023078
0.0211028
0.0190834
0.0171112
0.0152999
0.0137422
0.0125105
0.0116085
0.0109937
0.0105981
0.0103577
0.010208
0.0101217
0.0100714
0.01004
0.0100229
0.0100125
0.010004
0.00999993
0.00999945
0.01
0.00999966
0.00999926
0.00999812
0.00999963
0.00999899
0.00999773
0.00999787
0.00999762
0.00999934
)
;

boundaryField
{
    inlet
    {
        type            fixedValue;
        value           uniform 0.2;
    }
    outlet
    {
        type            zeroGradient;
    }
    yzfaces
    {
        type            empty;
    }
}


// ************************************************************************* //
