/*--------------------------------*- C++ -*----------------------------------*\
| =========                 |                                                 |
| \\      /  F ield         | foam-extend: Open Source CFD                    |
|  \\    /   O peration     | Version:     5.0                                |
|   \\  /    A nd           | Web:         http://www.foam-extend.org         |
|    \\/     M anipulation  |                                                 |
\*---------------------------------------------------------------------------*/
FoamFile
{
    version     2.0;
    format      ascii;
    class       volScalarField;
    location    "4";
    object      alpha.gas;
}
// * * * * * * * * * * * * * * * * * * * * * * * * * * * * * * * * * * * * * //

dimensions      [0 0 0 0 0 0 0];

internalField   nonuniform List<scalar> 
100
(
0.151544
0.136272
0.127317
0.119781
0.112964
0.107597
0.103064
0.0994112
0.0957548
0.0928682
0.0903917
0.088017
0.0862886
0.0841594
0.0819511
0.0800875
0.0784165
0.0771468
0.0755611
0.0742716
0.0726757
0.0714831
0.0702148
0.0689681
0.067849
0.0667254
0.0656345
0.0645559
0.0635323
0.0626145
0.0617407
0.0607559
0.0598119
0.058792
0.0579801
0.0572298
0.0564249
0.0556362
0.0548746
0.054148
0.0533557
0.0525873
0.0517864
0.0510647
0.0503208
0.0495068
0.0488024
0.048041
0.0472972
0.0465178
0.045736
0.0449085
0.0440557
0.043228
0.0423787
0.0415294
0.0406513
0.0397929
0.0388967
0.0379111
0.036918
0.0359079
0.0347926
0.0336497
0.0324354
0.0311172
0.0296838
0.0281602
0.0265151
0.0247352
0.0228353
0.0208601
0.0188503
0.0168914
0.0151064
0.0135858
0.0123891
0.0115238
0.010938
0.0105661
0.0103358
0.0101963
0.0101137
0.0100688
0.0100412
0.0100263
0.0100191
0.0100121
0.0100098
0.0100083
0.0100055
0.0100063
0.0100061
0.0100072
0.0100043
0.0100035
0.0100023
0.0100005
0.00999941
0.00999303
)
;

boundaryField
{
    inlet
    {
        type            fixedValue;
        value           uniform 0.2;
    }
    outlet
    {
        type            zeroGradient;
    }
    yzfaces
    {
        type            empty;
    }
}


// ************************************************************************* //
