/*--------------------------------*- C++ -*----------------------------------*\
| =========                 |                                                 |
| \\      /  F ield         | foam-extend: Open Source CFD                    |
|  \\    /   O peration     | Version:     5.0                                |
|   \\  /    A nd           | Web:         http://www.foam-extend.org         |
|    \\/     M anipulation  |                                                 |
\*---------------------------------------------------------------------------*/
FoamFile
{
    version     2.0;
    format      ascii;
    class       volScalarField;
    location    "4";
    object      Cl.water;
}
// * * * * * * * * * * * * * * * * * * * * * * * * * * * * * * * * * * * * * //

dimensions      [0 0 0 0 0 0 0];

internalField   nonuniform List<scalar> 
100
(
0.00556255
0.00731295
0.00835842
0.00922522
0.00999592
0.0106163
0.0111387
0.0115456
0.0119656
0.0122949
0.0125872
0.0128588
0.0130784
0.0132996
0.0135471
0.0137664
0.0139568
0.014121
0.0142898
0.014444
0.0146163
0.014763
0.0149118
0.0150523
0.0151837
0.0153071
0.0154309
0.0155509
0.0156693
0.0157796
0.015879
0.0159933
0.016097
0.0162081
0.0163079
0.0163968
0.016487
0.0165789
0.0166721
0.0167549
0.016842
0.0169292
0.0170155
0.0171047
0.0171921
0.0172758
0.0173651
0.0174552
0.0175356
0.0176232
0.0177176
0.0178148
0.0179107
0.0180012
0.0180912
0.0181888
0.0182908
0.0183971
0.0185071
0.0186109
0.0187286
0.0188472
0.0189652
0.0191017
0.0192396
0.0193863
0.0195507
0.0197295
0.0199211
0.0201227
0.0203428
0.0205724
0.0208064
0.0210296
0.0212366
0.0214112
0.0215466
0.0216478
0.0217143
0.0217558
0.0217771
0.0217927
0.0218076
0.0218115
0.0218152
0.0218165
0.0218166
0.0218195
0.0218191
0.0218194
0.0218136
0.0218222
0.0218162
0.0218188
0.0218112
0.0218113
0.021815
0.0218131
0.0218132
0.0218047
)
;

boundaryField
{
    inlet
    {
        type            fixedValue;
        value           uniform 0;
    }
    outlet
    {
        type            zeroGradient;
    }
    yzfaces
    {
        type            empty;
    }
}


// ************************************************************************* //
