/*--------------------------------*- C++ -*----------------------------------*\
| =========                 |                                                 |
| \\      /  F ield         | foam-extend: Open Source CFD                    |
|  \\    /   O peration     | Version:     5.0                                |
|   \\  /    A nd           | Web:         http://www.foam-extend.org         |
|    \\/     M anipulation  |                                                 |
\*---------------------------------------------------------------------------*/
FoamFile
{
    version     2.0;
    format      ascii;
    class       volScalarField;
    location    "4";
    object      Cl.water;
}
// * * * * * * * * * * * * * * * * * * * * * * * * * * * * * * * * * * * * * //

dimensions      [0 0 0 0 0 0 0];

internalField   nonuniform List<scalar> 
100
(
0.00554493
0.00718746
0.00836779
0.00925025
0.00996014
0.0105676
0.0110675
0.0115571
0.0119581
0.012321
0.0126328
0.0129
0.0130849
0.0133075
0.0135487
0.0138073
0.0139903
0.0141734
0.0143456
0.0144984
0.0146549
0.0147917
0.0149163
0.0150416
0.0151696
0.0153001
0.0154351
0.0155455
0.0156625
0.0157724
0.015878
0.0159814
0.016086
0.0161956
0.0162976
0.0163921
0.016487
0.0165809
0.0166652
0.0167603
0.016852
0.0169396
0.0170229
0.0171043
0.0171765
0.0172573
0.0173414
0.0174252
0.017519
0.0176103
0.017707
0.0177997
0.0178883
0.0179789
0.0180793
0.0182022
0.0184
0.0189902
0.0214467
0.0335149
0.0342025
0.0345004
0.0347632
0.0350067
0.0352067
0.0355112
0.0358306
0.0361149
0.0364849
0.0368583
0.0372539
0.0376651
0.038078
0.0384925
0.0388593
0.0391427
0.0394545
0.0396238
0.0397792
0.0398791
0.0399456
0.0399652
0.0399644
0.0399461
0.0400013
0.040013
0.0400169
0.0400583
0.0400651
0.0400635
0.0400632
0.0401021
0.0400618
0.0400546
0.0400209
0.0400113
0.040003
0.0399925
0.0400197
0.0400547
)
;

boundaryField
{
    inlet
    {
        type            fixedValue;
        value           uniform 0;
    }
    outlet
    {
        type            zeroGradient;
    }
    yzfaces
    {
        type            empty;
    }
}


// ************************************************************************* //
