/*--------------------------------*- C++ -*----------------------------------*\
| =========                 |                                                 |
| \\      /  F ield         | foam-extend: Open Source CFD                    |
|  \\    /   O peration     | Version:     5.0                                |
|   \\  /    A nd           | Web:         http://www.foam-extend.org         |
|    \\/     M anipulation  |                                                 |
\*---------------------------------------------------------------------------*/
FoamFile
{
    version     2.0;
    format      ascii;
    class       volScalarField;
    location    "4";
    object      CO2.water;
}
// * * * * * * * * * * * * * * * * * * * * * * * * * * * * * * * * * * * * * //

dimensions      [0 0 0 0 0 0 0];

internalField   nonuniform List<scalar> 
100
(
0.00127268
0.00167379
0.00190897
0.0021069
0.00228596
0.00242693
0.00254598
0.00264192
0.00273795
0.00281377
0.00287881
0.00294118
0.00298658
0.0030425
0.0031005
0.00314945
0.00319334
0.00322668
0.00326833
0.0033022
0.00334411
0.00337544
0.00340875
0.00344149
0.00347089
0.00350039
0.00352905
0.00355738
0.00358426
0.00360837
0.00363132
0.00365718
0.00368198
0.00370876
0.00373009
0.00374979
0.00377093
0.00379165
0.00381165
0.00383074
0.00385154
0.00387173
0.00389276
0.00391172
0.00393125
0.00395263
0.00397113
0.00399113
0.00401067
0.00403114
0.00405167
0.00407341
0.0040958
0.00411754
0.00413985
0.00416216
0.00418522
0.00420777
0.0042313
0.00425719
0.00428327
0.0043098
0.0043391
0.00436911
0.00440101
0.00443563
0.00447328
0.00451329
0.0045565
0.00460325
0.00465315
0.00470503
0.00475781
0.00480926
0.00485615
0.00489608
0.00492751
0.00495024
0.00496563
0.00497539
0.00498144
0.00498511
0.00498728
0.00498846
0.00498918
0.00498957
0.00498976
0.00498994
0.00499001
0.00499004
0.00499012
0.0049901
0.0049901
0.00499007
0.00499015
0.00499017
0.0049902
0.00499025
0.00499028
0.00499045
)
;

boundaryField
{
    inlet
    {
        type            fixedValue;
        value           uniform 0;
    }
    outlet
    {
        type            zeroGradient;
    }
    yzfaces
    {
        type            empty;
    }
}


// ************************************************************************* //
