/*--------------------------------*- C++ -*----------------------------------*\
| =========                 |                                                 |
| \\      /  F ield         | foam-extend: Open Source CFD                    |
|  \\    /   O peration     | Version:     5.0                                |
|   \\  /    A nd           | Web:         http://www.foam-extend.org         |
|    \\/     M anipulation  |                                                 |
\*---------------------------------------------------------------------------*/
FoamFile
{
    version     2.0;
    format      ascii;
    class       volScalarField;
    location    "4";
    object      CO2.gas;
}
// * * * * * * * * * * * * * * * * * * * * * * * * * * * * * * * * * * * * * //

dimensions      [0 0 0 0 0 0 0];

internalField   nonuniform List<scalar> 
100
(
0.151249
0.136006
0.12707
0.119548
0.112744
0.107387
0.102863
0.0992176
0.0955684
0.0926873
0.0902156
0.0878456
0.0861205
0.0839955
0.0817915
0.0799315
0.0782637
0.0769966
0.0754139
0.074127
0.0725341
0.0713439
0.0700781
0.0688338
0.0677168
0.0665955
0.0655066
0.0644302
0.0634085
0.0624926
0.0616205
0.0606376
0.0596954
0.0586775
0.0578672
0.0571183
0.056315
0.0555279
0.0547677
0.0540426
0.0532518
0.0524849
0.0516856
0.0509652
0.0502228
0.0494104
0.0487074
0.0479474
0.0472051
0.0464272
0.0456469
0.0448211
0.04397
0.0431439
0.0422962
0.0414485
0.0405721
0.0397154
0.0388209
0.0378372
0.0368461
0.035838
0.0347249
0.0335842
0.0323722
0.0310566
0.029626
0.0281054
0.0264635
0.024687
0.0227909
0.0208195
0.0188136
0.0168585
0.015077
0.0135593
0.012365
0.0115014
0.0109167
0.0105455
0.0103156
0.0101764
0.010094
0.0100492
0.0100216
0.0100068
0.00999962
0.0099926
0.00999027
0.00998884
0.00998601
0.00998679
0.00998663
0.00998767
0.00998482
0.00998398
0.00998287
0.00998102
0.00997994
0.00997357
)
;

boundaryField
{
    inlet
    {
        type            fixedValue;
        value           uniform 0.2;
    }
    outlet
    {
        type            zeroGradient;
    }
    yzfaces
    {
        type            empty;
    }
}


// ************************************************************************* //
