/*--------------------------------*- C++ -*----------------------------------*\
| =========                 |                                                 |
| \\      /  F ield         | foam-extend: Open Source CFD                    |
|  \\    /   O peration     | Version:     5.0                                |
|   \\  /    A nd           | Web:         http://www.foam-extend.org         |
|    \\/     M anipulation  |                                                 |
\*---------------------------------------------------------------------------*/
FoamFile
{
    version     2.0;
    format      ascii;
    class       volScalarField;
    location    "4";
    object      H2O.gas;
}
// * * * * * * * * * * * * * * * * * * * * * * * * * * * * * * * * * * * * * //

dimensions      [0 0 0 0 0 0 0];

internalField   nonuniform List<scalar> 
100
(
0.000295127
0.000265385
0.000247947
0.000233271
0.000219994
0.000209542
0.000200714
0.0001936
0.00018648
0.000180858
0.000176035
0.000171411
0.000168044
0.000163898
0.000159597
0.000155968
0.000152714
0.000150241
0.000147153
0.000144642
0.000141534
0.000139211
0.000136741
0.000134313
0.000132134
0.000129946
0.000127821
0.000125721
0.000123727
0.00012194
0.000120238
0.00011832
0.000116482
0.000114496
0.000112915
0.000111453
0.000109886
0.00010835
0.000106867
0.000105452
0.000103909
0.000102412
0.000100853
9.9447e-05
9.79984e-05
9.64131e-05
9.50413e-05
9.35584e-05
9.21099e-05
9.0592e-05
8.90695e-05
8.74581e-05
8.57973e-05
8.41854e-05
8.25313e-05
8.08772e-05
7.91672e-05
7.74955e-05
7.57502e-05
7.38307e-05
7.18967e-05
6.99296e-05
6.77576e-05
6.55319e-05
6.31669e-05
6.05999e-05
5.78083e-05
5.48412e-05
5.16375e-05
4.81711e-05
4.44712e-05
4.06244e-05
3.67104e-05
3.28956e-05
2.94193e-05
2.64579e-05
2.41274e-05
2.24423e-05
2.13015e-05
2.05771e-05
2.01286e-05
1.98569e-05
1.96961e-05
1.96086e-05
1.95549e-05
1.95259e-05
1.9512e-05
1.94983e-05
1.94937e-05
1.94909e-05
1.94854e-05
1.94869e-05
1.94866e-05
1.94887e-05
1.94831e-05
1.94814e-05
1.94793e-05
1.94757e-05
1.94736e-05
1.94611e-05
)
;

boundaryField
{
    inlet
    {
        type            fixedValue;
        value           uniform 0;
    }
    outlet
    {
        type            zeroGradient;
    }
    yzfaces
    {
        type            empty;
    }
}


// ************************************************************************* //
