/*--------------------------------*- C++ -*----------------------------------*\
| =========                 |                                                 |
| \\      /  F ield         | foam-extend: Open Source CFD                    |
|  \\    /   O peration     | Version:     5.0                                |
|   \\  /    A nd           | Web:         http://www.foam-extend.org         |
|    \\/     M anipulation  |                                                 |
\*---------------------------------------------------------------------------*/
FoamFile
{
    version     2.0;
    format      ascii;
    class       volScalarField;
    location    "4";
    object      H2O.gas;
}
// * * * * * * * * * * * * * * * * * * * * * * * * * * * * * * * * * * * * * //

dimensions      [0 0 0 0 0 0 0];

internalField   nonuniform List<scalar> 
100
(
0.000295502
0.000267637
0.000247554
0.000232769
0.000220446
0.000210339
0.000201828
0.000193233
0.000186849
0.000180459
0.000174989
0.000170636
0.000167557
0.000163756
0.000159731
0.000155184
0.000152277
0.000149088
0.000146228
0.000143678
0.000140857
0.000138474
0.000136536
0.000134313
0.000132248
0.000129889
0.000127651
0.000125894
0.000123893
0.000122045
0.000120324
0.000118591
0.000116788
0.000114931
0.000113227
0.000111616
0.000109818
0.000108344
0.000106855
0.000105366
0.000103685
0.000102176
0.000100742
9.94416e-05
9.79688e-05
9.6623e-05
9.52348e-05
9.37519e-05
9.23077e-05
9.0712e-05
8.91434e-05
8.75296e-05
8.59116e-05
8.43706e-05
8.26956e-05
8.09963e-05
7.93924e-05
7.76841e-05
7.58798e-05
0.00820236
0.0116301
0.0145814
0.0171006
0.0191656
0.0207374
0.021908
0.0226247
0.0228535
0.0226955
0.0221254
0.0211668
0.0198822
0.0183476
0.0167011
0.0150819
0.0136205
0.0124596
0.0115761
0.0109806
0.0105967
0.0103617
0.0102124
0.0101242
0.0100672
0.0100484
0.01003
0.0100173
0.0100163
0.0100132
0.0100099
0.0100095
0.0100182
0.0100092
0.0100077
0.0100034
0.0100055
0.0100007
0.00999832
0.0100029
0.010012
)
;

boundaryField
{
    inlet
    {
        type            fixedValue;
        value           uniform 0;
    }
    outlet
    {
        type            zeroGradient;
    }
    yzfaces
    {
        type            empty;
    }
}


// ************************************************************************* //
