/*--------------------------------*- C++ -*----------------------------------*\
| =========                 |                                                 |
| \\      /  F ield         | foam-extend: Open Source CFD                    |
|  \\    /   O peration     | Version:     5.0                                |
|   \\  /    A nd           | Web:         http://www.foam-extend.org         |
|    \\/     M anipulation  |                                                 |
\*---------------------------------------------------------------------------*/
FoamFile
{
    version     2.0;
    format      ascii;
    class       volScalarField;
    location    "4";
    object      Na.water;
}
// * * * * * * * * * * * * * * * * * * * * * * * * * * * * * * * * * * * * * //

dimensions      [0 0 0 0 0 0 0];

internalField   nonuniform List<scalar> 
100
(
0.00556044
0.00730973
0.0083545
0.00922324
0.00999576
0.0106156
0.0111365
0.0115482
0.0119781
0.0123063
0.0125895
0.0128512
0.0130688
0.0133011
0.0135528
0.0137701
0.0139601
0.0141182
0.0142883
0.0144443
0.014619
0.014764
0.0149025
0.0150416
0.0151755
0.015305
0.0154261
0.0155535
0.0156686
0.0157796
0.0158871
0.015988
0.0160964
0.0162109
0.0163121
0.0164049
0.0164825
0.0165707
0.0166597
0.0167469
0.0168398
0.0169304
0.0170187
0.0171077
0.0171938
0.0172819
0.0173614
0.017445
0.0175379
0.0176295
0.0177184
0.0178092
0.017903
0.0180033
0.0181092
0.0182074
0.0183016
0.0184002
0.0184993
0.0186068
0.0187193
0.0188408
0.018968
0.0191031
0.0192464
0.0194003
0.0195571
0.019735
0.0199234
0.0201266
0.0203404
0.0205715
0.020796
0.0210149
0.021224
0.0213983
0.0215377
0.0216376
0.0217095
0.0217466
0.0217735
0.0217912
0.0218036
0.0218063
0.0218134
0.021808
0.0218124
0.0218105
0.0218137
0.0218167
0.0218185
0.0218205
0.0218153
0.0218182
0.0218231
0.0218232
0.0218262
0.0218243
0.0218273
0.0218305
)
;

boundaryField
{
    inlet
    {
        type            fixedValue;
        value           uniform 0;
    }
    outlet
    {
        type            zeroGradient;
    }
    yzfaces
    {
        type            empty;
    }
}


// ************************************************************************* //
