/*--------------------------------*- C++ -*----------------------------------*\
| =========                 |                                                 |
| \\      /  F ield         | foam-extend: Open Source CFD                    |
|  \\    /   O peration     | Version:     5.0                                |
|   \\  /    A nd           | Web:         http://www.foam-extend.org         |
|    \\/     M anipulation  |                                                 |
\*---------------------------------------------------------------------------*/
FoamFile
{
    version     2.0;
    format      ascii;
    class       volScalarField;
    location    "4";
    object      Na.water;
}
// * * * * * * * * * * * * * * * * * * * * * * * * * * * * * * * * * * * * * //

dimensions      [0 0 0 0 0 0 0];

internalField   nonuniform List<scalar> 
100
(
0.00554251
0.00718266
0.00836444
0.00924718
0.00996411
0.0105767
0.0110747
0.011574
0.0119651
0.0123281
0.0126483
0.0129065
0.0130911
0.0133149
0.0135518
0.0138093
0.0139956
0.0141758
0.0143366
0.0144976
0.0146553
0.0148008
0.0149262
0.0150479
0.0151721
0.0153002
0.0154367
0.0155435
0.0156559
0.0157679
0.0158665
0.0159713
0.0160781
0.0161805
0.0162796
0.0163753
0.016483
0.0165775
0.0166714
0.0167548
0.016843
0.0169296
0.0170201
0.0171091
0.0171948
0.0172787
0.0173672
0.0174553
0.0175418
0.017627
0.0177163
0.0178093
0.0179106
0.0180132
0.0181085
0.0182243
0.0184285
0.0190203
0.0214652
0.0335393
0.0342208
0.0345114
0.0347847
0.0350224
0.0352188
0.035529
0.0358382
0.0361189
0.0364851
0.0368646
0.0372551
0.0376698
0.0380749
0.0384852
0.0388482
0.0391409
0.0394514
0.0396194
0.0397689
0.0398904
0.0399639
0.040001
0.0400192
0.0400067
0.0400557
0.0400405
0.0400216
0.0400452
0.0400461
0.0400308
0.0400282
0.0400563
0.0400168
0.040009
0.0399835
0.0400076
0.0399948
0.0399872
0.0400083
0.0400681
)
;

boundaryField
{
    inlet
    {
        type            fixedValue;
        value           uniform 0;
    }
    outlet
    {
        type            zeroGradient;
    }
    yzfaces
    {
        type            empty;
    }
}


// ************************************************************************* //
