/*--------------------------------*- C++ -*----------------------------------*\
| =========                 |                                                 |
| \\      /  F ield         | foam-extend: Open Source CFD                    |
|  \\    /   O peration     | Version:     5.0                                |
|   \\  /    A nd           | Web:         http://www.foam-extend.org         |
|    \\/     M anipulation  |                                                 |
\*---------------------------------------------------------------------------*/
FoamFile
{
    version     2.0;
    format      ascii;
    class       volScalarField;
    location    "4";
    object      Ns;
}
// * * * * * * * * * * * * * * * * * * * * * * * * * * * * * * * * * * * * * //

dimensions      [0 -3 0 0 1 0 0];

internalField   nonuniform List<scalar> 
100
(
2114.37
2040.22
1973
1937.93
1896.7
1861.19
1888.21
1854.75
1835.07
1831.49
1821.93
1835.03
1857.99
1802.54
1819.51
1776.87
1779.01
1801.88
1787.33
1784.6
1781.35
1778.23
1795.27
1806.83
1781.33
1771.61
2143.02
1889
1799.09
1783.27
1791.01
1783.14
1773.95
1782.98
1772.78
1771.33
1786.2
1771.68
1781.64
1779.39
1786.94
1785.43
1768.63
1770.62
2142.81
1859.44
1795.42
1786.01
1779.44
1772.25
1770.59
1766.62
1771.03
1773.21
1769.04
1771.25
1761.61
1702.15
1419.86
2
2
2
2
2
2
2
2
2
2
2
2
2
2
2
2
2
2
2
2
2
2
2
2
2
2
2
2
2
2
2
2
2
2
2
2
2
2
2
2
2
)
;

boundaryField
{
    inlet
    {
        type            fixedValue;
        value           uniform 0;
    }
    outlet
    {
        type            zeroGradient;
    }
    yzfaces
    {
        type            empty;
    }
}


// ************************************************************************* //
