/*--------------------------------*- C++ -*----------------------------------*\
| =========                 |                                                 |
| \\      /  F ield         | foam-extend: Open Source CFD                    |
|  \\    /   O peration     | Version:     5.0                                |
|   \\  /    A nd           | Web:         http://www.foam-extend.org         |
|    \\/     M anipulation  |                                                 |
\*---------------------------------------------------------------------------*/
FoamFile
{
    version     2.0;
    format      ascii;
    class       surfaceScalarField;
    location    "4";
    object      phi;
}
// * * * * * * * * * * * * * * * * * * * * * * * * * * * * * * * * * * * * * //

dimensions      [0 3 -1 0 0 0 0];

internalField   nonuniform List<scalar> 
99
(
1.22481e-06
1.22519e-06
1.22784e-06
1.22919e-06
1.22817e-06
1.228e-06
1.21951e-06
1.22394e-06
1.21868e-06
1.21855e-06
1.22057e-06
1.21664e-06
1.21705e-06
1.21671e-06
1.21248e-06
1.21543e-06
1.2123e-06
1.21066e-06
1.21201e-06
1.21112e-06
1.21234e-06
1.21634e-06
1.2132e-06
1.21635e-06
1.21525e-06
1.22097e-06
1.22051e-06
1.22205e-06
1.22172e-06
1.22134e-06
1.22171e-06
1.21822e-06
1.21676e-06
1.21696e-06
1.21777e-06
1.22054e-06
1.22518e-06
1.22271e-06
1.22169e-06
1.21756e-06
1.22208e-06
1.22573e-06
1.22843e-06
1.22463e-06
1.22669e-06
1.22898e-06
1.22663e-06
1.22547e-06
1.22008e-06
1.21879e-06
1.21995e-06
1.21953e-06
1.21945e-06
1.21722e-06
1.21726e-06
1.2175e-06
1.21622e-06
1.21703e-06
1.21896e-06
1.21694e-06
1.21945e-06
1.2194e-06
1.22106e-06
1.2193e-06
1.21956e-06
1.21888e-06
1.21777e-06
1.21889e-06
1.21993e-06
1.21803e-06
1.21638e-06
1.21576e-06
1.21438e-06
1.21614e-06
1.21528e-06
1.21647e-06
1.21727e-06
1.21734e-06
1.21857e-06
1.21905e-06
1.21813e-06
1.21583e-06
1.2159e-06
1.21673e-06
1.21664e-06
1.21498e-06
1.21753e-06
1.2167e-06
1.21503e-06
1.21641e-06
1.2149e-06
1.21419e-06
1.21466e-06
1.21434e-06
1.21384e-06
1.21388e-06
1.21388e-06
1.21397e-06
1.21283e-06
)
;

boundaryField
{
    inlet
    {
        type            calculated;
        value           uniform -1.225e-06;
    }
    outlet
    {
        type            calculated;
        value           uniform 1.21282e-06;
    }
    yzfaces
    {
        type            empty;
    }
}


// ************************************************************************* //
