/*--------------------------------*- C++ -*----------------------------------*\
| =========                 |                                                 |
| \\      /  F ield         | foam-extend: Open Source CFD                    |
|  \\    /   O peration     | Version:     5.0                                |
|   \\  /    A nd           | Web:         http://www.foam-extend.org         |
|    \\/     M anipulation  |                                                 |
\*---------------------------------------------------------------------------*/
FoamFile
{
    version     2.0;
    format      ascii;
    class       surfaceScalarField;
    location    "4";
    object      phi;
}
// * * * * * * * * * * * * * * * * * * * * * * * * * * * * * * * * * * * * * //

dimensions      [0 3 -1 0 0 0 0];

internalField   nonuniform List<scalar> 
99
(
1.2271e-06
1.22816e-06
1.22531e-06
1.21428e-06
1.21548e-06
1.21605e-06
1.20425e-06
1.21106e-06
1.20911e-06
1.20559e-06
1.20557e-06
1.20696e-06
1.19476e-06
1.19823e-06
1.19817e-06
1.19406e-06
1.19566e-06
1.1908e-06
1.19213e-06
1.18989e-06
1.19319e-06
1.18973e-06
1.18925e-06
1.18821e-06
1.18853e-06
1.18495e-06
1.18466e-06
1.18239e-06
1.18339e-06
1.18119e-06
1.17743e-06
1.17669e-06
1.1787e-06
1.17976e-06
1.17814e-06
1.17435e-06
1.17641e-06
1.1782e-06
1.17828e-06
1.17641e-06
1.17647e-06
1.17416e-06
1.17504e-06
1.17365e-06
1.16939e-06
1.17109e-06
1.17111e-06
1.1708e-06
1.17081e-06
1.17016e-06
1.16801e-06
1.16506e-06
1.1657e-06
1.16576e-06
1.16487e-06
1.16417e-06
1.16523e-06
1.16508e-06
1.16186e-06
1.16414e-06
1.16657e-06
1.16573e-06
1.16789e-06
1.16734e-06
1.16658e-06
1.16671e-06
1.16781e-06
1.16755e-06
1.16713e-06
1.16736e-06
1.16809e-06
1.16833e-06
1.1688e-06
1.17076e-06
1.17226e-06
1.17302e-06
1.17378e-06
1.17458e-06
1.17376e-06
1.17445e-06
1.17706e-06
1.1782e-06
1.17816e-06
1.17801e-06
1.17776e-06
1.17872e-06
1.17956e-06
1.18026e-06
1.18058e-06
1.17977e-06
1.18185e-06
1.17973e-06
1.18076e-06
1.18011e-06
1.18029e-06
1.17995e-06
1.17795e-06
1.17771e-06
1.17744e-06
)
;

boundaryField
{
    inlet
    {
        type            calculated;
        value           uniform -1.225e-06;
    }
    outlet
    {
        type            calculated;
        value           uniform 1.17743e-06;
    }
    yzfaces
    {
        type            empty;
    }
}


// ************************************************************************* //
