/*--------------------------------*- C++ -*----------------------------------*\
| =========                 |                                                 |
| \\      /  F ield         | foam-extend: Open Source CFD                    |
|  \\    /   O peration     | Version:     5.0                                |
|   \\  /    A nd           | Web:         http://www.foam-extend.org         |
|    \\/     M anipulation  |                                                 |
\*---------------------------------------------------------------------------*/
FoamFile
{
    version     2.0;
    format      ascii;
    class       surfaceScalarField;
    location    "4";
    object      phi.water;
}
// * * * * * * * * * * * * * * * * * * * * * * * * * * * * * * * * * * * * * //

dimensions      [0 3 -1 0 0 0 0];

internalField   nonuniform List<scalar> 
99
(
1.26348e-07
2.2088e-07
2.90314e-07
3.60535e-07
4.41734e-07
5.1586e-07
5.83753e-07
6.49694e-07
7.21327e-07
7.82431e-07
8.37585e-07
8.99007e-07
9.33413e-07
9.96512e-07
1.06248e-06
1.11731e-06
1.17505e-06
1.21125e-06
1.27145e-06
1.31531e-06
1.3841e-06
1.4279e-06
1.48119e-06
1.536e-06
1.58609e-06
1.63579e-06
1.68822e-06
1.7401e-06
1.7942e-06
1.8382e-06
1.88071e-06
1.93531e-06
1.99254e-06
2.05738e-06
2.10144e-06
2.14144e-06
2.19844e-06
2.25324e-06
2.30196e-06
2.34772e-06
2.40188e-06
2.45036e-06
2.51174e-06
2.55818e-06
2.60512e-06
2.67443e-06
2.72671e-06
2.78505e-06
2.84422e-06
2.90567e-06
2.96245e-06
3.02556e-06
3.10085e-06
3.17127e-06
3.24395e-06
3.31764e-06
3.39972e-06
3.47477e-06
3.54875e-06
3.64983e-06
3.74999e-06
3.84365e-06
3.95944e-06
4.06412e-06
4.17783e-06
4.30762e-06
4.44944e-06
4.59143e-06
4.74288e-06
4.90656e-06
5.07428e-06
5.23622e-06
5.39303e-06
5.53703e-06
5.65227e-06
5.73818e-06
5.79836e-06
5.83764e-06
5.85718e-06
5.87712e-06
5.89892e-06
5.90701e-06
5.90897e-06
5.90948e-06
5.90951e-06
5.91575e-06
5.92016e-06
5.9237e-06
5.92454e-06
5.92161e-06
5.93011e-06
5.919e-06
5.92571e-06
5.92201e-06
5.92364e-06
5.92008e-06
5.91004e-06
5.9098e-06
5.90839e-06
)
;

boundaryField
{
    inlet
    {
        type            fixedValue;
        value           uniform 0;
    }
    outlet
    {
        type            calculated;
        value           uniform 5.90928e-06;
    }
    yzfaces
    {
        type            empty;
    }
}


// ************************************************************************* //
