/*--------------------------------*- C++ -*----------------------------------*\
| =========                 |                                                 |
| \\      /  F ield         | foam-extend: Open Source CFD                    |
|  \\    /   O peration     | Version:     5.0                                |
|   \\  /    A nd           | Web:         http://www.foam-extend.org         |
|    \\/     M anipulation  |                                                 |
\*---------------------------------------------------------------------------*/
FoamFile
{
    version     2.0;
    format      ascii;
    class       volVectorField;
    location    "4";
    object      U.gas;
}
// * * * * * * * * * * * * * * * * * * * * * * * * * * * * * * * * * * * * * //

dimensions      [0 1 -1 0 0 0 0];

internalField   nonuniform List<vector> 
100
(
(0.00657105 0 0)
(0.00721342 0 0)
(0.00775856 0 0)
(0.00820812 0 0)
(0.00860615 0 0)
(0.00894831 0 0)
(0.00922301 0 0)
(0.0095377 0 0)
(0.0097781 0 0)
(0.0100191 0 0)
(0.0102521 0 0)
(0.0104218 0 0)
(0.0105286 0 0)
(0.0107028 0 0)
(0.0108639 0 0)
(0.0110695 0 0)
(0.0111787 0 0)
(0.0113038 0 0)
(0.0114268 0 0)
(0.0115396 0 0)
(0.0116727 0 0)
(0.0117962 0 0)
(0.0118775 0 0)
(0.0119815 0 0)
(0.012079 0 0)
(0.0122115 0 0)
(0.0123314 0 0)
(0.0123974 0 0)
(0.0124921 0 0)
(0.0125593 0 0)
(0.0126229 0 0)
(0.0126731 0 0)
(0.0127178 0 0)
(0.0127803 0 0)
(0.0128399 0 0)
(0.0129105 0 0)
(0.0130152 0 0)
(0.0130572 0 0)
(0.0130811 0 0)
(0.0130948 0 0)
(0.0131496 0 0)
(0.0132206 0 0)
(0.0132833 0 0)
(0.0132951 0 0)
(0.0133202 0 0)
(0.0133566 0 0)
(0.0133781 0 0)
(0.0133807 0 0)
(0.0133521 0 0)
(0.0133345 0 0)
(0.0133377 0 0)
(0.0133442 0 0)
(0.013332 0 0)
(0.0133001 0 0)
(0.0132781 0 0)
(0.0132524 0 0)
(0.0132051 0 0)
(0.0131678 0 0)
(0.0131375 0 0)
(0.0130733 0 0)
(0.0130042 0 0)
(0.0129258 0 0)
(0.0128299 0 0)
(0.0127021 0 0)
(0.0125474 0 0)
(0.0123601 0 0)
(0.0121302 0 0)
(0.0118613 0 0)
(0.0115378 0 0)
(0.01113 0 0)
(0.0106343 0 0)
(0.0100462 0 0)
(0.0093675 0 0)
(0.00861548 0 0)
(0.00782312 0 0)
(0.00704752 0 0)
(0.00635531 0 0)
(0.00579114 0 0)
(0.00537321 0 0)
(0.00508882 0 0)
(0.00490263 0 0)
(0.00478408 0 0)
(0.00471043 0 0)
(0.00467239 0 0)
(0.00465005 0 0)
(0.00463228 0 0)
(0.00462716 0 0)
(0.00462485 0 0)
(0.00461523 0 0)
(0.00461276 0 0)
(0.0046129 0 0)
(0.00460893 0 0)
(0.00460761 0 0)
(0.00460869 0 0)
(0.0046068 0 0)
(0.00460652 0 0)
(0.00460645 0 0)
(0.0046062 0 0)
(0.00460418 0 0)
(0.00460123 0 0)
)
;

boundaryField
{
    inlet
    {
        type            fixedValue;
        value           uniform (0.005 0 0);
    }
    outlet
    {
        type            zeroGradient;
    }
    yzfaces
    {
        type            empty;
    }
}


// ************************************************************************* //
