/*--------------------------------*- C++ -*----------------------------------*\
| =========                 |                                                 |
| \\      /  F ield         | foam-extend: Open Source CFD                    |
|  \\    /   O peration     | Version:     5.0                                |
|   \\  /    A nd           | Web:         http://www.foam-extend.org         |
|    \\/     M anipulation  |                                                 |
\*---------------------------------------------------------------------------*/
FoamFile
{
    version     2.0;
    format      ascii;
    class       volVectorField;
    location    "4";
    object      U.gas;
}
// * * * * * * * * * * * * * * * * * * * * * * * * * * * * * * * * * * * * * //

dimensions      [0 1 -1 0 0 0 0];

internalField   nonuniform List<vector> 
100
(
(0.00658534 0 0)
(0.00728768 0 0)
(0.00774584 0 0)
(0.00813435 0 0)
(0.00852685 0 0)
(0.00888793 0 0)
(0.00916301 0 0)
(0.00940687 0 0)
(0.00970759 0 0)
(0.00990504 0 0)
(0.0100858 0 0)
(0.0102862 0 0)
(0.0103725 0 0)
(0.0105206 0 0)
(0.0107261 0 0)
(0.0108605 0 0)
(0.0109884 0 0)
(0.0110723 0 0)
(0.0112025 0 0)
(0.0113011 0 0)
(0.0114541 0 0)
(0.0115408 0 0)
(0.0116324 0 0)
(0.0117293 0 0)
(0.0118139 0 0)
(0.0118909 0 0)
(0.0119584 0 0)
(0.0120307 0 0)
(0.0121005 0 0)
(0.0121587 0 0)
(0.0121895 0 0)
(0.0122438 0 0)
(0.0123155 0 0)
(0.0124056 0 0)
(0.0124395 0 0)
(0.0124538 0 0)
(0.0124976 0 0)
(0.0125612 0 0)
(0.0126103 0 0)
(0.0126349 0 0)
(0.0126687 0 0)
(0.0126909 0 0)
(0.0127188 0 0)
(0.0127338 0 0)
(0.0127312 0 0)
(0.0127462 0 0)
(0.0127593 0 0)
(0.0127811 0 0)
(0.0127873 0 0)
(0.0127937 0 0)
(0.0127828 0 0)
(0.0127602 0 0)
(0.0127415 0 0)
(0.0127279 0 0)
(0.0127064 0 0)
(0.0126706 0 0)
(0.0126421 0 0)
(0.0126017 0 0)
(0.0125389 0 0)
(0.0124827 0 0)
(0.0124295 0 0)
(0.012348 0 0)
(0.0122587 0 0)
(0.0121371 0 0)
(0.0119853 0 0)
(0.0118049 0 0)
(0.011593 0 0)
(0.0113275 0 0)
(0.0110027 0 0)
(0.0106102 0 0)
(0.010138 0 0)
(0.00957368 0 0)
(0.00892196 0 0)
(0.00820165 0 0)
(0.00744671 0 0)
(0.00671235 0 0)
(0.0060573 0 0)
(0.00553019 0 0)
(0.00514226 0 0)
(0.00487644 0 0)
(0.00471581 0 0)
(0.00462042 0 0)
(0.00455883 0 0)
(0.00452129 0 0)
(0.00450078 0 0)
(0.00448987 0 0)
(0.00448725 0 0)
(0.00448695 0 0)
(0.0044852 0 0)
(0.00448276 0 0)
(0.00448497 0 0)
(0.00448396 0 0)
(0.00448194 0 0)
(0.00448307 0 0)
(0.00448247 0 0)
(0.00448021 0 0)
(0.00447557 0 0)
(0.00447107 0 0)
(0.0044693 0 0)
(0.00447033 0 0)
)
;

boundaryField
{
    inlet
    {
        type            fixedValue;
        value           uniform (0.005 0 0);
    }
    outlet
    {
        type            zeroGradient;
    }
    yzfaces
    {
        type            empty;
    }
}


// ************************************************************************* //
