/*--------------------------------*- C++ -*----------------------------------*\
| =========                 |                                                 |
| \\      /  F ield         | foam-extend: Open Source CFD                    |
|  \\    /   O peration     | Version:     5.0                                |
|   \\  /    A nd           | Web:         http://www.foam-extend.org         |
|    \\/     M anipulation  |                                                 |
\*---------------------------------------------------------------------------*/
FoamFile
{
    version     2.0;
    format      ascii;
    class       volVectorField;
    location    "4";
    object      U.water;
}
// * * * * * * * * * * * * * * * * * * * * * * * * * * * * * * * * * * * * * //

dimensions      [0 1 -1 0 0 0 0];

internalField   nonuniform List<vector> 
100
(
(5.92167e-05 0 0)
(0.000138619 0 0)
(0.000205828 0 0)
(0.000270881 0 0)
(0.00033202 0 0)
(0.000391824 0 0)
(0.000447754 0 0)
(0.000505755 0 0)
(0.000565401 0 0)
(0.000618435 0 0)
(0.000675126 0 0)
(0.000726374 0 0)
(0.000767601 0 0)
(0.000805847 0 0)
(0.000851463 0 0)
(0.00090524 0 0)
(0.000959072 0 0)
(0.00100129 0 0)
(0.00104752 0 0)
(0.00109075 0 0)
(0.00113498 0 0)
(0.00118341 0 0)
(0.00122354 0 0)
(0.00126159 0 0)
(0.00130386 0 0)
(0.00134962 0 0)
(0.00140002 0 0)
(0.00144462 0 0)
(0.00148655 0 0)
(0.00152985 0 0)
(0.00157188 0 0)
(0.00161146 0 0)
(0.00165103 0 0)
(0.00169604 0 0)
(0.0017429 0 0)
(0.00178915 0 0)
(0.00184056 0 0)
(0.00188916 0 0)
(0.00192911 0 0)
(0.00196807 0 0)
(0.00201473 0 0)
(0.00207051 0 0)
(0.00212153 0 0)
(0.00216449 0 0)
(0.00220754 0 0)
(0.00225844 0 0)
(0.00230362 0 0)
(0.00234891 0 0)
(0.00239389 0 0)
(0.00243998 0 0)
(0.00249559 0 0)
(0.00255357 0 0)
(0.00261326 0 0)
(0.00267019 0 0)
(0.00272848 0 0)
(0.00279404 0 0)
(0.0028576 0 0)
(0.0029224 0 0)
(0.00299561 0 0)
(0.00306932 0 0)
(0.00314718 0 0)
(0.00323193 0 0)
(0.00331977 0 0)
(0.00340986 0 0)
(0.00350406 0 0)
(0.00360731 0 0)
(0.0037155 0 0)
(0.00383473 0 0)
(0.00396572 0 0)
(0.00409778 0 0)
(0.00422908 0 0)
(0.00436399 0 0)
(0.00449449 0 0)
(0.00461824 0 0)
(0.00472507 0 0)
(0.00480892 0 0)
(0.00487417 0 0)
(0.00491792 0 0)
(0.00494787 0 0)
(0.00496835 0 0)
(0.00497772 0 0)
(0.00497712 0 0)
(0.00497616 0 0)
(0.00498003 0 0)
(0.00498277 0 0)
(0.00497993 0 0)
(0.00498208 0 0)
(0.00498588 0 0)
(0.00498102 0 0)
(0.00498052 0 0)
(0.00498023 0 0)
(0.00497567 0 0)
(0.00497524 0 0)
(0.00497548 0 0)
(0.00497382 0 0)
(0.00497285 0 0)
(0.00497293 0 0)
(0.00497314 0 0)
(0.00497099 0 0)
(0.00496868 0 0)
)
;

boundaryField
{
    inlet
    {
        type            fixedValue;
        value           uniform (0 0 0);
    }
    outlet
    {
        type            zeroGradient;
    }
    yzfaces
    {
        type            empty;
    }
}


// ************************************************************************* //
