/*--------------------------------*- C++ -*----------------------------------*\
| =========                 |                                                 |
| \\      /  F ield         | foam-extend: Open Source CFD                    |
|  \\    /   O peration     | Version:     5.0                                |
|   \\  /    A nd           | Web:         http://www.foam-extend.org         |
|    \\/     M anipulation  |                                                 |
\*---------------------------------------------------------------------------*/
FoamFile
{
    version     2.0;
    format      ascii;
    class       volVectorField;
    location    "4";
    object      U.water;
}
// * * * * * * * * * * * * * * * * * * * * * * * * * * * * * * * * * * * * * //

dimensions      [0 1 -1 0 0 0 0];

internalField   nonuniform List<vector> 
100
(
(5.95976e-05 0 0)
(0.000141822 0 0)
(0.00020958 0 0)
(0.000266859 0 0)
(0.000327589 0 0)
(0.000391209 0 0)
(0.000448745 0 0)
(0.000503972 0 0)
(0.000559059 0 0)
(0.000613537 0 0)
(0.000661231 0 0)
(0.000708527 0 0)
(0.000749868 0 0)
(0.000788369 0 0)
(0.000839538 0 0)
(0.000889238 0 0)
(0.000935364 0 0)
(0.000975732 0 0)
(0.00101372 0 0)
(0.00105705 0 0)
(0.00110152 0 0)
(0.00114888 0 0)
(0.00118844 0 0)
(0.0012321 0 0)
(0.00127532 0 0)
(0.00131562 0 0)
(0.00135678 0 0)
(0.00139904 0 0)
(0.0014425 0 0)
(0.00148361 0 0)
(0.00151971 0 0)
(0.00155829 0 0)
(0.00160334 0 0)
(0.00165206 0 0)
(0.0016981 0 0)
(0.00173335 0 0)
(0.00177133 0 0)
(0.00181629 0 0)
(0.00185936 0 0)
(0.0018988 0 0)
(0.00193945 0 0)
(0.00198122 0 0)
(0.00202542 0 0)
(0.00207071 0 0)
(0.00210917 0 0)
(0.00215473 0 0)
(0.00220453 0 0)
(0.00224975 0 0)
(0.0022983 0 0)
(0.00234791 0 0)
(0.00239666 0 0)
(0.0024452 0 0)
(0.00250084 0 0)
(0.00256048 0 0)
(0.00261891 0 0)
(0.00267827 0 0)
(0.00274154 0 0)
(0.00280693 0 0)
(0.00286805 0 0)
(0.00293763 0 0)
(0.00301956 0 0)
(0.00309929 0 0)
(0.0031838 0 0)
(0.00327468 0 0)
(0.00336512 0 0)
(0.00346412 0 0)
(0.00357419 0 0)
(0.00369077 0 0)
(0.00381123 0 0)
(0.0039392 0 0)
(0.00407384 0 0)
(0.00420864 0 0)
(0.00433758 0 0)
(0.00445848 0 0)
(0.00456393 0 0)
(0.00464592 0 0)
(0.00470567 0 0)
(0.00474747 0 0)
(0.00477231 0 0)
(0.00478758 0 0)
(0.00480352 0 0)
(0.00481665 0 0)
(0.00482222 0 0)
(0.00482374 0 0)
(0.00482392 0 0)
(0.00482599 0 0)
(0.00482998 0 0)
(0.00483329 0 0)
(0.00483556 0 0)
(0.00483465 0 0)
(0.00483726 0 0)
(0.00483722 0 0)
(0.00483498 0 0)
(0.00483575 0 0)
(0.00483477 0 0)
(0.00483454 0 0)
(0.00482975 0 0)
(0.00482517 0 0)
(0.00482417 0 0)
(0.00482351 0 0)
)
;

boundaryField
{
    inlet
    {
        type            fixedValue;
        value           uniform (0 0 0);
    }
    outlet
    {
        type            zeroGradient;
    }
    yzfaces
    {
        type            empty;
    }
}


// ************************************************************************* //
