/*--------------------------------*- C++ -*----------------------------------*\
| =========                 |                                                 |
| \\      /  F ield         | foam-extend: Open Source CFD                    |
|  \\    /   O peration     | Version:     5.0                                |
|   \\  /    A nd           | Web:         http://www.foam-extend.org         |
|    \\/     M anipulation  |                                                 |
\*---------------------------------------------------------------------------*/
FoamFile
{
    version     2.0;
    format      ascii;
    class       volScalarField;
    location    "5";
    object      alpha.gas;
}
// * * * * * * * * * * * * * * * * * * * * * * * * * * * * * * * * * * * * * //

dimensions      [0 0 0 0 0 0 0];

internalField   nonuniform List<scalar> 
100
(
0.157445
0.135594
0.117379
0.10813
0.105068
0.104419
0.101787
0.101841
0.102229
0.096089
0.093806
0.0932855
0.0858356
0.0805631
0.0805199
0.0793613
0.080338
0.0823735
0.0782958
0.0794423
0.0790689
0.075052
0.0745642
0.0701104
0.0683206
0.0680575
0.0674791
0.0687182
0.0680562
0.0668184
0.0670317
0.0664353
0.0635489
0.0620638
0.0592419
0.0571153
0.0576067
0.0566725
0.0559145
0.0514481
0.0506643
0.0478414
0.0453639
0.0415698
0.0345821
0.0182268
0.0224514
0.0244281
0.0253661
0.0258189
0.0260674
0.0262155
0.0263207
0.0263949
0.0264564
0.0265137
0.0265598
0.0265787
0.0265986
0.0266065
0.0266025
0.0265933
0.0265582
0.0265349
0.026496
0.0264442
0.0263584
0.0262555
0.026098
0.0259107
0.0256608
0.0253507
0.0249547
0.0244743
0.0238944
0.0231826
0.0223384
0.0213331
0.0201921
0.0189063
0.0175304
0.0161172
0.0147518
0.013518
0.0124834
0.0116813
0.0110983
0.0106977
0.0104353
0.0102656
0.0101623
0.0100977
0.0100602
0.0100344
0.0100187
0.0100098
0.0100063
0.0100021
0.00999861
0.00999766
)
;

boundaryField
{
    inlet
    {
        type            fixedValue;
        value           uniform 0.2;
    }
    outlet
    {
        type            zeroGradient;
    }
    yzfaces
    {
        type            empty;
    }
}


// ************************************************************************* //
