/*--------------------------------*- C++ -*----------------------------------*\
| =========                 |                                                 |
| \\      /  F ield         | foam-extend: Open Source CFD                    |
|  \\    /   O peration     | Version:     5.0                                |
|   \\  /    A nd           | Web:         http://www.foam-extend.org         |
|    \\/     M anipulation  |                                                 |
\*---------------------------------------------------------------------------*/
FoamFile
{
    version     2.0;
    format      ascii;
    class       volScalarField;
    location    "5";
    object      CO2.gas;
}
// * * * * * * * * * * * * * * * * * * * * * * * * * * * * * * * * * * * * * //

dimensions      [0 0 0 0 0 0 0];

internalField   nonuniform List<scalar> 
100
(
0.157138
0.13533
0.117151
0.10792
0.104863
0.104215
0.101589
0.101643
0.10203
0.0959019
0.0936233
0.0931038
0.0856685
0.0804062
0.0803631
0.0792067
0.0801815
0.0822131
0.0781433
0.0792876
0.0789149
0.0749059
0.074419
0.0699739
0.0681876
0.0679249
0.0673477
0.0685843
0.0679236
0.0666883
0.0669012
0.0663059
0.0634252
0.061943
0.0591266
0.057004
0.0574946
0.0565622
0.0558056
0.0513479
0.0505656
0.0477482
0.0452756
0.0414889
0.0345147
0.0181913
0.0217934
0.0231623
0.0234391
0.0231815
0.0226359
0.0219042
0.0210297
0.0200739
0.0190347
0.0179535
0.0168173
0.0156378
0.0144432
0.0132339
0.0120394
0.0108742
0.00972944
0.00864011
0.00760575
0.00662826
0.00571717
0.00487621
0.00410601
0.00341704
0.00279942
0.00225725
0.00178723
0.00138556
0.00104899
0.000771106
0.000548754
0.000375571
0.000245692
0.000151999
8.81301e-05
4.74061e-05
2.3445e-05
1.05898e-05
4.36603e-06
1.65618e-06
5.84798e-07
1.95544e-07
6.28673e-08
1.97729e-08
6.21555e-09
1.98248e-09
6.63586e-10
2.39193e-10
9.43555e-11
4.08009e-11
1.88819e-11
9.03104e-12
4.36482e-12
2.70557e-12
)
;

boundaryField
{
    inlet
    {
        type            fixedValue;
        value           uniform 0.2;
    }
    outlet
    {
        type            zeroGradient;
    }
    yzfaces
    {
        type            empty;
    }
}


// ************************************************************************* //
