/*--------------------------------*- C++ -*----------------------------------*\
| =========                 |                                                 |
| \\      /  F ield         | foam-extend: Open Source CFD                    |
|  \\    /   O peration     | Version:     5.0                                |
|   \\  /    A nd           | Web:         http://www.foam-extend.org         |
|    \\/     M anipulation  |                                                 |
\*---------------------------------------------------------------------------*/
FoamFile
{
    version     2.0;
    format      ascii;
    class       volScalarField;
    location    "5";
    object      CO2.water;
}
// * * * * * * * * * * * * * * * * * * * * * * * * * * * * * * * * * * * * * //

dimensions      [0 0 0 0 0 0 0];

internalField   nonuniform List<scalar> 
100
(
0.0011177
0.00169159
0.00216999
0.00241291
0.00249335
0.0025104
0.00257951
0.0025781
0.00256792
0.00272917
0.00278914
0.00280281
0.00299847
0.00313696
0.00313809
0.00316852
0.00314287
0.00308941
0.00319651
0.00316639
0.0031762
0.0032817
0.00329451
0.00341149
0.0034585
0.00346541
0.0034806
0.00344806
0.00346544
0.00349795
0.00349235
0.00350802
0.00358383
0.00362283
0.00369695
0.0037528
0.00373989
0.00376443
0.00378434
0.00390165
0.00392223
0.00399638
0.00406145
0.0041611
0.00434463
0.00477419
0.00155165
0.000509278
0.000172007
5.9562e-05
2.09825e-05
7.45088e-06
2.65575e-06
9.49915e-07
3.41509e-07
1.2397e-07
4.54367e-08
1.68604e-08
6.35732e-09
2.43193e-09
9.44205e-10
3.71702e-10
1.47976e-10
5.95208e-11
2.41435e-11
9.84298e-12
4.03589e-12
1.66023e-12
6.85223e-13
2.83525e-13
1.17669e-13
4.90447e-14
2.0523e-14
8.65972e-15
3.67556e-15
1.57254e-15
6.78828e-16
2.95716e-16
1.299e-16
5.75175e-17
2.56384e-17
1.14868e-17
5.16153e-18
2.32061e-18
1.04147e-18
4.6492e-19
2.07507e-19
9.27243e-20
4.15621e-20
1.87364e-20
8.51436e-21
3.91565e-21
1.79346e-21
8.07097e-22
3.57278e-22
1.5552e-22
6.6719e-23
2.82469e-23
1.18315e-23
6.19789e-24
)
;

boundaryField
{
    inlet
    {
        type            fixedValue;
        value           uniform 0;
    }
    outlet
    {
        type            zeroGradient;
    }
    yzfaces
    {
        type            empty;
    }
}


// ************************************************************************* //
