/*--------------------------------*- C++ -*----------------------------------*\
| =========                 |                                                 |
| \\      /  F ield         | foam-extend: Open Source CFD                    |
|  \\    /   O peration     | Version:     5.0                                |
|   \\  /    A nd           | Web:         http://www.foam-extend.org         |
|    \\/     M anipulation  |                                                 |
\*---------------------------------------------------------------------------*/
FoamFile
{
    version     2.0;
    format      ascii;
    class       volScalarField;
    location    "5";
    object      H2O.gas;
}
// * * * * * * * * * * * * * * * * * * * * * * * * * * * * * * * * * * * * * //

dimensions      [0 0 0 0 0 0 0];

internalField   nonuniform List<scalar> 
100
(
0.000306619
0.000264065
0.000228593
0.000210581
0.000204617
0.000203352
0.000198228
0.000198332
0.000199087
0.000187131
0.000182684
0.000181671
0.000167162
0.000156894
0.00015681
0.000154554
0.000156456
0.00016042
0.000152479
0.000154712
0.000153984
0.000146162
0.000145212
0.000136538
0.000133052
0.00013254
0.000131414
0.000133827
0.000132537
0.000130127
0.000130542
0.000129381
0.00012376
0.000120867
0.000115372
0.00011123
0.000112187
0.000110368
0.000108892
0.000100194
9.86672e-05
9.31696e-05
8.83449e-05
8.0956e-05
6.73476e-05
3.54962e-05
0.000656016
0.00124214
0.00188958
0.00261949
0.00343213
0.0043256
0.00528923
0.00632536
0.00741609
0.00856817
0.00975027
0.0109559
0.0121741
0.0133811
0.0145814
0.0157552
0.0168697
0.0179352
0.0189433
0.0198599
0.0206782
0.021407
0.0220116
0.0225246
0.0228833
0.0231196
0.0232029
0.0231229
0.0228852
0.022427
0.0217925
0.0209455
0.0199342
0.018741
0.0174272
0.0160585
0.0147231
0.0135102
0.0124796
0.0116816
0.0111009
0.0107001
0.0104398
0.010264
0.010166
0.0101022
0.0100594
0.010035
0.0100164
0.0100048
0.00999988
0.00999615
0.00999581
0.00999077
)
;

boundaryField
{
    inlet
    {
        type            fixedValue;
        value           uniform 0;
    }
    outlet
    {
        type            zeroGradient;
    }
    yzfaces
    {
        type            empty;
    }
}


// ************************************************************************* //
