/*--------------------------------*- C++ -*----------------------------------*\
| =========                 |                                                 |
| \\      /  F ield         | foam-extend: Open Source CFD                    |
|  \\    /   O peration     | Version:     5.0                                |
|   \\  /    A nd           | Web:         http://www.foam-extend.org         |
|    \\/     M anipulation  |                                                 |
\*---------------------------------------------------------------------------*/
FoamFile
{
    version     2.0;
    format      ascii;
    class       surfaceScalarField;
    location    "5";
    object      phi;
}
// * * * * * * * * * * * * * * * * * * * * * * * * * * * * * * * * * * * * * //

dimensions      [0 3 -1 0 0 0 0];

internalField   nonuniform List<scalar> 
99
(
1.22587e-06
1.23045e-06
1.23585e-06
1.23709e-06
1.23544e-06
1.23443e-06
1.23096e-06
1.23222e-06
1.22991e-06
1.22818e-06
1.22837e-06
1.22712e-06
1.22367e-06
1.22349e-06
1.21879e-06
1.21794e-06
1.21274e-06
1.21785e-06
1.21484e-06
1.21437e-06
1.21973e-06
1.2195e-06
1.22022e-06
1.22018e-06
1.21664e-06
1.21617e-06
1.21514e-06
1.21699e-06
1.21745e-06
1.21976e-06
1.21889e-06
1.21971e-06
1.22165e-06
1.22014e-06
1.2226e-06
1.22244e-06
1.21994e-06
1.21957e-06
1.22326e-06
1.22123e-06
1.222e-06
1.22113e-06
1.22025e-06
1.21966e-06
1.22062e-06
1.22062e-06
1.21881e-06
1.21948e-06
1.21965e-06
1.22009e-06
1.21919e-06
1.21827e-06
1.21724e-06
1.21855e-06
1.21962e-06
1.21889e-06
1.21896e-06
1.21963e-06
1.21938e-06
1.21934e-06
1.22003e-06
1.21893e-06
1.22046e-06
1.21925e-06
1.21824e-06
1.21725e-06
1.21684e-06
1.21689e-06
1.21685e-06
1.21554e-06
1.21698e-06
1.21828e-06
1.21797e-06
1.21874e-06
1.21847e-06
1.21742e-06
1.21803e-06
1.21707e-06
1.21595e-06
1.21733e-06
1.21737e-06
1.21828e-06
1.21838e-06
1.21953e-06
1.2184e-06
1.21873e-06
1.21977e-06
1.21832e-06
1.21779e-06
1.21866e-06
1.21875e-06
1.22e-06
1.21947e-06
1.21871e-06
1.21686e-06
1.21868e-06
1.21863e-06
1.21952e-06
1.21876e-06
)
;

boundaryField
{
    inlet
    {
        type            calculated;
        value           uniform -1.225e-06;
    }
    outlet
    {
        type            calculated;
        value           uniform 1.2186e-06;
    }
    yzfaces
    {
        type            empty;
    }
}


// ************************************************************************* //
