/*--------------------------------*- C++ -*----------------------------------*\
| =========                 |                                                 |
| \\      /  F ield         | foam-extend: Open Source CFD                    |
|  \\    /   O peration     | Version:     5.0                                |
|   \\  /    A nd           | Web:         http://www.foam-extend.org         |
|    \\/     M anipulation  |                                                 |
\*---------------------------------------------------------------------------*/
FoamFile
{
    version     2.0;
    format      ascii;
    class       volVectorField;
    location    "5";
    object      U.gas;
}
// * * * * * * * * * * * * * * * * * * * * * * * * * * * * * * * * * * * * * //

dimensions      [0 1 -1 0 0 0 0];

internalField   nonuniform List<vector> 
100
(
(0.00634623 0 0)
(0.00743798 0 0)
(0.00851112 0 0)
(0.00896282 0 0)
(0.00912865 0 0)
(0.00917164 0 0)
(0.00930023 0 0)
(0.00934388 0 0)
(0.00931366 0 0)
(0.00981189 0 0)
(0.00993432 0 0)
(0.0100804 0 0)
(0.010652 0 0)
(0.0109848 0 0)
(0.0109166 0 0)
(0.0110104 0 0)
(0.010852 0 0)
(0.0110293 0 0)
(0.011166 0 0)
(0.0108798 0 0)
(0.0112773 0 0)
(0.0116079 0 0)
(0.0115803 0 0)
(0.0120196 0 0)
(0.0120489 0 0)
(0.0120044 0 0)
(0.0119917 0 0)
(0.0120599 0 0)
(0.0121611 0 0)
(0.0120913 0 0)
(0.0121111 0 0)
(0.0122815 0 0)
(0.0127472 0 0)
(0.0125408 0 0)
(0.0129294 0 0)
(0.0130279 0 0)
(0.0127234 0 0)
(0.0130545 0 0)
(0.013164 0 0)
(0.0133644 0 0)
(0.0133773 0 0)
(0.0134587 0 0)
(0.013695 0 0)
(0.0137249 0 0)
(0.0143584 0 0)
(0.0157079 0 0)
(0.00819028 0 0)
(0.00964936 0 0)
(0.0103012 0 0)
(0.0106019 0 0)
(0.0107362 0 0)
(0.0108005 0 0)
(0.0108373 0 0)
(0.010868 0 0)
(0.0108985 0 0)
(0.0109177 0 0)
(0.0109285 0 0)
(0.0109455 0 0)
(0.0109518 0 0)
(0.0109574 0 0)
(0.0109658 0 0)
(0.0109635 0 0)
(0.010963 0 0)
(0.0109526 0 0)
(0.0109402 0 0)
(0.0109222 0 0)
(0.0109034 0 0)
(0.0108805 0 0)
(0.0108585 0 0)
(0.0108126 0 0)
(0.0107665 0 0)
(0.0107151 0 0)
(0.0106367 0 0)
(0.0105332 0 0)
(0.0104027 0 0)
(0.0102289 0 0)
(0.0100112 0 0)
(0.00974472 0 0)
(0.00940153 0 0)
(0.00899775 0 0)
(0.00852189 0 0)
(0.00798288 0 0)
(0.00739762 0 0)
(0.00680873 0 0)
(0.00625772 0 0)
(0.0057802 0 0)
(0.00540982 0 0)
(0.00513794 0 0)
(0.00494794 0 0)
(0.00482777 0 0)
(0.00474975 0 0)
(0.00470278 0 0)
(0.00467388 0 0)
(0.00465394 0 0)
(0.00463762 0 0)
(0.00463036 0 0)
(0.00462882 0 0)
(0.00462869 0 0)
(0.00462777 0 0)
(0.00462307 0 0)
)
;

boundaryField
{
    inlet
    {
        type            fixedValue;
        value           uniform (0.005 0 0);
    }
    outlet
    {
        type            zeroGradient;
    }
    yzfaces
    {
        type            empty;
    }
}


// ************************************************************************* //
