/*--------------------------------*- C++ -*----------------------------------*\
| =========                 |                                                 |
| \\      /  F ield         | foam-extend: Open Source CFD                    |
|  \\    /   O peration     | Version:     5.0                                |
|   \\  /    A nd           | Web:         http://www.foam-extend.org         |
|    \\/     M anipulation  |                                                 |
\*---------------------------------------------------------------------------*/
FoamFile
{
    version     2.0;
    format      ascii;
    class       volVectorField;
    location    "5";
    object      U.water;
}
// * * * * * * * * * * * * * * * * * * * * * * * * * * * * * * * * * * * * * //

dimensions      [0 1 -1 0 0 0 0];

internalField   nonuniform List<vector> 
100
(
(4.88547e-05 0 0)
(0.000136073 0 0)
(0.000257618 0 0)
(0.000373912 0 0)
(0.000435315 0 0)
(0.000462202 0 0)
(0.000477066 0 0)
(0.000497551 0 0)
(0.00050471 0 0)
(0.000532158 0 0)
(0.000603545 0 0)
(0.000639309 0 0)
(0.000706711 0 0)
(0.000823815 0 0)
(0.000890659 0 0)
(0.000906714 0 0)
(0.000915457 0 0)
(0.000913029 0 0)
(0.000951496 0 0)
(0.000955817 0 0)
(0.000949894 0 0)
(0.00103787 0 0)
(0.00110758 0 0)
(0.00116752 0 0)
(0.00126443 0 0)
(0.00130195 0 0)
(0.00131052 0 0)
(0.0013198 0 0)
(0.00134568 0 0)
(0.00136372 0 0)
(0.00135623 0 0)
(0.00137518 0 0)
(0.00147277 0 0)
(0.00157708 0 0)
(0.00163211 0 0)
(0.0017547 0 0)
(0.0017964 0 0)
(0.00180107 0 0)
(0.00190195 0 0)
(0.00201573 0 0)
(0.00214156 0 0)
(0.00225581 0 0)
(0.00241764 0 0)
(0.00265144 0 0)
(0.00306284 0 0)
(0.00390882 0 0)
(0.00457228 0 0)
(0.00432589 0 0)
(0.00420457 0 0)
(0.00414557 0 0)
(0.00411515 0 0)
(0.00409553 0 0)
(0.00408132 0 0)
(0.00407443 0 0)
(0.00407296 0 0)
(0.00406859 0 0)
(0.00406355 0 0)
(0.00406193 0 0)
(0.00406116 0 0)
(0.0040593 0 0)
(0.00405971 0 0)
(0.00405947 0 0)
(0.00406197 0 0)
(0.00406524 0 0)
(0.00406344 0 0)
(0.00406353 0 0)
(0.00406648 0 0)
(0.00407315 0 0)
(0.00408265 0 0)
(0.00409361 0 0)
(0.00411033 0 0)
(0.00413601 0 0)
(0.00416436 0 0)
(0.00419757 0 0)
(0.0042373 0 0)
(0.00428187 0 0)
(0.00433649 0 0)
(0.00439944 0 0)
(0.00446717 0 0)
(0.00454495 0 0)
(0.00462741 0 0)
(0.0047067 0 0)
(0.00477967 0 0)
(0.00484241 0 0)
(0.00489 0 0)
(0.00492371 0 0)
(0.00495108 0 0)
(0.00496654 0 0)
(0.00497296 0 0)
(0.00498017 0 0)
(0.00498634 0 0)
(0.00499164 0 0)
(0.00499466 0 0)
(0.00499288 0 0)
(0.0049881 0 0)
(0.00498841 0 0)
(0.00499228 0 0)
(0.00499409 0 0)
(0.00499442 0 0)
(0.00499268 0 0)
)
;

boundaryField
{
    inlet
    {
        type            fixedValue;
        value           uniform (0 0 0);
    }
    outlet
    {
        type            zeroGradient;
    }
    yzfaces
    {
        type            empty;
    }
}


// ************************************************************************* //
