/*--------------------------------*- C++ -*----------------------------------*\
| =========                 |                                                 |
| \\      /  F ield         | foam-extend: Open Source CFD                    |
|  \\    /   O peration     | Version:     5.0                                |
|   \\  /    A nd           | Web:         http://www.foam-extend.org         |
|    \\/     M anipulation  |                                                 |
\*---------------------------------------------------------------------------*/
FoamFile
{
    version     2.0;
    format      ascii;
    class       volScalarField;
    location    "5";
    object      CO2.gas;
}
// * * * * * * * * * * * * * * * * * * * * * * * * * * * * * * * * * * * * * //

dimensions      [0 0 0 0 0 0 0];

internalField   nonuniform List<scalar> 
100
(
0.156748
0.143503
0.133712
0.130924
0.122393
0.114635
0.109589
0.105117
0.101801
0.0987076
0.0960916
0.0933295
0.0912485
0.0890254
0.0876033
0.0853545
0.0834912
0.082062
0.0803817
0.079131
0.0774236
0.0759739
0.0748258
0.0733328
0.0719761
0.070764
0.0696747
0.0684242
0.0674429
0.0663434
0.0652549
0.0643727
0.0632224
0.0619595
0.0607947
0.0595322
0.0583069
0.0570851
0.0557333
0.0539372
0.0519282
0.0495507
0.04635
0.0414871
0.0330712
0.0155157
0.0247109
0.0230008
0.0221031
0.0215294
0.0210195
0.0205115
0.0198855
0.0191257
0.0182777
0.0173501
0.0163499
0.0152925
0.0141987
0.0130667
0.0119407
0.0108113
0.00969338
0.00860531
0.00757465
0.00658403
0.00565679
0.00480687
0.00402414
0.00331992
0.00269457
0.0021489
0.00167956
0.00128368
0.000956167
0.000690657
0.000481246
0.000321459
0.000203932
0.000121614
6.76067e-05
3.45607e-05
1.61122e-05
6.81874e-06
2.62378e-06
9.26851e-07
3.05464e-07
9.51874e-08
2.84833e-08
8.26205e-09
2.32759e-09
6.31417e-10
1.62339e-10
3.78388e-11
6.28639e-12
0
0
0
0
0
)
;

boundaryField
{
    inlet
    {
        type            fixedValue;
        value           uniform 0.2;
    }
    outlet
    {
        type            zeroGradient;
    }
    yzfaces
    {
        type            empty;
    }
}


// ************************************************************************* //
