/*--------------------------------*- C++ -*----------------------------------*\
| =========                 |                                                 |
| \\      /  F ield         | foam-extend: Open Source CFD                    |
|  \\    /   O peration     | Version:     5.0                                |
|   \\  /    A nd           | Web:         http://www.foam-extend.org         |
|    \\/     M anipulation  |                                                 |
\*---------------------------------------------------------------------------*/
FoamFile
{
    version     2.0;
    format      ascii;
    class       volScalarField;
    location    "5";
    object      Na.water;
}
// * * * * * * * * * * * * * * * * * * * * * * * * * * * * * * * * * * * * * //

dimensions      [0 0 0 0 0 0 0];

internalField   nonuniform List<scalar> 
100
(
0.0048906
0.0064415
0.00757887
0.00784595
0.00885599
0.00977251
0.0103518
0.0108127
0.0112141
0.0115806
0.0118773
0.012166
0.0124647
0.0126844
0.0128678
0.0131064
0.0132975
0.0134824
0.0136536
0.0138635
0.0139871
0.014166
0.0143286
0.0144722
0.0146168
0.0147615
0.0148818
0.0150163
0.0151705
0.0152658
0.015376
0.0155259
0.0156522
0.0157804
0.0159524
0.0160791
0.0162318
0.0163724
0.0165595
0.0167646
0.0169911
0.0172473
0.0176233
0.0181767
0.0191274
0.0210808
0.0208457
0.0211396
0.021245
0.0212369
0.0211985
0.0211868
0.0211544
0.0211146
0.0210888
0.0210775
0.0210606
0.0210432
0.0210267
0.0210026
0.0209979
0.0209871
0.0209666
0.0209569
0.0209689
0.020977
0.0209775
0.0210126
0.0210329
0.0210545
0.0210835
0.0211395
0.0211894
0.0212557
0.0213379
0.0214274
0.021547
0.0216855
0.0218181
0.0219738
0.0221479
0.0223343
0.0225004
0.0226322
0.0227469
0.0228271
0.0228872
0.0229246
0.0229485
0.0229732
0.0229685
0.0229844
0.0229807
0.0230009
0.0230046
0.0229962
0.0230019
0.0229988
0.0229894
0.0229985
)
;

boundaryField
{
    inlet
    {
        type            fixedValue;
        value           uniform 0;
    }
    outlet
    {
        type            zeroGradient;
    }
    yzfaces
    {
        type            empty;
    }
}


// ************************************************************************* //
