/*--------------------------------*- C++ -*----------------------------------*\
| =========                 |                                                 |
| \\      /  F ield         | foam-extend: Open Source CFD                    |
|  \\    /   O peration     | Version:     5.0                                |
|   \\  /    A nd           | Web:         http://www.foam-extend.org         |
|    \\/     M anipulation  |                                                 |
\*---------------------------------------------------------------------------*/
FoamFile
{
    version     2.0;
    format      ascii;
    class       volScalarField;
    location    "5";
    object      Ns;
}
// * * * * * * * * * * * * * * * * * * * * * * * * * * * * * * * * * * * * * //

dimensions      [0 -3 0 0 1 0 0];

internalField   nonuniform List<scalar> 
100
(
0.253152
0.212095
0.822589
18.683
9.51526
0.797584
0.909443
1.79303
0.5928
1.1719
0.0193247
0.338287
1.16783
1.12213
5.20644
1.20848
1.45352
1.05649
0.80086
0.243455
0.32128
0.0587776
0.562616
1.3558
0.680395
2.50142
0.455379
0.963743
0.236346
2.16324
0.329144
0.187749
0.227481
0.300581
0.119287
1.76838
1.0167
1.44967
0.040458
0.244711
1.13117
2.23528
4.44442
6.518
12.3338
33.5675
2
2
2
2
2
2
2
2
2
2
2
2
2
2
2
2
2
2
2
2
2
2
2
2
2
2
2
2
2
2
2
2
2
2
2
2
2
2
2
2
2
2
2
2
2
2
2
2
2
2
2
2
2
2
)
;

boundaryField
{
    inlet
    {
        type            fixedValue;
        value           uniform 0;
    }
    outlet
    {
        type            zeroGradient;
    }
    yzfaces
    {
        type            empty;
    }
}


// ************************************************************************* //
