/*--------------------------------*- C++ -*----------------------------------*\
| =========                 |                                                 |
| \\      /  F ield         | foam-extend: Open Source CFD                    |
|  \\    /   O peration     | Version:     5.0                                |
|   \\  /    A nd           | Web:         http://www.foam-extend.org         |
|    \\/     M anipulation  |                                                 |
\*---------------------------------------------------------------------------*/
FoamFile
{
    version     2.0;
    format      ascii;
    class       surfaceScalarField;
    location    "5";
    object      phi;
}
// * * * * * * * * * * * * * * * * * * * * * * * * * * * * * * * * * * * * * //

dimensions      [0 3 -1 0 0 0 0];

internalField   nonuniform List<scalar> 
99
(
1.2247e-06
1.22382e-06
1.23764e-06
1.22287e-06
1.2151e-06
1.21953e-06
1.21948e-06
1.21943e-06
1.21189e-06
1.21801e-06
1.22019e-06
1.21822e-06
1.21102e-06
1.21269e-06
1.20916e-06
1.20989e-06
1.20787e-06
1.20576e-06
1.2089e-06
1.20393e-06
1.20149e-06
1.20488e-06
1.20515e-06
1.20649e-06
1.20556e-06
1.20511e-06
1.20437e-06
1.21001e-06
1.21257e-06
1.21308e-06
1.21396e-06
1.20971e-06
1.20954e-06
1.20877e-06
1.21371e-06
1.21302e-06
1.21944e-06
1.22031e-06
1.21915e-06
1.21791e-06
1.21853e-06
1.22293e-06
1.22049e-06
1.21906e-06
1.21763e-06
1.21775e-06
1.21918e-06
1.21795e-06
1.2166e-06
1.2156e-06
1.21782e-06
1.21774e-06
1.21665e-06
1.21638e-06
1.21701e-06
1.21606e-06
1.21654e-06
1.216e-06
1.21419e-06
1.21388e-06
1.2122e-06
1.21228e-06
1.21024e-06
1.21297e-06
1.21142e-06
1.21369e-06
1.21429e-06
1.21295e-06
1.21387e-06
1.21476e-06
1.21332e-06
1.21644e-06
1.21523e-06
1.21626e-06
1.21581e-06
1.21644e-06
1.21707e-06
1.21661e-06
1.21546e-06
1.21649e-06
1.21741e-06
1.21778e-06
1.2178e-06
1.21831e-06
1.21848e-06
1.22056e-06
1.21902e-06
1.22042e-06
1.2199e-06
1.2198e-06
1.21875e-06
1.21839e-06
1.21981e-06
1.22016e-06
1.2194e-06
1.22052e-06
1.21883e-06
1.21771e-06
1.21745e-06
)
;

boundaryField
{
    inlet
    {
        type            calculated;
        value           uniform -1.225e-06;
    }
    outlet
    {
        type            calculated;
        value           uniform 1.21959e-06;
    }
    yzfaces
    {
        type            empty;
    }
}


// ************************************************************************* //
