/*--------------------------------*- C++ -*----------------------------------*\
| =========                 |                                                 |
| \\      /  F ield         | foam-extend: Open Source CFD                    |
|  \\    /   O peration     | Version:     5.0                                |
|   \\  /    A nd           | Web:         http://www.foam-extend.org         |
|    \\/     M anipulation  |                                                 |
\*---------------------------------------------------------------------------*/
FoamFile
{
    version     2.0;
    format      ascii;
    class       volVectorField;
    location    "5";
    object      U.water;
}
// * * * * * * * * * * * * * * * * * * * * * * * * * * * * * * * * * * * * * //

dimensions      [0 1 -1 0 0 0 0];

internalField   nonuniform List<vector> 
100
(
(4.89239e-05 0 0)
(0.000113657 0 0)
(0.000167862 0 0)
(0.000209046 0 0)
(0.0002412 0 0)
(0.000304692 0 0)
(0.000369078 0 0)
(0.000423463 0 0)
(0.000471165 0 0)
(0.000516973 0 0)
(0.000563401 0 0)
(0.000606836 0 0)
(0.000648902 0 0)
(0.000689318 0 0)
(0.000727417 0 0)
(0.000763262 0 0)
(0.000806964 0 0)
(0.000845769 0 0)
(0.000884771 0 0)
(0.000922931 0 0)
(0.000958605 0 0)
(0.0010035 0 0)
(0.00104664 0 0)
(0.00108751 0 0)
(0.00113225 0 0)
(0.00117489 0 0)
(0.00121519 0 0)
(0.00125878 0 0)
(0.00130689 0 0)
(0.00135043 0 0)
(0.00139275 0 0)
(0.00143284 0 0)
(0.00147488 0 0)
(0.00152536 0 0)
(0.00158496 0 0)
(0.00164762 0 0)
(0.00171211 0 0)
(0.00178029 0 0)
(0.00184951 0 0)
(0.00193135 0 0)
(0.00203548 0 0)
(0.0021733 0 0)
(0.00235279 0 0)
(0.00261786 0 0)
(0.00309055 0 0)
(0.00365389 0 0)
(0.00400096 0 0)
(0.00417306 0 0)
(0.00423369 0 0)
(0.00423985 0 0)
(0.00422741 0 0)
(0.00420788 0 0)
(0.00418046 0 0)
(0.00415478 0 0)
(0.00413554 0 0)
(0.00411786 0 0)
(0.0041019 0 0)
(0.00408794 0 0)
(0.00407127 0 0)
(0.00405717 0 0)
(0.0040447 0 0)
(0.00403426 0 0)
(0.00402534 0 0)
(0.00402298 0 0)
(0.00402434 0 0)
(0.00402725 0 0)
(0.00403676 0 0)
(0.00404269 0 0)
(0.00405347 0 0)
(0.00407183 0 0)
(0.00409048 0 0)
(0.00411853 0 0)
(0.00415232 0 0)
(0.00418853 0 0)
(0.00423364 0 0)
(0.00428604 0 0)
(0.00434796 0 0)
(0.00441575 0 0)
(0.00448656 0 0)
(0.00456532 0 0)
(0.00464915 0 0)
(0.00472792 0 0)
(0.00479717 0 0)
(0.0048551 0 0)
(0.00490045 0 0)
(0.00493679 0 0)
(0.00495952 0 0)
(0.0049734 0 0)
(0.00498417 0 0)
(0.00498853 0 0)
(0.00498967 0 0)
(0.00498894 0 0)
(0.00499236 0 0)
(0.0049968 0 0)
(0.0049965 0 0)
(0.00499753 0 0)
(0.00499653 0 0)
(0.00499085 0 0)
(0.00498807 0 0)
(0.00499198 0 0)
)
;

boundaryField
{
    inlet
    {
        type            fixedValue;
        value           uniform (0 0 0);
    }
    outlet
    {
        type            zeroGradient;
    }
    yzfaces
    {
        type            empty;
    }
}


// ************************************************************************* //
