/*--------------------------------*- C++ -*----------------------------------*\
| =========                 |                                                 |
| \\      /  F ield         | foam-extend: Open Source CFD                    |
|  \\    /   O peration     | Version:     5.0                                |
|   \\  /    A nd           | Web:         http://www.foam-extend.org         |
|    \\/     M anipulation  |                                                 |
\*---------------------------------------------------------------------------*/
FoamFile
{
    version     2.0;
    format      ascii;
    class       volScalarField;
    location    "10";
    object      alpha.gas;
}
// * * * * * * * * * * * * * * * * * * * * * * * * * * * * * * * * * * * * * //

dimensions      [0 0 0 0 0 0 0];

internalField   nonuniform List<scalar> 
100
(
0.169252
0.158473
0.149837
0.146934
0.143574
0.13804
0.131446
0.127245
0.124679
0.12417
0.123236
0.12081
0.116819
0.112894
0.11036
0.108026
0.106041
0.103559
0.101338
0.0994898
0.0976159
0.0965619
0.0948959
0.0936681
0.0923706
0.0912204
0.0900656
0.0889246
0.0877892
0.0868705
0.0863814
0.0860893
0.0860392
0.0858096
0.0856074
0.0847241
0.0839228
0.083132
0.0821255
0.0810438
0.0800198
0.0791873
0.0782192
0.0774283
0.0769739
0.0764511
0.0757975
0.0751779
0.0746245
0.0741991
0.0737196
0.0731054
0.0725526
0.0720074
0.0714919
0.0710053
0.070471
0.0700579
0.0695954
0.0691652
0.0688634
0.0684597
0.0680461
0.0675401
0.0670315
0.0665676
0.0661107
0.0657217
0.0653181
0.064961
0.0646431
0.0643048
0.0639384
0.0635907
0.0631453
0.0626287
0.0622561
0.0618542
0.0615923
0.0611293
0.0607423
0.060381
0.0599295
0.0595868
0.0591468
0.0588266
0.0585196
0.0581711
0.0578333
0.0575646
0.0571929
0.0568007
0.0564853
0.0562826
0.0560138
0.0557175
0.0554818
0.0551802
0.0549727
0.0547817
)
;

boundaryField
{
    inlet
    {
        type            fixedValue;
        value           uniform 0.2;
    }
    outlet
    {
        type            zeroGradient;
    }
    yzfaces
    {
        type            empty;
    }
}


// ************************************************************************* //
