/*--------------------------------*- C++ -*----------------------------------*\
| =========                 |                                                 |
| \\      /  F ield         | foam-extend: Open Source CFD                    |
|  \\    /   O peration     | Version:     5.0                                |
|   \\  /    A nd           | Web:         http://www.foam-extend.org         |
|    \\/     M anipulation  |                                                 |
\*---------------------------------------------------------------------------*/
FoamFile
{
    version     2.0;
    format      ascii;
    class       volScalarField;
    location    "10";
    object      Cl.water;
}
// * * * * * * * * * * * * * * * * * * * * * * * * * * * * * * * * * * * * * //

dimensions      [0 0 0 0 0 0 0];

internalField   nonuniform List<scalar> 
100
(
0.00576433
0.00851906
0.0104012
0.0121684
0.0130483
0.0137864
0.0143803
0.0153654
0.01624
0.0168165
0.0168908
0.0170624
0.0172277
0.0176898
0.0180751
0.0184948
0.0188508
0.0191331
0.0196398
0.0199959
0.0203986
0.0207686
0.0209974
0.0213287
0.0215435
0.0218988
0.0222248
0.0225356
0.0226793
0.0229226
0.023065
0.0231212
0.023293
0.0233151
0.0233893
0.0234036
0.0234977
0.0235991
0.0237459
0.0240119
0.0243449
0.0245077
0.0246145
0.0247757
0.0249628
0.0251304
0.0251798
0.02527
0.0253773
0.0255164
0.0256667
0.0257027
0.0258493
0.0260089
0.0261088
0.0261598
0.0262331
0.0263183
0.0264071
0.0265198
0.0266799
0.0267898
0.0269241
0.027024
0.0271615
0.0272481
0.0273009
0.0273651
0.0274203
0.0275002
0.0276244
0.0276771
0.0277797
0.0278671
0.0279106
0.0279762
0.0281456
0.0282074
0.0282735
0.028389
0.0284908
0.0285777
0.0286037
0.028691
0.0287442
0.0288747
0.0289386
0.0289811
0.0290321
0.0291389
0.0292019
0.0292944
0.0294427
0.0295673
0.0296148
0.0296492
0.0297002
0.0297277
0.0298178
0.0298494
)
;

boundaryField
{
    inlet
    {
        type            fixedValue;
        value           uniform 0;
    }
    outlet
    {
        type            zeroGradient;
    }
    yzfaces
    {
        type            empty;
    }
}


// ************************************************************************* //
