/*--------------------------------*- C++ -*----------------------------------*\
| =========                 |                                                 |
| \\      /  F ield         | foam-extend: Open Source CFD                    |
|  \\    /   O peration     | Version:     5.0                                |
|   \\  /    A nd           | Web:         http://www.foam-extend.org         |
|    \\/     M anipulation  |                                                 |
\*---------------------------------------------------------------------------*/
FoamFile
{
    version     2.0;
    format      ascii;
    class       volScalarField;
    location    "10";
    object      CO2.gas;
}
// * * * * * * * * * * * * * * * * * * * * * * * * * * * * * * * * * * * * * //

dimensions      [0 0 0 0 0 0 0];

internalField   nonuniform List<scalar> 
100
(
0.168922
0.158164
0.149545
0.146648
0.143295
0.137771
0.13119
0.126997
0.124436
0.123928
0.122996
0.120574
0.116592
0.112674
0.110145
0.107816
0.105834
0.103357
0.10114
0.0992961
0.0974258
0.0963738
0.0947111
0.0934856
0.0921907
0.0910428
0.0898902
0.0887514
0.0876183
0.0867013
0.0862132
0.0859217
0.0858717
0.0856425
0.0854407
0.0845591
0.0837594
0.0829701
0.0819656
0.080886
0.079864
0.0790331
0.0780669
0.0772775
0.076824
0.0763023
0.0756498
0.0750315
0.0744792
0.0740546
0.0735761
0.072963
0.0724113
0.0718672
0.0713527
0.070867
0.0703337
0.0699215
0.0694598
0.0690305
0.0687292
0.0683263
0.0679135
0.0674085
0.066901
0.066438
0.0659819
0.0655937
0.0651909
0.0648345
0.0645172
0.0641795
0.0638139
0.0634668
0.0630223
0.0625068
0.0621349
0.0617337
0.0614723
0.0610102
0.060624
0.0602634
0.0598128
0.0594707
0.0590316
0.0587121
0.0584057
0.0580578
0.0577207
0.0574525
0.0570816
0.0566901
0.0563753
0.056173
0.0559047
0.055609
0.0553737
0.0550727
0.0548656
0.054675
)
;

boundaryField
{
    inlet
    {
        type            fixedValue;
        value           uniform 0.2;
    }
    outlet
    {
        type            zeroGradient;
    }
    yzfaces
    {
        type            empty;
    }
}


// ************************************************************************* //
