/*--------------------------------*- C++ -*----------------------------------*\
| =========                 |                                                 |
| \\      /  F ield         | foam-extend: Open Source CFD                    |
|  \\    /   O peration     | Version:     5.0                                |
|   \\  /    A nd           | Web:         http://www.foam-extend.org         |
|    \\/     M anipulation  |                                                 |
\*---------------------------------------------------------------------------*/
FoamFile
{
    version     2.0;
    format      ascii;
    class       volScalarField;
    location    "10";
    object      CO2.water;
}
// * * * * * * * * * * * * * * * * * * * * * * * * * * * * * * * * * * * * * //

dimensions      [0 0 0 0 0 0 0];

internalField   nonuniform List<scalar> 
100
(
0.000807585
0.0010907
0.00131751
0.00139376
0.00148199
0.00162735
0.00180053
0.00191087
0.00197828
0.00199165
0.00201617
0.0020799
0.00218471
0.00228779
0.00235436
0.00241565
0.00246779
0.00253298
0.00259132
0.00263985
0.00268907
0.00271675
0.00276051
0.00279276
0.00282684
0.00285705
0.00288738
0.00291734
0.00294716
0.00297129
0.00298414
0.00299181
0.00299313
0.00299916
0.00300447
0.00302767
0.00304871
0.00306948
0.00309592
0.00312433
0.00315122
0.00317309
0.00319852
0.00321929
0.00323122
0.00324495
0.00326212
0.00327839
0.00329293
0.0033041
0.0033167
0.00333283
0.00334735
0.00336167
0.00337521
0.00338799
0.00340202
0.00341287
0.00342502
0.00343632
0.00344424
0.00345485
0.00346571
0.003479
0.00349236
0.00350454
0.00351654
0.00352676
0.00353736
0.00354674
0.00355509
0.00356397
0.00357359
0.00358273
0.00359443
0.00360799
0.00361778
0.00362834
0.00363522
0.00364738
0.00365754
0.00366703
0.00367889
0.00368789
0.00369944
0.00370785
0.00371592
0.00372507
0.00373394
0.003741
0.00375076
0.00376106
0.00376935
0.00377467
0.00378173
0.00378951
0.0037957
0.00380363
0.00380908
0.00381409
)
;

boundaryField
{
    inlet
    {
        type            fixedValue;
        value           uniform 0;
    }
    outlet
    {
        type            zeroGradient;
    }
    yzfaces
    {
        type            empty;
    }
}


// ************************************************************************* //
