/*--------------------------------*- C++ -*----------------------------------*\
| =========                 |                                                 |
| \\      /  F ield         | foam-extend: Open Source CFD                    |
|  \\    /   O peration     | Version:     5.0                                |
|   \\  /    A nd           | Web:         http://www.foam-extend.org         |
|    \\/     M anipulation  |                                                 |
\*---------------------------------------------------------------------------*/
FoamFile
{
    version     2.0;
    format      ascii;
    class       volScalarField;
    location    "10";
    object      H2O.water;
}
// * * * * * * * * * * * * * * * * * * * * * * * * * * * * * * * * * * * * * //

dimensions      [0 0 0 0 0 0 0];

internalField   nonuniform List<scalar> 
100
(
0.0184136
0.0234026
0.0280466
0.0273352
0.0288494
0.032751
0.0379846
0.0401093
0.040859
0.0401935
0.0409492
0.0429642
0.0465233
0.0494282
0.0511297
0.0525568
0.0537773
0.0556288
0.0567796
0.0578623
0.0588884
0.059177
0.060358
0.0608868
0.0617239
0.062133
0.0626034
0.0630912
0.0639134
0.064316
0.0645064
0.0646784
0.0643902
0.0645783
0.0646214
0.065442
0.0660167
0.0665939
0.0672811
0.0677992
0.0681226
0.0686074
0.0693408
0.0697886
0.0698593
0.0700356
0.0705761
0.0710086
0.0713208
0.0714534
0.0716108
0.0721278
0.0723689
0.0725812
0.0728897
0.0732638
0.0736493
0.0738696
0.0741539
0.074339
0.0743076
0.0745004
0.0746372
0.0749268
0.0751375
0.0754136
0.0757541
0.0760227
0.0763112
0.0764933
0.0765474
0.0767527
0.0769109
0.0770912
0.0774323
0.0778126
0.0778407
0.0781117
0.0782326
0.0784639
0.0786414
0.0788393
0.0792073
0.0793714
0.0797034
0.0797623
0.0799377
0.0801822
0.0804125
0.0804547
0.0807027
0.0808881
0.080897
0.0808294
0.0809917
0.0812187
0.081353
0.0816038
0.0816248
0.0817284
)
;

boundaryField
{
    inlet
    {
        type            fixedValue;
        value           uniform 0;
    }
    outlet
    {
        type            zeroGradient;
    }
    yzfaces
    {
        type            empty;
    }
}


// ************************************************************************* //
