/*--------------------------------*- C++ -*----------------------------------*\
| =========                 |                                                 |
| \\      /  F ield         | foam-extend: Open Source CFD                    |
|  \\    /   O peration     | Version:     5.0                                |
|   \\  /    A nd           | Web:         http://www.foam-extend.org         |
|    \\/     M anipulation  |                                                 |
\*---------------------------------------------------------------------------*/
FoamFile
{
    version     2.0;
    format      ascii;
    class       volScalarField;
    location    "10";
    object      H2O.gas;
}
// * * * * * * * * * * * * * * * * * * * * * * * * * * * * * * * * * * * * * //

dimensions      [0 0 0 0 0 0 0];

internalField   nonuniform List<scalar> 
100
(
0.000329613
0.000308621
0.000291803
0.00028615
0.000279607
0.000268829
0.000255988
0.000247806
0.000242808
0.000241817
0.000239999
0.000235273
0.000227502
0.000219858
0.000214923
0.000210378
0.000206512
0.000201678
0.000197352
0.000193754
0.000190104
0.000188051
0.000184807
0.000182416
0.000179889
0.000177649
0.0001754
0.000173178
0.000170967
0.000169178
0.000168225
0.000167656
0.000167559
0.000167112
0.000166718
0.000164998
0.000163437
0.000161897
0.000159937
0.00015783
0.000155836
0.000154215
0.00015233
0.000150789
0.000149904
0.000148886
0.000147613
0.000146407
0.000145329
0.000144501
0.000143567
0.000142371
0.000141294
0.000140232
0.000139228
0.000138281
0.00013724
0.000136436
0.000135535
0.000134697
0.000134109
0.000133323
0.000132518
0.000131532
0.000130542
0.000129639
0.000128749
0.000127991
0.000127205
0.00012651
0.00012589
0.000125232
0.000124518
0.000123841
0.000122974
0.000121968
0.000121242
0.000120459
0.000119949
0.000119047
0.000118294
0.00011759
0.000116711
0.000116043
0.000115187
0.000114563
0.000113965
0.000113287
0.000112629
0.000112105
0.000111382
0.000110618
0.000110003
0.000109609
0.000109085
0.000108508
0.000108049
0.000107462
0.000107058
0.000106686
)
;

boundaryField
{
    inlet
    {
        type            fixedValue;
        value           uniform 0;
    }
    outlet
    {
        type            zeroGradient;
    }
    yzfaces
    {
        type            empty;
    }
}


// ************************************************************************* //
