/*--------------------------------*- C++ -*----------------------------------*\
| =========                 |                                                 |
| \\      /  F ield         | foam-extend: Open Source CFD                    |
|  \\    /   O peration     | Version:     5.0                                |
|   \\  /    A nd           | Web:         http://www.foam-extend.org         |
|    \\/     M anipulation  |                                                 |
\*---------------------------------------------------------------------------*/
FoamFile
{
    version     2.0;
    format      ascii;
    class       volScalarField;
    location    "10";
    object      Na.water;
}
// * * * * * * * * * * * * * * * * * * * * * * * * * * * * * * * * * * * * * //

dimensions      [0 0 0 0 0 0 0];

internalField   nonuniform List<scalar> 
100
(
0.00576261
0.00851506
0.0103979
0.0121687
0.0130459
0.0137954
0.0143883
0.0153693
0.0162442
0.0168286
0.0169077
0.0170839
0.0172452
0.0176999
0.018081
0.0185065
0.0188631
0.0191463
0.0196517
0.0200121
0.020408
0.0207757
0.0209882
0.0213237
0.0215352
0.0218907
0.0222189
0.0225312
0.022671
0.0229196
0.0230631
0.0231193
0.0232844
0.0232979
0.0233773
0.0234027
0.023514
0.0236055
0.0237515
0.0240208
0.0243615
0.0245244
0.024627
0.0247881
0.0249728
0.0251379
0.0251844
0.025265
0.0253846
0.025527
0.0256862
0.0257313
0.0258819
0.0260407
0.0261343
0.0261831
0.0262446
0.0263413
0.0264187
0.0265396
0.0267049
0.0267953
0.026927
0.02703
0.0271771
0.0272661
0.0273178
0.0273638
0.0274131
0.0274987
0.0276301
0.0277014
0.0277975
0.0278683
0.0279174
0.0279745
0.0281397
0.0281984
0.0282664
0.0283705
0.0284679
0.0285349
0.0285806
0.0286629
0.0287061
0.0288285
0.0288882
0.0289406
0.0289881
0.0291009
0.0291517
0.0292558
0.0294056
0.0295461
0.029598
0.0296251
0.0296693
0.0296847
0.0297756
0.0298265
)
;

boundaryField
{
    inlet
    {
        type            fixedValue;
        value           uniform 0;
    }
    outlet
    {
        type            zeroGradient;
    }
    yzfaces
    {
        type            empty;
    }
}


// ************************************************************************* //
