/*--------------------------------*- C++ -*----------------------------------*\
| =========                 |                                                 |
| \\      /  F ield         | foam-extend: Open Source CFD                    |
|  \\    /   O peration     | Version:     5.0                                |
|   \\  /    A nd           | Web:         http://www.foam-extend.org         |
|    \\/     M anipulation  |                                                 |
\*---------------------------------------------------------------------------*/
FoamFile
{
    version     2.0;
    format      ascii;
    class       surfaceScalarField;
    location    "10";
    object      phi;
}
// * * * * * * * * * * * * * * * * * * * * * * * * * * * * * * * * * * * * * //

dimensions      [0 3 -1 0 0 0 0];

internalField   nonuniform List<scalar> 
99
(
1.21918e-06
1.21619e-06
1.23499e-06
1.22586e-06
1.21841e-06
1.21238e-06
1.21013e-06
1.21279e-06
1.21626e-06
1.2175e-06
1.20865e-06
1.19463e-06
1.18035e-06
1.18144e-06
1.17676e-06
1.17673e-06
1.17226e-06
1.17142e-06
1.17743e-06
1.18228e-06
1.18517e-06
1.18709e-06
1.18907e-06
1.18737e-06
1.18838e-06
1.18862e-06
1.18547e-06
1.18223e-06
1.18619e-06
1.18954e-06
1.20117e-06
1.20987e-06
1.20758e-06
1.20753e-06
1.20054e-06
1.20169e-06
1.1966e-06
1.19032e-06
1.18824e-06
1.18678e-06
1.19193e-06
1.18902e-06
1.1903e-06
1.19745e-06
1.19498e-06
1.19279e-06
1.19023e-06
1.19019e-06
1.19553e-06
1.19813e-06
1.19506e-06
1.19881e-06
1.20061e-06
1.20241e-06
1.20199e-06
1.20164e-06
1.20395e-06
1.20663e-06
1.20636e-06
1.20778e-06
1.20562e-06
1.20558e-06
1.20535e-06
1.20636e-06
1.20773e-06
1.20717e-06
1.20812e-06
1.20854e-06
1.21026e-06
1.20913e-06
1.20456e-06
1.20247e-06
1.20553e-06
1.20325e-06
1.20629e-06
1.20919e-06
1.21177e-06
1.21186e-06
1.20905e-06
1.21286e-06
1.21449e-06
1.21275e-06
1.21963e-06
1.21994e-06
1.22015e-06
1.21834e-06
1.22147e-06
1.22146e-06
1.22093e-06
1.22095e-06
1.22265e-06
1.22446e-06
1.22562e-06
1.22464e-06
1.22342e-06
1.22243e-06
1.22148e-06
1.22477e-06
1.22027e-06
)
;

boundaryField
{
    inlet
    {
        type            calculated;
        value           uniform -1.225e-06;
    }
    outlet
    {
        type            calculated;
        value           uniform 1.22087e-06;
    }
    yzfaces
    {
        type            empty;
    }
}


// ************************************************************************* //
