/*--------------------------------*- C++ -*----------------------------------*\
| =========                 |                                                 |
| \\      /  F ield         | foam-extend: Open Source CFD                    |
|  \\    /   O peration     | Version:     5.0                                |
|   \\  /    A nd           | Web:         http://www.foam-extend.org         |
|    \\/     M anipulation  |                                                 |
\*---------------------------------------------------------------------------*/
FoamFile
{
    version     2.0;
    format      ascii;
    class       surfaceScalarField;
    location    "10";
    object      phi.water;
}
// * * * * * * * * * * * * * * * * * * * * * * * * * * * * * * * * * * * * * //

dimensions      [0 3 -1 0 0 0 0];

internalField   nonuniform List<scalar> 
99
(
6.31449e-08
1.03133e-07
1.5164e-07
1.64439e-07
1.78947e-07
2.10089e-07
2.59937e-07
2.97881e-07
3.26432e-07
3.31292e-07
3.32887e-07
3.50051e-07
3.88652e-07
4.38105e-07
4.67558e-07
5.00256e-07
5.25458e-07
5.64871e-07
6.04494e-07
6.38624e-07
6.7777e-07
6.97115e-07
7.33623e-07
7.57445e-07
7.85832e-07
8.12708e-07
8.3626e-07
8.61367e-07
8.94014e-07
9.23655e-07
9.46009e-07
9.61034e-07
9.60547e-07
9.65302e-07
9.62539e-07
9.87374e-07
1.00834e-06
1.02458e-06
1.05168e-06
1.08353e-06
1.12156e-06
1.14458e-06
1.17955e-06
1.21582e-06
1.22824e-06
1.24415e-06
1.26514e-06
1.28942e-06
1.31609e-06
1.33511e-06
1.3501e-06
1.37811e-06
1.40177e-06
1.42671e-06
1.44806e-06
1.46933e-06
1.49495e-06
1.51653e-06
1.53593e-06
1.55811e-06
1.56716e-06
1.58686e-06
1.60501e-06
1.62934e-06
1.65677e-06
1.67907e-06
1.70331e-06
1.7234e-06
1.74612e-06
1.76217e-06
1.77208e-06
1.7872e-06
1.81111e-06
1.82561e-06
1.85469e-06
1.88841e-06
1.91186e-06
1.93569e-06
1.94493e-06
1.97906e-06
2.00363e-06
2.02217e-06
2.06031e-06
2.08024e-06
2.10969e-06
2.12569e-06
2.15048e-06
2.17281e-06
2.19303e-06
2.2104e-06
2.23662e-06
2.26695e-06
2.28937e-06
2.30098e-06
2.31738e-06
2.33568e-06
2.34961e-06
2.37774e-06
2.38233e-06
)
;

boundaryField
{
    inlet
    {
        type            fixedValue;
        value           uniform 0;
    }
    outlet
    {
        type            calculated;
        value           uniform 2.4017e-06;
    }
    yzfaces
    {
        type            empty;
    }
}


// ************************************************************************* //
