/*--------------------------------*- C++ -*----------------------------------*\
| =========                 |                                                 |
| \\      /  F ield         | foam-extend: Open Source CFD                    |
|  \\    /   O peration     | Version:     5.0                                |
|   \\  /    A nd           | Web:         http://www.foam-extend.org         |
|    \\/     M anipulation  |                                                 |
\*---------------------------------------------------------------------------*/
FoamFile
{
    version     2.0;
    format      ascii;
    class       volVectorField;
    location    "10";
    object      U.gas;
}
// * * * * * * * * * * * * * * * * * * * * * * * * * * * * * * * * * * * * * //

dimensions      [0 1 -1 0 0 0 0];

internalField   nonuniform List<vector> 
100
(
(0.00588881 0 0)
(0.00625451 0 0)
(0.00664296 0 0)
(0.00678917 0 0)
(0.00689302 0 0)
(0.00711559 0 0)
(0.00742263 0 0)
(0.00764226 0 0)
(0.00779911 0 0)
(0.00783592 0 0)
(0.00786555 0 0)
(0.0079355 0 0)
(0.00808287 0 0)
(0.00827915 0 0)
(0.00842144 0 0)
(0.0085561 0 0)
(0.00866982 0 0)
(0.00882296 0 0)
(0.00899649 0 0)
(0.00916855 0 0)
(0.00933696 0 0)
(0.00942565 0 0)
(0.00957415 0 0)
(0.00966443 0 0)
(0.00976394 0 0)
(0.00985743 0 0)
(0.00993724 0 0)
(0.0100021 0 0)
(0.0100965 0 0)
(0.0101981 0 0)
(0.0102945 0 0)
(0.0104028 0 0)
(0.0104292 0 0)
(0.0104416 0 0)
(0.0104279 0 0)
(0.0104897 0 0)
(0.0105368 0 0)
(0.0105512 0 0)
(0.0106038 0 0)
(0.0106819 0 0)
(0.0107845 0 0)
(0.010861 0 0)
(0.0109399 0 0)
(0.0110411 0 0)
(0.0110914 0 0)
(0.0111161 0 0)
(0.0111538 0 0)
(0.0111934 0 0)
(0.0112635 0 0)
(0.0113329 0 0)
(0.0113727 0 0)
(0.0114334 0 0)
(0.0115058 0 0)
(0.0115692 0 0)
(0.0116182 0 0)
(0.011654 0 0)
(0.0117106 0 0)
(0.0117646 0 0)
(0.0118174 0 0)
(0.0118583 0 0)
(0.0118746 0 0)
(0.0119017 0 0)
(0.0119344 0 0)
(0.0119855 0 0)
(0.0120395 0 0)
(0.012078 0 0)
(0.0121166 0 0)
(0.0121518 0 0)
(0.0121958 0 0)
(0.0122245 0 0)
(0.0122179 0 0)
(0.0122116 0 0)
(0.0122469 0 0)
(0.0122768 0 0)
(0.0123199 0 0)
(0.0123928 0 0)
(0.0124406 0 0)
(0.0124862 0 0)
(0.0124819 0 0)
(0.012534 0 0)
(0.012585 0 0)
(0.0126082 0 0)
(0.012674 0 0)
(0.0127286 0 0)
(0.012767 0 0)
(0.0127707 0 0)
(0.0127971 0 0)
(0.012839 0 0)
(0.0128577 0 0)
(0.0128664 0 0)
(0.0129074 0 0)
(0.0129523 0 0)
(0.0129807 0 0)
(0.0129838 0 0)
(0.0129924 0 0)
(0.0129999 0 0)
(0.0129975 0 0)
(0.0130315 0 0)
(0.0130278 0 0)
(0.0130136 0 0)
)
;

boundaryField
{
    inlet
    {
        type            fixedValue;
        value           uniform (0.005 0 0);
    }
    outlet
    {
        type            zeroGradient;
    }
    yzfaces
    {
        type            empty;
    }
}


// ************************************************************************* //
