/*--------------------------------*- C++ -*----------------------------------*\
| =========                 |                                                 |
| \\      /  F ield         | foam-extend: Open Source CFD                    |
|  \\    /   O peration     | Version:     5.0                                |
|   \\  /    A nd           | Web:         http://www.foam-extend.org         |
|    \\/     M anipulation  |                                                 |
\*---------------------------------------------------------------------------*/
FoamFile
{
    version     2.0;
    format      ascii;
    class       volVectorField;
    location    "10";
    object      U.water;
}
// * * * * * * * * * * * * * * * * * * * * * * * * * * * * * * * * * * * * * //

dimensions      [0 1 -1 0 0 0 0];

internalField   nonuniform List<vector> 
100
(
(3.03036e-05 0 0)
(6.88618e-05 0 0)
(0.00010208 0 0)
(0.000129478 0 0)
(0.000141837 0 0)
(0.000160167 0 0)
(0.000191129 0 0)
(0.000226908 0 0)
(0.000253173 0 0)
(0.000268888 0 0)
(0.000272864 0 0)
(0.000280898 0 0)
(0.000302287 0 0)
(0.000336703 0 0)
(0.000369741 0 0)
(0.000394957 0 0)
(0.000419494 0 0)
(0.000444899 0 0)
(0.000476689 0 0)
(0.000507114 0 0)
(0.000535908 0 0)
(0.000561782 0 0)
(0.000583356 0 0)
(0.000608748 0 0)
(0.000629899 0 0)
(0.000652735 0 0)
(0.00067324 0 0)
(0.000693044 0 0)
(0.000715983 0 0)
(0.000740487 0 0)
(0.000761709 0 0)
(0.000777167 0 0)
(0.000784423 0 0)
(0.000786162 0 0)
(0.00078836 0 0)
(0.000796124 0 0)
(0.000815077 0 0)
(0.000830912 0 0)
(0.000848363 0 0)
(0.000871735 0 0)
(0.000899584 0 0)
(0.0009251 0 0)
(0.000947963 0 0)
(0.00097657 0 0)
(0.00099778 0 0)
(0.00100984 0 0)
(0.00102439 0 0)
(0.00104231 0 0)
(0.00106265 0 0)
(0.00108195 0 0)
(0.0010961 0 0)
(0.0011131 0 0)
(0.00113443 0 0)
(0.00115438 0 0)
(0.00117331 0 0)
(0.0011906 0 0)
(0.00120912 0 0)
(0.00122906 0 0)
(0.00124577 0 0)
(0.00126251 0 0)
(0.00127604 0 0)
(0.00128765 0 0)
(0.00130319 0 0)
(0.00132014 0 0)
(0.00134106 0 0)
(0.0013615 0 0)
(0.00138025 0 0)
(0.00139826 0 0)
(0.00141558 0 0)
(0.00143211 0 0)
(0.00144341 0 0)
(0.00145325 0 0)
(0.00146852 0 0)
(0.00148438 0 0)
(0.00150193 0 0)
(0.001527 0 0)
(0.00155102 0 0)
(0.00157016 0 0)
(0.00158474 0 0)
(0.00160106 0 0)
(0.00162515 0 0)
(0.00164317 0 0)
(0.00166532 0 0)
(0.00168993 0 0)
(0.00170978 0 0)
(0.00172867 0 0)
(0.00174553 0 0)
(0.00176446 0 0)
(0.00178163 0 0)
(0.00179756 0 0)
(0.00181486 0 0)
(0.00183742 0 0)
(0.00185915 0 0)
(0.0018741 0 0)
(0.00188528 0 0)
(0.00189893 0 0)
(0.0019125 0 0)
(0.00192922 0 0)
(0.00194309 0 0)
(0.00195208 0 0)
)
;

boundaryField
{
    inlet
    {
        type            fixedValue;
        value           uniform (0 0 0);
    }
    outlet
    {
        type            zeroGradient;
    }
    yzfaces
    {
        type            empty;
    }
}


// ************************************************************************* //
