/*--------------------------------*- C++ -*----------------------------------*\
| =========                 |                                                 |
| \\      /  F ield         | foam-extend: Open Source CFD                    |
|  \\    /   O peration     | Version:     5.0                                |
|   \\  /    A nd           | Web:         http://www.foam-extend.org         |
|    \\/     M anipulation  |                                                 |
\*---------------------------------------------------------------------------*/
FoamFile
{
    version     2.0;
    format      ascii;
    class       volScalarField;
    location    "6";
    object      Cl.water;
}
// * * * * * * * * * * * * * * * * * * * * * * * * * * * * * * * * * * * * * //

dimensions      [0 0 0 0 0 0 0];

internalField   nonuniform List<scalar> 
100
(
0.0045961
0.00617656
0.00719447
0.00776941
0.00826897
0.00895004
0.0095859
0.0100333
0.0104509
0.010888
0.0112221
0.0115594
0.0118072
0.0120845
0.0122922
0.0125424
0.012766
0.0129303
0.0130067
0.0131063
0.0132686
0.0134078
0.0135874
0.0137581
0.0139309
0.0140558
0.0141607
0.0142672
0.0143502
0.0144484
0.0145662
0.0146661
0.014766
0.0148542
0.0149442
0.0150373
0.0151164
0.0151884
0.0152843
0.0153556
0.0154455
0.0155176
0.0155913
0.0156786
0.0157545
0.015825
0.0158911
0.0159527
0.0160322
0.0161114
0.0161756
0.0162329
0.016309
0.0163725
0.0164438
0.0165006
0.0165486
0.0166101
0.0166562
0.016719
0.0167781
0.0168288
0.0168882
0.0169446
0.0169983
0.0170485
0.0171098
0.0171599
0.0172146
0.0172654
0.0173262
0.0173964
0.0174538
0.0175097
0.0175741
0.0176434
0.0177132
0.0177808
0.0178468
0.017927
0.0179798
0.0180407
0.0181083
0.0181886
0.0182456
0.0183228
0.0183928
0.0184659
0.0185398
0.0186192
0.0187034
0.0187817
0.0188723
0.018971
0.019071
0.019186
0.0192973
0.0194303
0.0195657
0.0197265
)
;

boundaryField
{
    inlet
    {
        type            fixedValue;
        value           uniform 0;
    }
    outlet
    {
        type            zeroGradient;
    }
    yzfaces
    {
        type            empty;
    }
}


// ************************************************************************* //
