/*--------------------------------*- C++ -*----------------------------------*\
| =========                 |                                                 |
| \\      /  F ield         | foam-extend: Open Source CFD                    |
|  \\    /   O peration     | Version:     5.0                                |
|   \\  /    A nd           | Web:         http://www.foam-extend.org         |
|    \\/     M anipulation  |                                                 |
\*---------------------------------------------------------------------------*/
FoamFile
{
    version     2.0;
    format      ascii;
    class       volScalarField;
    location    "6";
    object      CO2.gas;
}
// * * * * * * * * * * * * * * * * * * * * * * * * * * * * * * * * * * * * * //

dimensions      [0 0 0 0 0 0 0];

internalField   nonuniform List<scalar> 
100
(
0.159664
0.145949
0.137113
0.132145
0.127773
0.12187
0.116327
0.112429
0.108799
0.104996
0.102093
0.0992058
0.097034
0.0946262
0.0927907
0.0906139
0.0886603
0.0872566
0.0865903
0.0857187
0.0843265
0.0831092
0.081561
0.0800944
0.0785956
0.0774896
0.0765678
0.0756632
0.0749539
0.0740644
0.0730211
0.072134
0.0712694
0.070516
0.0697396
0.0689706
0.0682778
0.0676309
0.0668184
0.0662064
0.0653997
0.0647839
0.0641421
0.0633779
0.0627078
0.0620731
0.0615043
0.0609598
0.06029
0.0595968
0.0590405
0.0585339
0.0579033
0.0573564
0.0567432
0.056243
0.0558044
0.055268
0.0548452
0.0543017
0.0538155
0.0533513
0.0528802
0.0523999
0.0519358
0.051467
0.0509366
0.0504456
0.0499489
0.0494959
0.0489648
0.0483482
0.0478387
0.0473496
0.0468106
0.0462381
0.0456511
0.045057
0.0418595
0.0388646
0.0360411
0.0332503
0.0305007
0.0277907
0.025232
0.0227305
0.0203733
0.0181242
0.0160192
0.014042
0.012203
0.0105139
0.00895658
0.00754097
0.00626422
0.00512313
0.00412487
0.00325287
0.00250781
0.00187541
)
;

boundaryField
{
    inlet
    {
        type            fixedValue;
        value           uniform 0.2;
    }
    outlet
    {
        type            zeroGradient;
    }
    yzfaces
    {
        type            empty;
    }
}


// ************************************************************************* //
