/*--------------------------------*- C++ -*----------------------------------*\
| =========                 |                                                 |
| \\      /  F ield         | foam-extend: Open Source CFD                    |
|  \\    /   O peration     | Version:     5.0                                |
|   \\  /    A nd           | Web:         http://www.foam-extend.org         |
|    \\/     M anipulation  |                                                 |
\*---------------------------------------------------------------------------*/
FoamFile
{
    version     2.0;
    format      ascii;
    class       volScalarField;
    location    "6";
    object      H2O.gas;
}
// * * * * * * * * * * * * * * * * * * * * * * * * * * * * * * * * * * * * * //

dimensions      [0 0 0 0 0 0 0];

internalField   nonuniform List<scalar> 
100
(
0.000311547
0.000284786
0.000267544
0.000257851
0.000249321
0.000237801
0.000226985
0.000219379
0.000212297
0.000204876
0.00019921
0.000193577
0.00018934
0.000184641
0.00018106
0.000176812
0.000173
0.000170261
0.000168961
0.00016726
0.000164544
0.000162169
0.000159148
0.000156286
0.000153361
0.000151203
0.000149405
0.000147639
0.000146255
0.00014452
0.000142484
0.000140753
0.000139066
0.000137596
0.000136081
0.00013458
0.000133228
0.000131966
0.000130381
0.000129187
0.000127613
0.000126411
0.000125159
0.000123668
0.00012236
0.000121121
0.000120012
0.000118949
0.000117642
0.00011629
0.000115204
0.000114215
0.000112985
0.000111918
0.000110721
0.000109745
0.00010889
0.000107843
0.000107018
0.000105957
0.000105009
0.000104103
0.000103184
0.000102246
0.000101341
0.000100426
9.9391e-05
9.8433e-05
9.74638e-05
9.658e-05
9.55435e-05
9.43404e-05
9.33462e-05
9.2392e-05
9.13403e-05
9.02231e-05
8.90777e-05
8.79184e-05
0.00270458
0.00507588
0.00738133
0.00962983
0.0118147
0.0138843
0.015893
0.0177585
0.0194976
0.021096
0.0225501
0.0238471
0.024968
0.0259373
0.0267139
0.0273087
0.0277
0.0278802
0.0278804
0.0276299
0.0271834
0.0264783
)
;

boundaryField
{
    inlet
    {
        type            fixedValue;
        value           uniform 0;
    }
    outlet
    {
        type            zeroGradient;
    }
    yzfaces
    {
        type            empty;
    }
}


// ************************************************************************* //
