/*--------------------------------*- C++ -*----------------------------------*\
| =========                 |                                                 |
| \\      /  F ield         | foam-extend: Open Source CFD                    |
|  \\    /   O peration     | Version:     5.0                                |
|   \\  /    A nd           | Web:         http://www.foam-extend.org         |
|    \\/     M anipulation  |                                                 |
\*---------------------------------------------------------------------------*/
FoamFile
{
    version     2.0;
    format      ascii;
    class       volScalarField;
    location    "6";
    object      Ns;
}
// * * * * * * * * * * * * * * * * * * * * * * * * * * * * * * * * * * * * * //

dimensions      [0 -3 0 0 1 0 0];

internalField   nonuniform List<scalar> 
100
(
56.05
101.065
121.043
188.626
231.794
152.196
132.347
151.786
77.3257
106.17
121.201
68.0421
85.5507
119.504
87.0385
101.588
86.1682
91.8825
120.27
111.425
110.385
106.905
78.7768
109.97
86.6927
120.166
86.903
117.711
116.277
138.15
100.59
126.066
124.051
125.272
115.833
114.295
109.307
112.222
118.796
121.292
139.209
113.236
125.846
122.946
102.564
111.408
114.024
123.539
126.705
136.765
127.646
124.882
109.497
122.986
125.225
137.982
117.524
133.269
107.053
114.899
106.845
112.789
106.041
120.337
109.18
130.495
109.554
119.994
118.907
122.061
116.593
106.743
121.824
120.655
111.704
116.515
119.374
122.041
171.247
173.451
173.957
173.2
169.564
174.915
169.368
175.683
179.073
173.061
175.245
176.828
171.079
170.587
168.979
172.008
176.415
171.08
171.871
172.793
165.277
174.618
)
;

boundaryField
{
    inlet
    {
        type            fixedValue;
        value           uniform 0;
    }
    outlet
    {
        type            zeroGradient;
    }
    yzfaces
    {
        type            empty;
    }
}


// ************************************************************************* //
