/*--------------------------------*- C++ -*----------------------------------*\
| =========                 |                                                 |
| \\      /  F ield         | foam-extend: Open Source CFD                    |
|  \\    /   O peration     | Version:     5.0                                |
|   \\  /    A nd           | Web:         http://www.foam-extend.org         |
|    \\/     M anipulation  |                                                 |
\*---------------------------------------------------------------------------*/
FoamFile
{
    version     2.0;
    format      ascii;
    class       volVectorField;
    location    "6";
    object      U.gas;
}
// * * * * * * * * * * * * * * * * * * * * * * * * * * * * * * * * * * * * * //

dimensions      [0 1 -1 0 0 0 0];

internalField   nonuniform List<vector> 
100
(
(0.00625259 0 0)
(0.00680498 0 0)
(0.0072351 0 0)
(0.00750402 0 0)
(0.00767892 0 0)
(0.00798198 0 0)
(0.00827456 0 0)
(0.00847131 0 0)
(0.00870838 0 0)
(0.0089828 0 0)
(0.00916346 0 0)
(0.00934076 0 0)
(0.00948947 0 0)
(0.00968788 0 0)
(0.00984032 0 0)
(0.0100152 0 0)
(0.0101901 0 0)
(0.0103429 0 0)
(0.0104315 0 0)
(0.0105009 0 0)
(0.0105847 0 0)
(0.0106629 0 0)
(0.0107646 0 0)
(0.0108614 0 0)
(0.0110274 0 0)
(0.0111604 0 0)
(0.0112461 0 0)
(0.0113423 0 0)
(0.0114157 0 0)
(0.0114864 0 0)
(0.0115447 0 0)
(0.0116014 0 0)
(0.0116835 0 0)
(0.0117642 0 0)
(0.0118649 0 0)
(0.0119426 0 0)
(0.0119943 0 0)
(0.0120378 0 0)
(0.012117 0 0)
(0.0121277 0 0)
(0.0121808 0 0)
(0.0122106 0 0)
(0.0122443 0 0)
(0.0123116 0 0)
(0.0123667 0 0)
(0.0124282 0 0)
(0.0124871 0 0)
(0.0125221 0 0)
(0.0125592 0 0)
(0.0126248 0 0)
(0.0126646 0 0)
(0.0126791 0 0)
(0.0127207 0 0)
(0.01274 0 0)
(0.012786 0 0)
(0.0128141 0 0)
(0.0128101 0 0)
(0.0128318 0 0)
(0.0128373 0 0)
(0.0128807 0 0)
(0.0129024 0 0)
(0.0129122 0 0)
(0.0129294 0 0)
(0.0129425 0 0)
(0.0129426 0 0)
(0.0129496 0 0)
(0.0129728 0 0)
(0.0129865 0 0)
(0.0129957 0 0)
(0.0129776 0 0)
(0.0129629 0 0)
(0.012957 0 0)
(0.0129438 0 0)
(0.012903 0 0)
(0.0128588 0 0)
(0.0128255 0 0)
(0.0127857 0 0)
(0.0127664 0 0)
(0.0127569 0 0)
(0.0127584 0 0)
(0.012746 0 0)
(0.0127348 0 0)
(0.012718 0 0)
(0.0127176 0 0)
(0.0126932 0 0)
(0.0126715 0 0)
(0.0126387 0 0)
(0.0126006 0 0)
(0.0125375 0 0)
(0.0124897 0 0)
(0.012453 0 0)
(0.0123932 0 0)
(0.0123234 0 0)
(0.0122411 0 0)
(0.0121394 0 0)
(0.0120279 0 0)
(0.0119012 0 0)
(0.0117574 0 0)
(0.0115713 0 0)
(0.0113573 0 0)
)
;

boundaryField
{
    inlet
    {
        type            fixedValue;
        value           uniform (0.005 0 0);
    }
    outlet
    {
        type            zeroGradient;
    }
    yzfaces
    {
        type            empty;
    }
}


// ************************************************************************* //
