/*--------------------------------*- C++ -*----------------------------------*\
| =========                 |                                                 |
| \\      /  F ield         | foam-extend: Open Source CFD                    |
|  \\    /   O peration     | Version:     5.0                                |
|   \\  /    A nd           | Web:         http://www.foam-extend.org         |
|    \\/     M anipulation  |                                                 |
\*---------------------------------------------------------------------------*/
FoamFile
{
    version     2.0;
    format      ascii;
    class       volVectorField;
    location    "6";
    object      U.water;
}
// * * * * * * * * * * * * * * * * * * * * * * * * * * * * * * * * * * * * * //

dimensions      [0 1 -1 0 0 0 0];

internalField   nonuniform List<vector> 
100
(
(4.43132e-05 0 0)
(0.000103436 0 0)
(0.000154352 0 0)
(0.00019516 0 0)
(0.000223608 0 0)
(0.00025698 0 0)
(0.000301465 0 0)
(0.000345691 0 0)
(0.000384557 0 0)
(0.0004267 0 0)
(0.000469644 0 0)
(0.000507827 0 0)
(0.000546196 0 0)
(0.000582245 0 0)
(0.000620504 0 0)
(0.00065541 0 0)
(0.000696661 0 0)
(0.000735828 0 0)
(0.000763102 0 0)
(0.000778488 0 0)
(0.000799236 0 0)
(0.000828624 0 0)
(0.000858099 0 0)
(0.000894068 0 0)
(0.000935599 0 0)
(0.000976511 0 0)
(0.0010069 0 0)
(0.00103534 0 0)
(0.00106203 0 0)
(0.00108564 0 0)
(0.00111271 0 0)
(0.0011434 0 0)
(0.00117372 0 0)
(0.00120431 0 0)
(0.00123489 0 0)
(0.00126428 0 0)
(0.00129109 0 0)
(0.00131565 0 0)
(0.00134383 0 0)
(0.00136942 0 0)
(0.00139417 0 0)
(0.00142371 0 0)
(0.00144806 0 0)
(0.00147726 0 0)
(0.00151036 0 0)
(0.00154166 0 0)
(0.00157182 0 0)
(0.00159765 0 0)
(0.00162385 0 0)
(0.00165824 0 0)
(0.00169029 0 0)
(0.00171477 0 0)
(0.0017421 0 0)
(0.00177189 0 0)
(0.00180221 0 0)
(0.00183218 0 0)
(0.00185453 0 0)
(0.00187903 0 0)
(0.0019045 0 0)
(0.00193115 0 0)
(0.00196178 0 0)
(0.00198815 0 0)
(0.00201394 0 0)
(0.00204094 0 0)
(0.00206719 0 0)
(0.00209199 0 0)
(0.00212108 0 0)
(0.00215366 0 0)
(0.00218336 0 0)
(0.00220911 0 0)
(0.00223316 0 0)
(0.00226506 0 0)
(0.00230064 0 0)
(0.00232527 0 0)
(0.00234942 0 0)
(0.00237842 0 0)
(0.00241003 0 0)
(0.00244658 0 0)
(0.00248573 0 0)
(0.00252834 0 0)
(0.00257125 0 0)
(0.00260848 0 0)
(0.00264805 0 0)
(0.0026933 0 0)
(0.00273859 0 0)
(0.00278229 0 0)
(0.00282917 0 0)
(0.00287458 0 0)
(0.00292028 0 0)
(0.0029711 0 0)
(0.00302716 0 0)
(0.00308468 0 0)
(0.00314251 0 0)
(0.00320418 0 0)
(0.00326922 0 0)
(0.00334188 0 0)
(0.00342094 0 0)
(0.00350607 0 0)
(0.00359802 0 0)
(0.00369678 0 0)
)
;

boundaryField
{
    inlet
    {
        type            fixedValue;
        value           uniform (0 0 0);
    }
    outlet
    {
        type            zeroGradient;
    }
    yzfaces
    {
        type            empty;
    }
}


// ************************************************************************* //
