/*--------------------------------*- C++ -*----------------------------------*\
| =========                 |                                                 |
| \\      /  F ield         | foam-extend: Open Source CFD                    |
|  \\    /   O peration     | Version:     5.0                                |
|   \\  /    A nd           | Web:         http://www.foam-extend.org         |
|    \\/     M anipulation  |                                                 |
\*---------------------------------------------------------------------------*/
FoamFile
{
    version     2.0;
    format      ascii;
    class       volScalarField;
    location    "4";
    object      alpha.gas;
}
// * * * * * * * * * * * * * * * * * * * * * * * * * * * * * * * * * * * * * //

dimensions      [0 0 0 0 0 0 0];

internalField   nonuniform List<scalar> 
100
(
0.146971
0.133796
0.125283
0.117669
0.110221
0.104042
0.0989121
0.0949363
0.0915254
0.0875955
0.0853563
0.0847631
0.0825448
0.0798105
0.077986
0.0759572
0.0744231
0.0725806
0.0714273
0.0702284
0.0685031
0.0672919
0.065989
0.0646917
0.0629584
0.0617681
0.0605616
0.0593109
0.0578801
0.056461
0.0547152
0.0528753
0.0506983
0.0478422
0.0437389
0.036885
0.0223382
0.0241745
0.0247137
0.0248689
0.024927
0.024977
0.0250447
0.0251257
0.0252248
0.0253032
0.0253603
0.0254164
0.0254456
0.025455
0.0254373
0.0253921
0.0253116
0.0252146
0.0250629
0.0248801
0.0246201
0.0242932
0.0238584
0.0233362
0.0226891
0.0218897
0.0209202
0.019809
0.0185537
0.0171967
0.0158137
0.0144749
0.0132762
0.0122829
0.0115249
0.0109816
0.0106167
0.0103787
0.010229
0.0101373
0.0100816
0.0100504
0.0100313
0.0100183
0.0100108
0.0100064
0.0100044
0.0100039
0.0100012
0.0100009
0.0100008
0.00999891
0.00999952
0.00999974
0.0100005
0.00999999
0.0100013
0.0100023
0.0100024
0.0100013
0.00999991
0.00999852
0.0099982
0.00999859
)
;

boundaryField
{
    inlet
    {
        type            fixedValue;
        value           uniform 0.2;
    }
    outlet
    {
        type            zeroGradient;
    }
    yzfaces
    {
        type            empty;
    }
}


// ************************************************************************* //
