/*--------------------------------*- C++ -*----------------------------------*\
| =========                 |                                                 |
| \\      /  F ield         | foam-extend: Open Source CFD                    |
|  \\    /   O peration     | Version:     5.0                                |
|   \\  /    A nd           | Web:         http://www.foam-extend.org         |
|    \\/     M anipulation  |                                                 |
\*---------------------------------------------------------------------------*/
FoamFile
{
    version     2.0;
    format      ascii;
    class       volScalarField;
    location    "4";
    object      Cl.water;
}
// * * * * * * * * * * * * * * * * * * * * * * * * * * * * * * * * * * * * * //

dimensions      [0 0 0 0 0 0 0];

internalField   nonuniform List<scalar> 
100
(
0.0105461
0.0135757
0.0155929
0.0171794
0.0184379
0.019531
0.0205328
0.0214523
0.0221066
0.0227919
0.0234164
0.0237862
0.0241494
0.0245384
0.0249611
0.0253414
0.0257065
0.0260082
0.0263507
0.0266365
0.0268931
0.0272042
0.027463
0.0277006
0.0279881
0.0282506
0.0285834
0.0288527
0.029115
0.0293995
0.0297377
0.0301369
0.0305371
0.031148
0.0319932
0.0333896
0.0363641
0.036648
0.0367456
0.0367873
0.0367875
0.0367829
0.0367938
0.0368065
0.036804
0.0367774
0.0367582
0.0368039
0.0367794
0.0367559
0.0367493
0.0367727
0.0367554
0.0367971
0.0368071
0.0368692
0.0368746
0.0369682
0.0370415
0.0371582
0.0373064
0.0374753
0.0376755
0.0379601
0.0382037
0.038504
0.038803
0.0390697
0.039314
0.0395076
0.0396814
0.0397802
0.0398717
0.0399315
0.0399771
0.0400134
0.0400306
0.0400229
0.0400414
0.0400724
0.0400803
0.0400682
0.0400533
0.0400681
0.0400486
0.0400611
0.0400879
0.0400522
0.0400486
0.0400533
0.0400592
0.0400096
0.0400146
0.0399858
0.0400221
0.0399984
0.0399967
0.039995
0.0399907
0.0399853
)
;

boundaryField
{
    inlet
    {
        type            fixedValue;
        value           uniform 0;
    }
    outlet
    {
        type            zeroGradient;
    }
    yzfaces
    {
        type            empty;
    }
}


// ************************************************************************* //
