/*--------------------------------*- C++ -*----------------------------------*\
| =========                 |                                                 |
| \\      /  F ield         | foam-extend: Open Source CFD                    |
|  \\    /   O peration     | Version:     5.0                                |
|   \\  /    A nd           | Web:         http://www.foam-extend.org         |
|    \\/     M anipulation  |                                                 |
\*---------------------------------------------------------------------------*/
FoamFile
{
    version     2.0;
    format      ascii;
    class       volScalarField;
    location    "4";
    object      CO2.water;
}
// * * * * * * * * * * * * * * * * * * * * * * * * * * * * * * * * * * * * * //

dimensions      [0 0 0 0 0 0 0];

internalField   nonuniform List<scalar> 
100
(
0.00139279
0.00173881
0.00196242
0.0021624
0.002358
0.0025203
0.00265503
0.00275945
0.00284904
0.00295225
0.00301106
0.00302664
0.00308491
0.00315672
0.00320464
0.00325793
0.00329822
0.00334661
0.0033769
0.00340839
0.0034537
0.00348552
0.00351974
0.00355381
0.00359933
0.0036306
0.00366228
0.00369514
0.00373271
0.00376999
0.00381584
0.00386416
0.00392134
0.00399635
0.00410412
0.00428414
0.00466621
0.00163194
0.000593126
0.000219808
8.19537e-05
3.04722e-05
1.12812e-05
4.1559e-06
1.52529e-06
5.57438e-07
2.03491e-07
7.44281e-08
2.71934e-08
9.95177e-09
3.65251e-09
1.34507e-09
4.97955e-10
1.86186e-10
7.03899e-11
2.70696e-11
1.0617e-11
4.28616e-12
1.7861e-12
7.71835e-13
3.46445e-13
1.61079e-13
7.73821e-14
3.82627e-14
1.92953e-14
9.87686e-15
5.09254e-15
2.62522e-15
1.34801e-15
6.86413e-16
3.45517e-16
1.71534e-16
8.41058e-17
4.06595e-17
1.9397e-17
9.13909e-18
4.25388e-18
1.95348e-18
8.87122e-19
3.97925e-19
1.76365e-19
7.71484e-20
3.32836e-20
1.41629e-20
5.92361e-21
2.43765e-21
9.86031e-22
3.92076e-22
1.53785e-22
5.95924e-23
2.2914e-23
8.77814e-24
3.37135e-24
1.2989e-24
5.02418e-25
1.93737e-25
7.43092e-26
2.81434e-26
1.04343e-26
3.7674e-27
)
;

boundaryField
{
    inlet
    {
        type            fixedValue;
        value           uniform 0;
    }
    outlet
    {
        type            zeroGradient;
    }
    yzfaces
    {
        type            empty;
    }
}


// ************************************************************************* //
