/*--------------------------------*- C++ -*----------------------------------*\
| =========                 |                                                 |
| \\      /  F ield         | foam-extend: Open Source CFD                    |
|  \\    /   O peration     | Version:     5.0                                |
|   \\  /    A nd           | Web:         http://www.foam-extend.org         |
|    \\/     M anipulation  |                                                 |
\*---------------------------------------------------------------------------*/
FoamFile
{
    version     2.0;
    format      ascii;
    class       volScalarField;
    location    "4";
    object      CO2.gas;
}
// * * * * * * * * * * * * * * * * * * * * * * * * * * * * * * * * * * * * * //

dimensions      [0 0 0 0 0 0 0];

internalField   nonuniform List<scalar> 
100
(
0.146684
0.133536
0.125039
0.117439
0.110006
0.103839
0.0987194
0.0947514
0.0913472
0.0874249
0.0851901
0.0845981
0.0823841
0.0796551
0.0778342
0.0758093
0.0742782
0.0724393
0.0712882
0.0700917
0.0683697
0.0671608
0.0658605
0.0645657
0.0628358
0.0616478
0.0604437
0.0591954
0.0577674
0.0563511
0.0546086
0.0527724
0.0505995
0.047749
0.0436538
0.0368132
0.0222947
0.0233332
0.0230248
0.0222505
0.0212834
0.0202321
0.0191425
0.0180011
0.0168219
0.0155767
0.0142986
0.0130399
0.0117573
0.0104979
0.00927856
0.00811184
0.00699932
0.0059748
0.00502439
0.00416978
0.0033952
0.00271743
0.00212535
0.00162114
0.00120025
0.000857506
0.000587462
0.000383504
0.000235636
0.000135216
7.16841e-05
3.4773e-05
1.53824e-05
6.22108e-06
2.32449e-06
8.14713e-07
2.73491e-07
8.92062e-08
2.87271e-08
9.24063e-09
2.99312e-09
9.80734e-10
3.27991e-10
1.11985e-10
3.91415e-11
1.43688e-11
5.13709e-12
1.75956e-12
6.02673e-13
2.06088e-13
7.06443e-14
2.41929e-14
8.29104e-15
2.83597e-15
9.71014e-16
3.32721e-16
1.1392e-16
3.90189e-17
1.3358e-17
4.56596e-18
1.56384e-18
5.35367e-19
1.83598e-19
7.57806e-20
)
;

boundaryField
{
    inlet
    {
        type            fixedValue;
        value           uniform 0.2;
    }
    outlet
    {
        type            zeroGradient;
    }
    yzfaces
    {
        type            empty;
    }
}


// ************************************************************************* //
