/*--------------------------------*- C++ -*----------------------------------*\
| =========                 |                                                 |
| \\      /  F ield         | foam-extend: Open Source CFD                    |
|  \\    /   O peration     | Version:     5.0                                |
|   \\  /    A nd           | Web:         http://www.foam-extend.org         |
|    \\/     M anipulation  |                                                 |
\*---------------------------------------------------------------------------*/
FoamFile
{
    version     2.0;
    format      ascii;
    class       volScalarField;
    location    "4";
    object      H2O.gas;
}
// * * * * * * * * * * * * * * * * * * * * * * * * * * * * * * * * * * * * * //

dimensions      [0 0 0 0 0 0 0];

internalField   nonuniform List<scalar> 
100
(
0.000286221
0.000260564
0.000243984
0.000229156
0.000214652
0.000202618
0.000192628
0.000184886
0.000178243
0.00017059
0.000166229
0.000165074
0.000160754
0.000155429
0.000151876
0.000147925
0.000144937
0.000141349
0.000139103
0.000136768
0.000133408
0.000131049
0.000128512
0.000125985
0.00012261
0.000120292
0.000117942
0.000115506
0.00011272
0.000109956
0.000106556
0.000102973
9.87334e-05
9.31713e-05
8.51803e-05
7.18326e-05
4.3503e-05
0.000839198
0.00167556
0.00259987
0.00361033
0.004705
0.00587688
0.00711496
0.0084054
0.00972342
0.011053
0.0124037
0.013704
0.0149553
0.016155
0.0172855
0.0182913
0.0192373
0.0200265
0.0207156
0.0212042
0.0215735
0.0217244
0.0217102
0.0214892
0.0210303
0.0203296
0.0194432
0.0183221
0.0170713
0.0157495
0.0144407
0.0132589
0.0122725
0.0115228
0.0109806
0.0106206
0.0103848
0.010238
0.0101479
0.0100944
0.0100584
0.0100433
0.0100351
0.0100282
0.0100202
0.0100147
0.010018
0.0100073
0.0100111
0.01002
0.0100087
0.0100068
0.0100096
0.0100115
0.0100016
0.0100048
0.0099997
0.0100085
0.0100022
0.0100002
0.00999975
0.00999578
0.00999467
)
;

boundaryField
{
    inlet
    {
        type            fixedValue;
        value           uniform 0;
    }
    outlet
    {
        type            zeroGradient;
    }
    yzfaces
    {
        type            empty;
    }
}


// ************************************************************************* //
