/*--------------------------------*- C++ -*----------------------------------*\
| =========                 |                                                 |
| \\      /  F ield         | foam-extend: Open Source CFD                    |
|  \\    /   O peration     | Version:     5.0                                |
|   \\  /    A nd           | Web:         http://www.foam-extend.org         |
|    \\/     M anipulation  |                                                 |
\*---------------------------------------------------------------------------*/
FoamFile
{
    version     2.0;
    format      ascii;
    class       volScalarField;
    location    "4";
    object      Na.water;
}
// * * * * * * * * * * * * * * * * * * * * * * * * * * * * * * * * * * * * * //

dimensions      [0 0 0 0 0 0 0];

internalField   nonuniform List<scalar> 
100
(
0.0105455
0.0135793
0.0156102
0.0171961
0.0184533
0.0195328
0.0205375
0.0214536
0.0221318
0.0228135
0.0234513
0.0238082
0.0241707
0.0245524
0.0249736
0.0253645
0.0257293
0.0260301
0.026364
0.0266445
0.0269036
0.0272099
0.0274793
0.0277206
0.0280175
0.0282655
0.0285846
0.028867
0.0291095
0.0293956
0.029731
0.0301149
0.0305327
0.0311603
0.0319975
0.0334012
0.0363833
0.0366601
0.0367528
0.0367934
0.0367907
0.036788
0.0368015
0.0368052
0.0368039
0.0367739
0.0367419
0.0367805
0.0367615
0.0367349
0.0367419
0.0367612
0.0367504
0.0367977
0.0368112
0.0368676
0.0368867
0.0369792
0.0370627
0.0371839
0.0373275
0.0374966
0.0376837
0.0379762
0.0382084
0.0385107
0.0387991
0.0390579
0.0393117
0.039505
0.039679
0.0397907
0.0398811
0.0399415
0.0399826
0.0400169
0.0400381
0.0400256
0.0400386
0.0400566
0.0400553
0.0400372
0.0400314
0.0400488
0.040017
0.0400273
0.0400536
0.0400289
0.0400159
0.0400188
0.0400365
0.0399925
0.040006
0.0399862
0.0400117
0.0399877
0.0399904
0.0399824
0.0399559
0.0399453
)
;

boundaryField
{
    inlet
    {
        type            fixedValue;
        value           uniform 0;
    }
    outlet
    {
        type            zeroGradient;
    }
    yzfaces
    {
        type            empty;
    }
}


// ************************************************************************* //
