/*--------------------------------*- C++ -*----------------------------------*\
| =========                 |                                                 |
| \\      /  F ield         | foam-extend: Open Source CFD                    |
|  \\    /   O peration     | Version:     5.0                                |
|   \\  /    A nd           | Web:         http://www.foam-extend.org         |
|    \\/     M anipulation  |                                                 |
\*---------------------------------------------------------------------------*/
FoamFile
{
    version     2.0;
    format      ascii;
    class       surfaceScalarField;
    location    "4";
    object      phi;
}
// * * * * * * * * * * * * * * * * * * * * * * * * * * * * * * * * * * * * * //

dimensions      [0 3 -1 0 0 0 0];

internalField   nonuniform List<scalar> 
99
(
1.2279e-06
1.21299e-06
1.22142e-06
1.2154e-06
1.20921e-06
1.21175e-06
1.20865e-06
1.20834e-06
1.21028e-06
1.21907e-06
1.22346e-06
1.21913e-06
1.21559e-06
1.21585e-06
1.21647e-06
1.21989e-06
1.21847e-06
1.21895e-06
1.21875e-06
1.2218e-06
1.21951e-06
1.21817e-06
1.21306e-06
1.2115e-06
1.21396e-06
1.21212e-06
1.20958e-06
1.21238e-06
1.21261e-06
1.21326e-06
1.21258e-06
1.21301e-06
1.21123e-06
1.21239e-06
1.2124e-06
1.21172e-06
1.2132e-06
1.21315e-06
1.21202e-06
1.21401e-06
1.21486e-06
1.21549e-06
1.21603e-06
1.21711e-06
1.21571e-06
1.21552e-06
1.21758e-06
1.21549e-06
1.215e-06
1.21342e-06
1.21341e-06
1.21391e-06
1.2152e-06
1.21475e-06
1.21678e-06
1.2151e-06
1.21598e-06
1.2148e-06
1.21609e-06
1.21613e-06
1.21434e-06
1.21463e-06
1.21623e-06
1.21658e-06
1.21626e-06
1.21746e-06
1.2168e-06
1.21684e-06
1.2161e-06
1.21535e-06
1.216e-06
1.21773e-06
1.21769e-06
1.217e-06
1.21804e-06
1.21843e-06
1.21665e-06
1.21714e-06
1.21815e-06
1.21809e-06
1.2178e-06
1.21695e-06
1.21862e-06
1.21829e-06
1.2177e-06
1.21688e-06
1.21838e-06
1.21698e-06
1.2164e-06
1.21416e-06
1.21251e-06
1.2113e-06
1.2102e-06
1.20977e-06
1.21002e-06
1.21034e-06
1.21068e-06
1.20922e-06
1.21095e-06
)
;

boundaryField
{
    inlet
    {
        type            calculated;
        value           uniform -1.225e-06;
    }
    outlet
    {
        type            calculated;
        value           uniform 1.211e-06;
    }
    yzfaces
    {
        type            empty;
    }
}


// ************************************************************************* //
