/*--------------------------------*- C++ -*----------------------------------*\
| =========                 |                                                 |
| \\      /  F ield         | foam-extend: Open Source CFD                    |
|  \\    /   O peration     | Version:     5.0                                |
|   \\  /    A nd           | Web:         http://www.foam-extend.org         |
|    \\/     M anipulation  |                                                 |
\*---------------------------------------------------------------------------*/
FoamFile
{
    version     2.0;
    format      ascii;
    class       surfaceScalarField;
    location    "4";
    object      phi.water;
}
// * * * * * * * * * * * * * * * * * * * * * * * * * * * * * * * * * * * * * //

dimensions      [0 3 -1 0 0 0 0];

internalField   nonuniform List<scalar> 
99
(
1.50764e-07
2.36399e-07
3.07107e-07
3.82753e-07
4.7103e-07
5.63453e-07
6.56917e-07
7.36639e-07
8.09901e-07
9.08045e-07
9.77513e-07
9.9662e-07
1.05555e-06
1.14191e-06
1.20427e-06
1.27719e-06
1.33968e-06
1.41691e-06
1.46321e-06
1.51451e-06
1.593e-06
1.65183e-06
1.71108e-06
1.76922e-06
1.85868e-06
1.93282e-06
1.99506e-06
2.06938e-06
2.15753e-06
2.2497e-06
2.36758e-06
2.49058e-06
2.65064e-06
2.86174e-06
3.18409e-06
3.73693e-06
5.36106e-06
5.18684e-06
5.12804e-06
5.12265e-06
5.12215e-06
5.11998e-06
5.11301e-06
5.10759e-06
5.0911e-06
5.0839e-06
5.08386e-06
5.06681e-06
5.06463e-06
5.05856e-06
5.0591e-06
5.06653e-06
5.08083e-06
5.08584e-06
5.10799e-06
5.11765e-06
5.14535e-06
5.16847e-06
5.21283e-06
5.25739e-06
5.30454e-06
5.37367e-06
5.45722e-06
5.54517e-06
5.63814e-06
5.73735e-06
5.82499e-06
5.90546e-06
5.9661e-06
6.00937e-06
6.04463e-06
6.07407e-06
6.08585e-06
6.08974e-06
6.09888e-06
6.10287e-06
6.09669e-06
6.10045e-06
6.10335e-06
6.10191e-06
6.10161e-06
6.09965e-06
6.10807e-06
6.10762e-06
6.106e-06
6.09787e-06
6.10555e-06
6.10224e-06
6.09934e-06
6.08694e-06
6.08106e-06
6.07742e-06
6.07312e-06
6.07011e-06
6.07022e-06
6.07367e-06
6.07535e-06
6.06874e-06
6.0791e-06
)
;

boundaryField
{
    inlet
    {
        type            fixedValue;
        value           uniform 0;
    }
    outlet
    {
        type            calculated;
        value           uniform 6.07982e-06;
    }
    yzfaces
    {
        type            empty;
    }
}


// ************************************************************************* //
