/*--------------------------------*- C++ -*----------------------------------*\
| =========                 |                                                 |
| \\      /  F ield         | foam-extend: Open Source CFD                    |
|  \\    /   O peration     | Version:     5.0                                |
|   \\  /    A nd           | Web:         http://www.foam-extend.org         |
|    \\/     M anipulation  |                                                 |
\*---------------------------------------------------------------------------*/
FoamFile
{
    version     2.0;
    format      ascii;
    class       volVectorField;
    location    "4";
    object      U.gas;
}
// * * * * * * * * * * * * * * * * * * * * * * * * * * * * * * * * * * * * * //

dimensions      [0 1 -1 0 0 0 0];

internalField   nonuniform List<vector> 
100
(
(0.00678667 0 0)
(0.00737054 0 0)
(0.00779834 0 0)
(0.00826019 0 0)
(0.00868435 0 0)
(0.00909211 0 0)
(0.00948161 0 0)
(0.00976551 0 0)
(0.0100212 0 0)
(0.0103713 0 0)
(0.0106089 0 0)
(0.0106719 0 0)
(0.0108449 0 0)
(0.0110691 0 0)
(0.0112156 0 0)
(0.0114115 0 0)
(0.0115662 0 0)
(0.0117224 0 0)
(0.0117986 0 0)
(0.0119201 0 0)
(0.0120992 0 0)
(0.0121702 0 0)
(0.0122503 0 0)
(0.0123136 0 0)
(0.0124653 0 0)
(0.0125629 0 0)
(0.0126168 0 0)
(0.0127065 0 0)
(0.0128395 0 0)
(0.0129417 0 0)
(0.0130754 0 0)
(0.0131777 0 0)
(0.0133222 0 0)
(0.0134784 0 0)
(0.0137428 0 0)
(0.0141316 0 0)
(0.0153069 0 0)
(0.0096059 0 0)
(0.0101898 0 0)
(0.010374 0 0)
(0.0104386 0 0)
(0.010463 0 0)
(0.0104798 0 0)
(0.0105042 0 0)
(0.0105246 0 0)
(0.0105474 0 0)
(0.0105788 0 0)
(0.0105957 0 0)
(0.0106023 0 0)
(0.010603 0 0)
(0.0106009 0 0)
(0.0106005 0 0)
(0.0105965 0 0)
(0.0105785 0 0)
(0.010562 0 0)
(0.0105217 0 0)
(0.0104724 0 0)
(0.0103988 0 0)
(0.0103082 0 0)
(0.0101887 0 0)
(0.0100278 0 0)
(0.00982167 0 0)
(0.00957162 0 0)
(0.00924961 0 0)
(0.00885142 0 0)
(0.00838174 0 0)
(0.00784321 0 0)
(0.00726054 0 0)
(0.00667585 0 0)
(0.00613403 0 0)
(0.00567678 0 0)
(0.00532939 0 0)
(0.00507962 0 0)
(0.00490724 0 0)
(0.00479614 0 0)
(0.00472924 0 0)
(0.00468366 0 0)
(0.00465508 0 0)
(0.00464407 0 0)
(0.00463737 0 0)
(0.00463043 0 0)
(0.00462486 0 0)
(0.00462401 0 0)
(0.00462587 0 0)
(0.00462409 0 0)
(0.00462031 0 0)
(0.00462124 0 0)
(0.00462124 0 0)
(0.00461664 0 0)
(0.00461142 0 0)
(0.00460488 0 0)
(0.00459925 0 0)
(0.00459393 0 0)
(0.00459198 0 0)
(0.00459264 0 0)
(0.00459356 0 0)
(0.00459358 0 0)
(0.00459197 0 0)
(0.00459241 0 0)
(0.00459459 0 0)
)
;

boundaryField
{
    inlet
    {
        type            fixedValue;
        value           uniform (0.005 0 0);
    }
    outlet
    {
        type            zeroGradient;
    }
    yzfaces
    {
        type            empty;
    }
}


// ************************************************************************* //
