/*--------------------------------*- C++ -*----------------------------------*\
| =========                 |                                                 |
| \\      /  F ield         | foam-extend: Open Source CFD                    |
|  \\    /   O peration     | Version:     5.0                                |
|   \\  /    A nd           | Web:         http://www.foam-extend.org         |
|    \\/     M anipulation  |                                                 |
\*---------------------------------------------------------------------------*/
FoamFile
{
    version     2.0;
    format      ascii;
    class       volVectorField;
    location    "4";
    object      U.water;
}
// * * * * * * * * * * * * * * * * * * * * * * * * * * * * * * * * * * * * * //

dimensions      [0 1 -1 0 0 0 0];

internalField   nonuniform List<vector> 
100
(
(6.92608e-05 0 0)
(0.000158177 0 0)
(0.000223049 0 0)
(0.000282813 0 0)
(0.000348769 0 0)
(0.000422507 0 0)
(0.000497661 0 0)
(0.000568711 0 0)
(0.000631841 0 0)
(0.000698336 0 0)
(0.000766596 0 0)
(0.000808141 0 0)
(0.000839293 0 0)
(0.00089587 0 0)
(0.000957722 0 0)
(0.00101225 0 0)
(0.00106863 0 0)
(0.00112413 0 0)
(0.00117582 0 0)
(0.00121678 0 0)
(0.00126774 0 0)
(0.0013255 0 0)
(0.0013735 0 0)
(0.00142172 0 0)
(0.00147992 0 0)
(0.00154721 0 0)
(0.00160365 0 0)
(0.00165954 0 0)
(0.00172509 0 0)
(0.0017999 0 0)
(0.00188503 0 0)
(0.001985 0 0)
(0.00210133 0 0)
(0.00225605 0 0)
(0.00248097 0 0)
(0.00286554 0 0)
(0.00363999 0 0)
(0.00431182 0 0)
(0.00421048 0 0)
(0.00418102 0 0)
(0.00417637 0 0)
(0.00417456 0 0)
(0.00417247 0 0)
(0.00416981 0 0)
(0.00416254 0 0)
(0.00415268 0 0)
(0.00415038 0 0)
(0.00414579 0 0)
(0.00413772 0 0)
(0.00413243 0 0)
(0.00412966 0 0)
(0.00413254 0 0)
(0.00414028 0 0)
(0.00414843 0 0)
(0.00416006 0 0)
(0.00417326 0 0)
(0.00418775 0 0)
(0.00420892 0 0)
(0.00423673 0 0)
(0.00427354 0 0)
(0.00431168 0 0)
(0.00435922 0 0)
(0.00442232 0 0)
(0.00449388 0 0)
(0.00456756 0 0)
(0.0046455 0 0)
(0.00472099 0 0)
(0.00478763 0 0)
(0.00484356 0 0)
(0.00488547 0 0)
(0.00491824 0 0)
(0.00494573 0 0)
(0.0049641 0 0)
(0.0049721 0 0)
(0.0049788 0 0)
(0.00498536 0 0)
(0.00498472 0 0)
(0.00498341 0 0)
(0.00498718 0 0)
(0.00498954 0 0)
(0.00498915 0 0)
(0.00498698 0 0)
(0.00498878 0 0)
(0.00499156 0 0)
(0.00498967 0 0)
(0.00498686 0 0)
(0.00498827 0 0)
(0.00498848 0 0)
(0.00498448 0 0)
(0.0049787 0 0)
(0.00497067 0 0)
(0.00496482 0 0)
(0.00496015 0 0)
(0.00495696 0 0)
(0.00495653 0 0)
(0.0049577 0 0)
(0.00495913 0 0)
(0.00495682 0 0)
(0.00495737 0 0)
(0.00496107 0 0)
)
;

boundaryField
{
    inlet
    {
        type            fixedValue;
        value           uniform (0 0 0);
    }
    outlet
    {
        type            zeroGradient;
    }
    yzfaces
    {
        type            empty;
    }
}


// ************************************************************************* //
