/*--------------------------------*- C++ -*----------------------------------*\
| =========                 |                                                 |
| \\      /  F ield         | foam-extend: Open Source CFD                    |
|  \\    /   O peration     | Version:     5.0                                |
|   \\  /    A nd           | Web:         http://www.foam-extend.org         |
|    \\/     M anipulation  |                                                 |
\*---------------------------------------------------------------------------*/
FoamFile
{
    version     2.0;
    format      ascii;
    class       volScalarField;
    location    "2";
    object      alpha.water;
}
// * * * * * * * * * * * * * * * * * * * * * * * * * * * * * * * * * * * * * //

dimensions      [0 0 0 0 0 0 0];

internalField   nonuniform List<scalar> 
100
(
0.00306463
0.0048687
0.00646383
0.00793863
0.00936704
0.0106868
0.0119415
0.0131425
0.0143239
0.0154634
0.0165583
0.0176705
0.0187398
0.0198576
0.0208981
0.0218605
0.0227803
0.0236153
0.0243417
0.0249561
0.0255359
0.026183
0.0268762
0.0276011
0.0283177
0.0290649
0.0298385
0.0306531
0.0314349
0.0321689
0.0328729
0.0335613
0.0342036
0.0348317
0.035457
0.0360591
0.0366044
0.0371078
0.0376204
0.0381604
0.0387212
0.0392898
0.0398314
0.0403564
0.0408752
0.041372
0.0418416
0.0422368
0.0426386
0.0430621
0.0434925
0.0439508
0.0443907
0.0448191
0.0452369
0.0456374
0.0460384
0.0464007
0.0467264
0.0470818
0.047462
0.0478638
0.0482804
0.0486789
0.0490685
0.0494567
0.0498487
0.0502027
0.0505447
0.0509275
0.0513215
0.0517426
0.0521788
0.0525893
0.0530214
0.0534429
0.0538519
0.0542641
0.0547021
0.0551306
0.0555584
0.0559591
0.0563213
0.0566704
0.0570253
0.0573853
0.0577562
0.0581116
0.0584578
0.0587717
0.0590482
0.0593203
0.0596168
0.0599287
0.0602297
0.0605298
0.0608207
0.0610997
0.0613464
0.0615907
)
;

boundaryField
{
    inlet
    {
        type            fixedValue;
        value           uniform 0;
    }
    outlet
    {
        type            zeroGradient;
    }
    yzfaces
    {
        type            empty;
    }
}


// ************************************************************************* //
