/*--------------------------------*- C++ -*----------------------------------*\
| =========                 |                                                 |
| \\      /  F ield         | foam-extend: Open Source CFD                    |
|  \\    /   O peration     | Version:     5.0                                |
|   \\  /    A nd           | Web:         http://www.foam-extend.org         |
|    \\/     M anipulation  |                                                 |
\*---------------------------------------------------------------------------*/
FoamFile
{
    version     2.0;
    format      ascii;
    class       volScalarField;
    location    "2";
    object      CO2.water;
}
// * * * * * * * * * * * * * * * * * * * * * * * * * * * * * * * * * * * * * //

dimensions      [0 0 0 0 0 0 0];

internalField   nonuniform List<scalar> 
100
(
8.0491e-05
0.000127874
0.000169769
0.000208504
0.000246021
0.000280684
0.000313637
0.000345181
0.00037621
0.000406138
0.000434897
0.000464107
0.000492193
0.000521549
0.000548879
0.000574155
0.000598315
0.000620246
0.000639324
0.000655459
0.000670689
0.000687685
0.000705891
0.000724929
0.00074375
0.000763377
0.000783695
0.000805089
0.000825623
0.000844902
0.000863391
0.000881472
0.000898341
0.000914838
0.000931262
0.000947076
0.000961397
0.00097462
0.000988083
0.00100227
0.001017
0.00103193
0.00104615
0.00105994
0.00107357
0.00108662
0.00109895
0.00110933
0.00111988
0.00113101
0.00114231
0.00115435
0.0011659
0.00117715
0.00118813
0.00119865
0.00120918
0.00121869
0.00122725
0.00123658
0.00124657
0.00125712
0.00126806
0.00127853
0.00128876
0.00129896
0.00130925
0.00131855
0.00132753
0.00133759
0.00134794
0.00135899
0.00137045
0.00138123
0.00139258
0.00140365
0.0014144
0.00142522
0.00143673
0.00144798
0.00145922
0.00146974
0.00147925
0.00148842
0.00149774
0.0015072
0.00151694
0.00152627
0.00153537
0.00154361
0.00155088
0.00155802
0.00156581
0.001574
0.00158191
0.00158979
0.00159743
0.00160476
0.00161123
0.00161765
)
;

boundaryField
{
    inlet
    {
        type            fixedValue;
        value           uniform 0;
    }
    outlet
    {
        type            zeroGradient;
    }
    yzfaces
    {
        type            empty;
    }
}


// ************************************************************************* //
