/*--------------------------------*- C++ -*----------------------------------*\
| =========                 |                                                 |
| \\      /  F ield         | foam-extend: Open Source CFD                    |
|  \\    /   O peration     | Version:     5.0                                |
|   \\  /    A nd           | Web:         http://www.foam-extend.org         |
|    \\/     M anipulation  |                                                 |
\*---------------------------------------------------------------------------*/
FoamFile
{
    version     2.0;
    format      ascii;
    class       volScalarField;
    location    "2";
    object      H2O.gas;
}
// * * * * * * * * * * * * * * * * * * * * * * * * * * * * * * * * * * * * * //

dimensions      [0 0 0 0 0 0 0];

internalField   nonuniform List<scalar> 
100
(
0.000383526
0.000380013
0.000376906
0.000374034
0.000371252
0.000368682
0.000366239
0.0003639
0.000361599
0.00035938
0.000357247
0.000355081
0.000352999
0.000350822
0.000348796
0.000346922
0.00034513
0.000343504
0.000342089
0.000340893
0.000339764
0.000338504
0.000337154
0.000335742
0.000334346
0.000332891
0.000331385
0.000329798
0.000328276
0.000326846
0.000325475
0.000324135
0.000322884
0.00032166
0.000320443
0.00031927
0.000318208
0.000317228
0.00031623
0.000315178
0.000314086
0.000312979
0.000311924
0.000310901
0.000309891
0.000308923
0.000308009
0.000307239
0.000306457
0.000305632
0.000304794
0.000303901
0.000303045
0.00030221
0.000301397
0.000300617
0.000299836
0.00029913
0.000298496
0.000297804
0.000297063
0.000296281
0.00029547
0.000294693
0.000293935
0.000293179
0.000292415
0.000291726
0.00029106
0.000290314
0.000289547
0.000288727
0.000287877
0.000287078
0.000286237
0.000285416
0.000284619
0.000283816
0.000282963
0.000282129
0.000281296
0.000280516
0.00027981
0.00027913
0.000278439
0.000277738
0.000277016
0.000276324
0.000275649
0.000275038
0.000274499
0.00027397
0.000273392
0.000272785
0.000272199
0.000271614
0.000271048
0.000270504
0.000270024
0.000269548
)
;

boundaryField
{
    inlet
    {
        type            fixedValue;
        value           uniform 0;
    }
    outlet
    {
        type            zeroGradient;
    }
    yzfaces
    {
        type            empty;
    }
}


// ************************************************************************* //
