/*--------------------------------*- C++ -*----------------------------------*\
| =========                 |                                                 |
| \\      /  F ield         | foam-extend: Open Source CFD                    |
|  \\    /   O peration     | Version:     5.0                                |
|   \\  /    A nd           | Web:         http://www.foam-extend.org         |
|    \\/     M anipulation  |                                                 |
\*---------------------------------------------------------------------------*/
FoamFile
{
    version     2.0;
    format      ascii;
    class       volScalarField;
    location    "2";
    object      H2O.water;
}
// * * * * * * * * * * * * * * * * * * * * * * * * * * * * * * * * * * * * * //

dimensions      [0 0 0 0 0 0 0];

internalField   nonuniform List<scalar> 
100
(
0.00298413
0.00474082
0.00629406
0.00773012
0.00912102
0.0104061
0.0116278
0.0127973
0.0139477
0.0150572
0.0161234
0.0172064
0.0182476
0.019336
0.0203492
0.0212863
0.022182
0.0229951
0.0237024
0.0243006
0.0248652
0.0254953
0.0261703
0.0268761
0.0275739
0.0283016
0.0290548
0.029848
0.0306093
0.031324
0.0320095
0.0326798
0.0333052
0.0339168
0.0345257
0.035112
0.035643
0.0361332
0.0366323
0.0371582
0.0377042
0.0382578
0.0387853
0.0392965
0.0398017
0.0402854
0.0407426
0.0411275
0.0415187
0.0419311
0.0423502
0.0427964
0.0432248
0.0436419
0.0440487
0.0444388
0.0448292
0.045182
0.0454992
0.0458452
0.0462154
0.0466067
0.0470123
0.0474004
0.0477798
0.0481578
0.0485395
0.0488842
0.0492172
0.04959
0.0499736
0.0503836
0.0508084
0.0512081
0.0516288
0.0520392
0.0524375
0.0528389
0.0532654
0.0536827
0.0540992
0.0544893
0.0548421
0.055182
0.0555275
0.0558781
0.0562392
0.0565853
0.0569225
0.0572281
0.0574974
0.0577623
0.058051
0.0583547
0.0586478
0.05894
0.0592233
0.059495
0.0597351
0.0599731
)
;

boundaryField
{
    inlet
    {
        type            fixedValue;
        value           uniform 0;
    }
    outlet
    {
        type            zeroGradient;
    }
    yzfaces
    {
        type            empty;
    }
}


// ************************************************************************* //
