/*--------------------------------*- C++ -*----------------------------------*\
| =========                 |                                                 |
| \\      /  F ield         | foam-extend: Open Source CFD                    |
|  \\    /   O peration     | Version:     5.0                                |
|   \\  /    A nd           | Web:         http://www.foam-extend.org         |
|    \\/     M anipulation  |                                                 |
\*---------------------------------------------------------------------------*/
FoamFile
{
    version     2.0;
    format      ascii;
    class       surfaceScalarField;
    location    "2";
    object      phi;
}
// * * * * * * * * * * * * * * * * * * * * * * * * * * * * * * * * * * * * * //

dimensions      [0 3 -1 0 0 0 0];

internalField   nonuniform List<scalar> 
99
(
0.0001225
0.000122513
0.000122512
0.000122491
0.000122482
0.000122467
0.000122469
0.000122446
0.000122435
0.000122457
0.000122465
0.000122477
0.000122492
0.000122501
0.000122516
0.000122525
0.000122525
0.000122539
0.000122554
0.000122584
0.00012257
0.000122563
0.000122581
0.000122556
0.000122552
0.000122545
0.00012253
0.000122521
0.000122539
0.00012253
0.00012251
0.000122506
0.000122533
0.000122525
0.000122523
0.000122537
0.000122535
0.000122543
0.000122531
0.000122523
0.000122516
0.000122518
0.00012252
0.000122519
0.000122516
0.00012251
0.000122516
0.000122508
0.000122506
0.000122493
0.000122482
0.000122483
0.000122481
0.000122476
0.000122475
0.000122483
0.000122482
0.000122503
0.000122486
0.000122487
0.000122473
0.000122474
0.000122469
0.000122463
0.000122456
0.000122447
0.000122445
0.000122443
0.000122435
0.00012244
0.000122438
0.000122421
0.000122434
0.000122423
0.000122436
0.000122437
0.00012244
0.00012243
0.0001224
0.000122401
0.000122399
0.000122417
0.000122423
0.000122423
0.000122421
0.000122431
0.000122442
0.000122439
0.000122457
0.00012247
0.000122464
0.000122471
0.000122481
0.000122486
0.000122481
0.000122499
0.000122497
0.000122507
0.000122513
)
;

boundaryField
{
    inlet
    {
        type            calculated;
        value           uniform -0.0001225;
    }
    outlet
    {
        type            calculated;
        value           uniform 0.000122514;
    }
    yzfaces
    {
        type            empty;
    }
}


// ************************************************************************* //
