/*--------------------------------*- C++ -*----------------------------------*\
| =========                 |                                                 |
| \\      /  F ield         | foam-extend: Open Source CFD                    |
|  \\    /   O peration     | Version:     5.0                                |
|   \\  /    A nd           | Web:         http://www.foam-extend.org         |
|    \\/     M anipulation  |                                                 |
\*---------------------------------------------------------------------------*/
FoamFile
{
    version     2.0;
    format      ascii;
    class       surfaceScalarField;
    location    "2";
    object      phi.water;
}
// * * * * * * * * * * * * * * * * * * * * * * * * * * * * * * * * * * * * * //

dimensions      [0 3 -1 0 0 0 0];

internalField   nonuniform List<scalar> 
99
(
4.24907e-07
7.64758e-07
1.07813e-06
1.37405e-06
1.67535e-06
1.95948e-06
2.23645e-06
2.50515e-06
2.77887e-06
3.05049e-06
3.31132e-06
3.58879e-06
3.85271e-06
4.14748e-06
4.42974e-06
4.69277e-06
4.95382e-06
5.19992e-06
5.41898e-06
5.6012e-06
5.76254e-06
5.94855e-06
6.15347e-06
6.37406e-06
6.59263e-06
6.82385e-06
7.06538e-06
7.33355e-06
7.59851e-06
7.8481e-06
8.0891e-06
8.33424e-06
8.56316e-06
8.78782e-06
9.01647e-06
9.24558e-06
9.45333e-06
9.64183e-06
9.83221e-06
1.00369e-05
1.0253e-05
1.04814e-05
1.06997e-05
1.0913e-05
1.1128e-05
1.13362e-05
1.15432e-05
1.17084e-05
1.18762e-05
1.2056e-05
1.22381e-05
1.24414e-05
1.26382e-05
1.28309e-05
1.3022e-05
1.32057e-05
1.33955e-05
1.35715e-05
1.37167e-05
1.38812e-05
1.40573e-05
1.42478e-05
1.44517e-05
1.46471e-05
1.48383e-05
1.50298e-05
1.52323e-05
1.54132e-05
1.55805e-05
1.57765e-05
1.5977e-05
1.61932e-05
1.64301e-05
1.66451e-05
1.68817e-05
1.71137e-05
1.73387e-05
1.7562e-05
1.7806e-05
1.80495e-05
1.83002e-05
1.85402e-05
1.87552e-05
1.89599e-05
1.91702e-05
1.93856e-05
1.9614e-05
1.98322e-05
2.0055e-05
2.0257e-05
2.04295e-05
2.05977e-05
2.07843e-05
2.09852e-05
2.11788e-05
2.13784e-05
2.15693e-05
2.17607e-05
2.19253e-05
)
;

boundaryField
{
    inlet
    {
        type            fixedValue;
        value           uniform 0;
    }
    outlet
    {
        type            calculated;
        value           uniform 2.21303e-05;
    }
    yzfaces
    {
        type            empty;
    }
}


// ************************************************************************* //
