/*--------------------------------*- C++ -*----------------------------------*\
| =========                 |                                                 |
| \\      /  F ield         | foam-extend: Open Source CFD                    |
|  \\    /   O peration     | Version:     5.0                                |
|   \\  /    A nd           | Web:         http://www.foam-extend.org         |
|    \\/     M anipulation  |                                                 |
\*---------------------------------------------------------------------------*/
FoamFile
{
    version     2.0;
    format      ascii;
    class       surfaceScalarField;
    location    "2";
    object      phi.gas;
}
// * * * * * * * * * * * * * * * * * * * * * * * * * * * * * * * * * * * * * //

dimensions      [0 3 -1 0 0 0 0];

internalField   nonuniform List<scalar> 
99
(
0.000624889
0.000630392
0.000635381
0.000640054
0.000644612
0.000648927
0.000653136
0.000657138
0.000661215
0.00066534
0.000669342
0.000673401
0.000677495
0.000681535
0.000685382
0.000688985
0.00069237
0.000695481
0.000698173
0.000700673
0.000702989
0.00070562
0.000708556
0.000711307
0.000714281
0.000717337
0.000720524
0.000723815
0.000727092
0.000730064
0.00073292
0.000735789
0.000738699
0.000741351
0.000744027
0.000746648
0.000748944
0.00075125
0.000753548
0.000755981
0.000758498
0.000761062
0.000763511
0.000765921
0.000768252
0.000770473
0.000772529
0.000774349
0.00077629
0.00077823
0.00078032
0.000782474
0.000784549
0.000786583
0.000788569
0.000790599
0.000792468
0.000794272
0.000795834
0.000797674
0.000799554
0.000801612
0.000803632
0.000805587
0.000807511
0.000809438
0.000811351
0.000813138
0.000814954
0.000817003
0.000819111
0.00082127
0.00082358
0.000825734
0.000828111
0.000830317
0.000832525
0.000834743
0.000836885
0.000839244
0.000841518
0.000843741
0.000845714
0.000847662
0.000849662
0.000851774
0.000853886
0.000855855
0.000857851
0.000859571
0.000861085
0.000862783
0.000864592
0.000866387
0.000868106
0.000869943
0.000871583
0.000873194
0.000874666
)
;

boundaryField
{
    inlet
    {
        type            fixedValue;
        value           uniform -0.0006125;
    }
    outlet
    {
        type            calculated;
        value           uniform 0.000875331;
    }
    yzfaces
    {
        type            empty;
    }
}


// ************************************************************************* //
