/*--------------------------------*- C++ -*----------------------------------*\
| =========                 |                                                 |
| \\      /  F ield         | foam-extend: Open Source CFD                    |
|  \\    /   O peration     | Version:     5.0                                |
|   \\  /    A nd           | Web:         http://www.foam-extend.org         |
|    \\/     M anipulation  |                                                 |
\*---------------------------------------------------------------------------*/
FoamFile
{
    version     2.0;
    format      ascii;
    class       volVectorField;
    location    "2";
    object      U.water;
}
// * * * * * * * * * * * * * * * * * * * * * * * * * * * * * * * * * * * * * //

dimensions      [0 1 -1 0 0 0 0];

internalField   nonuniform List<vector> 
100
(
(0.000224477 0 0)
(0.000504586 0 0)
(0.000763905 0 0)
(0.00101052 0 0)
(0.00125013 0 0)
(0.00148837 0 0)
(0.00171656 0 0)
(0.0019397 0 0)
(0.00215974 0 0)
(0.00238153 0 0)
(0.00260076 0 0)
(0.002818 0 0)
(0.00304226 0 0)
(0.00326536 0 0)
(0.00350032 0 0)
(0.00372396 0 0)
(0.00393575 0 0)
(0.00414114 0 0)
(0.0043303 0 0)
(0.00449721 0 0)
(0.00464208 0 0)
(0.00478316 0 0)
(0.00494223 0 0)
(0.00511422 0 0)
(0.00529521 0 0)
(0.00547867 0 0)
(0.00567251 0 0)
(0.00587708 0 0)
(0.00609376 0 0)
(0.00630456 0 0)
(0.00650543 0 0)
(0.00670205 0 0)
(0.00689682 0 0)
(0.00708259 0 0)
(0.00726666 0 0)
(0.00745167 0 0)
(0.00763062 0 0)
(0.00779503 0 0)
(0.0079507 0 0)
(0.00811167 0 0)
(0.00828279 0 0)
(0.00846226 0 0)
(0.00864505 0 0)
(0.00882174 0 0)
(0.00899566 0 0)
(0.00916807 0 0)
(0.00933489 0 0)
(0.00949133 0 0)
(0.00962819 0 0)
(0.00976934 0 0)
(0.00991812 0 0)
(0.0100727 0 0)
(0.0102364 0 0)
(0.0103954 0 0)
(0.0105515 0 0)
(0.0107054 0 0)
(0.0108554 0 0)
(0.0110049 0 0)
(0.0111402 0 0)
(0.0112665 0 0)
(0.0114053 0 0)
(0.0115545 0 0)
(0.0117135 0 0)
(0.011877 0 0)
(0.0120353 0 0)
(0.012192 0 0)
(0.0123501 0 0)
(0.012508 0 0)
(0.0126533 0 0)
(0.0127999 0 0)
(0.0129629 0 0)
(0.0131321 0 0)
(0.0133143 0 0)
(0.0135018 0 0)
(0.013684 0 0)
(0.0138751 0 0)
(0.0140628 0 0)
(0.0142476 0 0)
(0.0144362 0 0)
(0.0146355 0 0)
(0.0148351 0 0)
(0.0150342 0 0)
(0.0152217 0 0)
(0.0153946 0 0)
(0.0155638 0 0)
(0.0157377 0 0)
(0.0159171 0 0)
(0.0160996 0 0)
(0.0162778 0 0)
(0.016451 0 0)
(0.0166066 0 0)
(0.0167476 0 0)
(0.0168917 0 0)
(0.0170482 0 0)
(0.0172097 0 0)
(0.0173694 0 0)
(0.0175287 0 0)
(0.0176831 0 0)
(0.0178304 0 0)
(0.0179637 0 0)
)
;

boundaryField
{
    inlet
    {
        type            fixedValue;
        value           uniform (0 0 0);
    }
    outlet
    {
        type            zeroGradient;
    }
    yzfaces
    {
        type            empty;
    }
}


// ************************************************************************* //
