/*--------------------------------*- C++ -*----------------------------------*\
| =========                 |                                                 |
| \\      /  F ield         | foam-extend: Open Source CFD                    |
|  \\    /   O peration     | Version:     5.0                                |
|   \\  /    A nd           | Web:         http://www.foam-extend.org         |
|    \\/     M anipulation  |                                                 |
\*---------------------------------------------------------------------------*/
FoamFile
{
    version     2.0;
    format      ascii;
    class       volScalarField;
    location    "6";
    object      alpha.gas;
}
// * * * * * * * * * * * * * * * * * * * * * * * * * * * * * * * * * * * * * //

dimensions      [0 0 0 0 0 0 0];

internalField   nonuniform List<scalar> 
100
(
0.160015
0.146183
0.136665
0.131896
0.127235
0.121328
0.11619
0.112302
0.108597
0.105009
0.102281
0.0995495
0.0969986
0.0947355
0.0924699
0.090854
0.0892909
0.087612
0.0865101
0.0856612
0.0844312
0.0832654
0.0820019
0.0805672
0.0792318
0.0780522
0.0769075
0.0759571
0.0750783
0.0741286
0.0732661
0.0724191
0.0716369
0.070677
0.0698362
0.0689846
0.0683478
0.0675179
0.066746
0.0661818
0.0655783
0.0649484
0.0643344
0.0637705
0.0630004
0.0623027
0.0617373
0.0609869
0.0603128
0.0597239
0.0591411
0.0586252
0.0580137
0.0574677
0.0569773
0.0564796
0.055939
0.0554074
0.0549352
0.0544393
0.0539697
0.0535073
0.0530095
0.0525347
0.052078
0.0516226
0.0511322
0.0506493
0.0501664
0.0497123
0.0492148
0.0486833
0.0480798
0.0475175
0.046972
0.0464689
0.0458619
0.0452542
0.0446642
0.0441057
0.0435543
0.0429932
0.0424338
0.0418707
0.0412844
0.040669
0.0400415
0.0393804
0.0386772
0.037972
0.0372638
0.0365062
0.0357296
0.0349135
0.0340297
0.0331103
0.0320953
0.0309986
0.0298143
0.0285243
)
;

boundaryField
{
    inlet
    {
        type            fixedValue;
        value           uniform 0.2;
    }
    outlet
    {
        type            zeroGradient;
    }
    yzfaces
    {
        type            empty;
    }
}


// ************************************************************************* //
