/*--------------------------------*- C++ -*----------------------------------*\
| =========                 |                                                 |
| \\      /  F ield         | foam-extend: Open Source CFD                    |
|  \\    /   O peration     | Version:     5.0                                |
|   \\  /    A nd           | Web:         http://www.foam-extend.org         |
|    \\/     M anipulation  |                                                 |
\*---------------------------------------------------------------------------*/
FoamFile
{
    version     2.0;
    format      ascii;
    class       volScalarField;
    location    "6";
    object      alpha.gas;
}
// * * * * * * * * * * * * * * * * * * * * * * * * * * * * * * * * * * * * * //

dimensions      [0 0 0 0 0 0 0];

internalField   nonuniform List<scalar> 
100
(
0.160236
0.14639
0.137274
0.132334
0.127099
0.121826
0.116233
0.112252
0.108627
0.105219
0.102281
0.09933
0.0970863
0.0944941
0.0925337
0.0911058
0.0890463
0.0875083
0.0867352
0.0857215
0.0844787
0.0834369
0.0821053
0.0804319
0.0793351
0.0780556
0.0769274
0.0758472
0.0750872
0.0741911
0.0732518
0.0723202
0.0715266
0.0706438
0.0699624
0.069282
0.0686283
0.067844
0.0671156
0.0664107
0.0656746
0.0650591
0.0643384
0.0635193
0.0627716
0.0621847
0.0616027
0.0609508
0.0602539
0.0596658
0.0590738
0.0585178
0.0579595
0.057476
0.0569366
0.0563671
0.0558259
0.0554494
0.0548986
0.0544326
0.0539772
0.0534857
0.0529475
0.0524821
0.052015
0.0515869
0.0510966
0.0505696
0.0500788
0.0495797
0.0490193
0.0485127
0.047969
0.0473778
0.0468304
0.0463329
0.0457436
0.0452316
0.0446804
0.0441168
0.0435624
0.043008
0.0424301
0.0418494
0.0412637
0.040657
0.0400147
0.0394015
0.0387315
0.0380505
0.0373248
0.036563
0.035749
0.0349247
0.0340436
0.0331095
0.0320999
0.0310172
0.0298371
0.0285369
)
;

boundaryField
{
    inlet
    {
        type            fixedValue;
        value           uniform 0.2;
    }
    outlet
    {
        type            zeroGradient;
    }
    yzfaces
    {
        type            empty;
    }
}


// ************************************************************************* //
