/*--------------------------------*- C++ -*----------------------------------*\
| =========                 |                                                 |
| \\      /  F ield         | foam-extend: Open Source CFD                    |
|  \\    /   O peration     | Version:     5.0                                |
|   \\  /    A nd           | Web:         http://www.foam-extend.org         |
|    \\/     M anipulation  |                                                 |
\*---------------------------------------------------------------------------*/
FoamFile
{
    version     2.0;
    format      ascii;
    class       volScalarField;
    location    "6";
    object      Cl.water;
}
// * * * * * * * * * * * * * * * * * * * * * * * * * * * * * * * * * * * * * //

dimensions      [0 0 0 0 0 0 0];

internalField   nonuniform List<scalar> 
100
(
0.00459275
0.00617944
0.00726739
0.00782894
0.00836596
0.00902965
0.00962368
0.0100697
0.0104947
0.0108974
0.0112214
0.0115366
0.0118239
0.0120911
0.0123428
0.0125264
0.012714
0.0129019
0.0130258
0.0131349
0.0132706
0.0134023
0.0135476
0.0137142
0.0138617
0.0140056
0.0141305
0.0142392
0.0143424
0.0144519
0.0145526
0.0146497
0.0147384
0.0148455
0.0149451
0.015038
0.0151113
0.015213
0.0153057
0.0153726
0.0154353
0.0155053
0.0155785
0.0156489
0.0157325
0.015817
0.0158816
0.0159584
0.0160417
0.0161154
0.0161772
0.0162387
0.0163061
0.0163684
0.016427
0.0164838
0.0165453
0.0166031
0.0166564
0.0167121
0.0167677
0.0168244
0.016879
0.0169274
0.016977
0.0170333
0.0170954
0.0171531
0.0172073
0.0172609
0.0173141
0.017377
0.0174399
0.0175094
0.0175721
0.0176335
0.017702
0.0177699
0.0178399
0.0179057
0.0179713
0.0180374
0.0181012
0.0181654
0.0182311
0.0182982
0.0183692
0.0184422
0.0185236
0.0186046
0.0186871
0.0187692
0.0188652
0.0189606
0.0190647
0.0191725
0.019287
0.0194082
0.019542
0.0196849
)
;

boundaryField
{
    inlet
    {
        type            fixedValue;
        value           uniform 0;
    }
    outlet
    {
        type            zeroGradient;
    }
    yzfaces
    {
        type            empty;
    }
}


// ************************************************************************* //
