/*--------------------------------*- C++ -*----------------------------------*\
| =========                 |                                                 |
| \\      /  F ield         | foam-extend: Open Source CFD                    |
|  \\    /   O peration     | Version:     5.0                                |
|   \\  /    A nd           | Web:         http://www.foam-extend.org         |
|    \\/     M anipulation  |                                                 |
\*---------------------------------------------------------------------------*/
FoamFile
{
    version     2.0;
    format      ascii;
    class       volScalarField;
    location    "6";
    object      Cl.water;
}
// * * * * * * * * * * * * * * * * * * * * * * * * * * * * * * * * * * * * * //

dimensions      [0 0 0 0 0 0 0];

internalField   nonuniform List<scalar> 
100
(
0.00456613
0.00615523
0.00720043
0.00777305
0.00837966
0.00898254
0.00961538
0.0100781
0.010495
0.0108814
0.0112193
0.0115508
0.0118086
0.0121034
0.0123304
0.012507
0.0127402
0.0129118
0.0130071
0.0131224
0.0132617
0.0133833
0.0135371
0.0137216
0.0138558
0.0140022
0.0141261
0.0142465
0.0143419
0.0144498
0.0145537
0.0146592
0.014754
0.0148507
0.014936
0.0150117
0.0150867
0.0151756
0.0152573
0.0153402
0.0154256
0.0155002
0.0155828
0.0156703
0.0157536
0.0158208
0.0158878
0.015963
0.0160425
0.0161094
0.016174
0.0162379
0.016293
0.0163569
0.0164222
0.016485
0.0165404
0.0165927
0.0166486
0.0167002
0.0167565
0.0168101
0.0168766
0.0169347
0.0169884
0.0170371
0.0170955
0.0171526
0.0172119
0.0172684
0.0173302
0.0173891
0.0174507
0.0175196
0.0175794
0.0176423
0.0177067
0.017771
0.0178362
0.0179038
0.0179735
0.018038
0.0180986
0.0181642
0.0182311
0.0183026
0.0183655
0.0184379
0.018536
0.0192196
0.021842
0.0341411
0.0345262
0.0347506
0.0349443
0.0351688
0.035372
0.0356189
0.035859
0.0360916
)
;

boundaryField
{
    inlet
    {
        type            fixedValue;
        value           uniform 0;
    }
    outlet
    {
        type            zeroGradient;
    }
    yzfaces
    {
        type            empty;
    }
}


// ************************************************************************* //
