/*--------------------------------*- C++ -*----------------------------------*\
| =========                 |                                                 |
| \\      /  F ield         | foam-extend: Open Source CFD                    |
|  \\    /   O peration     | Version:     5.0                                |
|   \\  /    A nd           | Web:         http://www.foam-extend.org         |
|    \\/     M anipulation  |                                                 |
\*---------------------------------------------------------------------------*/
FoamFile
{
    version     2.0;
    format      ascii;
    class       volScalarField;
    location    "6";
    object      CO2.gas;
}
// * * * * * * * * * * * * * * * * * * * * * * * * * * * * * * * * * * * * * //

dimensions      [0 0 0 0 0 0 0];

internalField   nonuniform List<scalar> 
100
(
0.159703
0.145899
0.136398
0.131639
0.126987
0.121092
0.115964
0.112084
0.108386
0.104805
0.102081
0.0993557
0.0968097
0.094551
0.0922898
0.0906771
0.089117
0.0874414
0.0863416
0.0854944
0.0842667
0.0831032
0.0818422
0.0804103
0.0790775
0.0779002
0.0767577
0.0758092
0.0749321
0.0739842
0.0731235
0.072278
0.0714974
0.0705393
0.0697002
0.0688502
0.0682147
0.0673864
0.066616
0.0660529
0.0654506
0.064822
0.0642091
0.0636464
0.0628778
0.0621814
0.061617
0.0608681
0.0601954
0.0596075
0.0590259
0.058511
0.0579007
0.0573557
0.0568664
0.0563696
0.05583
0.0552995
0.0548282
0.0543333
0.0538646
0.0534031
0.0529063
0.0524324
0.0519766
0.0515221
0.0510326
0.0505507
0.0500687
0.0496155
0.049119
0.0485885
0.0479862
0.047425
0.0468805
0.0463784
0.0457726
0.0451661
0.0445772
0.0440198
0.0434695
0.0429094
0.0423511
0.0417892
0.041204
0.0405898
0.0399635
0.0393037
0.0386019
0.037898
0.0371913
0.0364351
0.03566
0.0348455
0.0339634
0.0330458
0.0320328
0.0309383
0.0297562
0.0284687
)
;

boundaryField
{
    inlet
    {
        type            fixedValue;
        value           uniform 0.2;
    }
    outlet
    {
        type            zeroGradient;
    }
    yzfaces
    {
        type            empty;
    }
}


// ************************************************************************* //
