/*--------------------------------*- C++ -*----------------------------------*\
| =========                 |                                                 |
| \\      /  F ield         | foam-extend: Open Source CFD                    |
|  \\    /   O peration     | Version:     5.0                                |
|   \\  /    A nd           | Web:         http://www.foam-extend.org         |
|    \\/     M anipulation  |                                                 |
\*---------------------------------------------------------------------------*/
FoamFile
{
    version     2.0;
    format      ascii;
    class       volScalarField;
    location    "6";
    object      CO2.water;
}
// * * * * * * * * * * * * * * * * * * * * * * * * * * * * * * * * * * * * * //

dimensions      [0 0 0 0 0 0 0];

internalField   nonuniform List<scalar> 
100
(
0.00105019
0.00141347
0.00166348
0.00178871
0.00191115
0.00206628
0.00220123
0.00230334
0.00240065
0.00249488
0.00256655
0.00263829
0.00270528
0.00276472
0.00282423
0.00286667
0.00290772
0.00295182
0.00298076
0.00300306
0.00303536
0.00306598
0.00309917
0.00313685
0.00317192
0.0032029
0.00323297
0.00325793
0.00328101
0.00330595
0.00332861
0.00335085
0.0033714
0.00339661
0.00341869
0.00344106
0.00345778
0.00347958
0.00349986
0.00351467
0.00353052
0.00354707
0.0035632
0.003578
0.00359823
0.00361656
0.00363141
0.00365112
0.00366882
0.00368429
0.00369959
0.00371314
0.00372921
0.00374355
0.00375642
0.0037695
0.0037837
0.00379766
0.00381006
0.00382308
0.00383542
0.00384756
0.00386064
0.00387311
0.0038851
0.00389706
0.00390994
0.00392263
0.00393531
0.00394724
0.0039603
0.00397426
0.00399011
0.00400488
0.00401921
0.00403242
0.00404837
0.00406433
0.00407982
0.00409449
0.00410897
0.00412371
0.0041384
0.00415319
0.00416859
0.00418476
0.00420124
0.0042186
0.00423707
0.00425559
0.00427419
0.00429409
0.00431449
0.00433592
0.00435913
0.00438328
0.00440994
0.00443874
0.00446985
0.00450373
)
;

boundaryField
{
    inlet
    {
        type            fixedValue;
        value           uniform 0;
    }
    outlet
    {
        type            zeroGradient;
    }
    yzfaces
    {
        type            empty;
    }
}


// ************************************************************************* //
