/*--------------------------------*- C++ -*----------------------------------*\
| =========                 |                                                 |
| \\      /  F ield         | foam-extend: Open Source CFD                    |
|  \\    /   O peration     | Version:     5.0                                |
|   \\  /    A nd           | Web:         http://www.foam-extend.org         |
|    \\/     M anipulation  |                                                 |
\*---------------------------------------------------------------------------*/
FoamFile
{
    version     2.0;
    format      ascii;
    class       volScalarField;
    location    "6";
    object      CO2.water;
}
// * * * * * * * * * * * * * * * * * * * * * * * * * * * * * * * * * * * * * //

dimensions      [0 0 0 0 0 0 0];

internalField   nonuniform List<scalar> 
100
(
0.00104437
0.00140804
0.00164746
0.00177721
0.00191471
0.00205321
0.00220011
0.00230466
0.00239988
0.00248939
0.00256655
0.00264405
0.00270298
0.00277106
0.00282255
0.00286006
0.00291415
0.00295454
0.00297485
0.00300147
0.00303411
0.00306148
0.00309645
0.0031404
0.00316921
0.00320281
0.00323244
0.00326082
0.00328078
0.00330431
0.00332898
0.00335345
0.00337429
0.00339748
0.00341538
0.00343325
0.00345042
0.00347102
0.00349015
0.00350866
0.00352799
0.00354416
0.00356309
0.0035846
0.00360424
0.00361965
0.00363494
0.00365206
0.00367037
0.00368581
0.00370136
0.00371596
0.00373063
0.00374333
0.0037575
0.00377245
0.00378667
0.00379656
0.00381102
0.00382326
0.00383522
0.00384813
0.00386227
0.00387449
0.00388676
0.003898
0.00391088
0.00392472
0.00393761
0.00395072
0.00396544
0.00397874
0.00399302
0.00400855
0.00402293
0.004036
0.00405147
0.00406492
0.0040794
0.0040942
0.00410876
0.00412332
0.0041385
0.00415375
0.00416914
0.00418507
0.00420194
0.00421805
0.00423564
0.00425353
0.00427259
8.10265e-05
1.19483e-05
1.81985e-06
2.84841e-07
4.58162e-08
7.58468e-09
1.31748e-09
2.52805e-10
5.22299e-11
)
;

boundaryField
{
    inlet
    {
        type            fixedValue;
        value           uniform 0;
    }
    outlet
    {
        type            zeroGradient;
    }
    yzfaces
    {
        type            empty;
    }
}


// ************************************************************************* //
