/*--------------------------------*- C++ -*----------------------------------*\
| =========                 |                                                 |
| \\      /  F ield         | foam-extend: Open Source CFD                    |
|  \\    /   O peration     | Version:     5.0                                |
|   \\  /    A nd           | Web:         http://www.foam-extend.org         |
|    \\/     M anipulation  |                                                 |
\*---------------------------------------------------------------------------*/
FoamFile
{
    version     2.0;
    format      ascii;
    class       volScalarField;
    location    "6";
    object      CO2.gas;
}
// * * * * * * * * * * * * * * * * * * * * * * * * * * * * * * * * * * * * * //

dimensions      [0 0 0 0 0 0 0];

internalField   nonuniform List<scalar> 
100
(
0.159924
0.146105
0.137007
0.132076
0.126852
0.121588
0.116006
0.112033
0.108415
0.105014
0.102082
0.0991365
0.0968972
0.0943101
0.0923535
0.0909283
0.0888729
0.0873379
0.0865662
0.0855546
0.0843142
0.0832744
0.0819454
0.0802753
0.0791806
0.0779036
0.0767776
0.0756995
0.0749409
0.0740466
0.0731091
0.0721794
0.0713873
0.0705062
0.0698261
0.0691471
0.0684946
0.0677119
0.0669849
0.0662814
0.0655467
0.0649324
0.0642131
0.0633956
0.0626494
0.0620636
0.0614827
0.0608321
0.0601366
0.0595496
0.0589587
0.0584039
0.0578467
0.0573641
0.0568257
0.0562574
0.0557171
0.0553414
0.0547917
0.0543266
0.0538721
0.0533815
0.0528444
0.0523799
0.0519137
0.0514865
0.0509971
0.0504711
0.0499812
0.0494832
0.0489239
0.0484182
0.0478756
0.0472855
0.0467392
0.0462427
0.0456546
0.0451435
0.0445934
0.0440309
0.0434775
0.0429242
0.0423475
0.0417679
0.0411834
0.0405778
0.0399368
0.0393247
0.0386561
0.0379764
0.0372521
0.022818
0.0181204
0.014509
0.0116186
0.00926113
0.00730216
0.00568359
0.00434078
0.00324414
)
;

boundaryField
{
    inlet
    {
        type            fixedValue;
        value           uniform 0.2;
    }
    outlet
    {
        type            zeroGradient;
    }
    yzfaces
    {
        type            empty;
    }
}


// ************************************************************************* //
