/*--------------------------------*- C++ -*----------------------------------*\
| =========                 |                                                 |
| \\      /  F ield         | foam-extend: Open Source CFD                    |
|  \\    /   O peration     | Version:     5.0                                |
|   \\  /    A nd           | Web:         http://www.foam-extend.org         |
|    \\/     M anipulation  |                                                 |
\*---------------------------------------------------------------------------*/
FoamFile
{
    version     2.0;
    format      ascii;
    class       volScalarField;
    location    "6";
    object      H2O.water;
}
// * * * * * * * * * * * * * * * * * * * * * * * * * * * * * * * * * * * * * //

dimensions      [0 0 0 0 0 0 0];

internalField   nonuniform List<scalar> 
100
(
0.0295884
0.0398955
0.0466775
0.0503457
0.0542271
0.0581479
0.0623311
0.0652829
0.0679869
0.0705294
0.0727088
0.0749151
0.0765785
0.0785114
0.0799724
0.0810183
0.0825642
0.0837108
0.0842739
0.0850331
0.0859619
0.0867314
0.0877241
0.0889785
0.0897772
0.0907323
0.0915766
0.0923873
0.0929451
0.0936143
0.0943133
0.095005
0.0955919
0.0962606
0.0967582
0.0972644
0.0977514
0.0983365
0.0988808
0.0994039
0.0999512
0.100399
0.100938
0.101558
0.102114
0.102545
0.102978
0.103462
0.103981
0.104416
0.104859
0.10527
0.105694
0.106043
0.106447
0.106875
0.107282
0.107552
0.107973
0.108314
0.108648
0.109018
0.109422
0.109765
0.110111
0.110427
0.110791
0.111189
0.11155
0.111921
0.112341
0.112713
0.11312
0.113561
0.11397
0.114337
0.114784
0.115156
0.115568
0.115988
0.116402
0.116813
0.117243
0.117675
0.118111
0.11856
0.119039
0.11948
0.119929
0.119229
0.114701
0.0949586
0.0950783
0.0955715
0.0960467
0.0966459
0.0972109
0.0978647
0.0985157
0.0991642
)
;

boundaryField
{
    inlet
    {
        type            fixedValue;
        value           uniform 0;
    }
    outlet
    {
        type            zeroGradient;
    }
    yzfaces
    {
        type            empty;
    }
}


// ************************************************************************* //
