/*--------------------------------*- C++ -*----------------------------------*\
| =========                 |                                                 |
| \\      /  F ield         | foam-extend: Open Source CFD                    |
|  \\    /   O peration     | Version:     5.0                                |
|   \\  /    A nd           | Web:         http://www.foam-extend.org         |
|    \\/     M anipulation  |                                                 |
\*---------------------------------------------------------------------------*/
FoamFile
{
    version     2.0;
    format      ascii;
    class       volScalarField;
    location    "6";
    object      H2O.water;
}
// * * * * * * * * * * * * * * * * * * * * * * * * * * * * * * * * * * * * * //

dimensions      [0 0 0 0 0 0 0];

internalField   nonuniform List<scalar> 
100
(
0.0297525
0.040048
0.0471463
0.0506625
0.0541217
0.0585456
0.0623544
0.0652482
0.0680037
0.0706829
0.0726997
0.0747371
0.0766509
0.0783207
0.0800183
0.0812221
0.0823705
0.0836342
0.0844561
0.0850684
0.0859921
0.0868586
0.0877936
0.0888628
0.0898691
0.090734
0.0915977
0.0923018
0.0929512
0.0936607
0.0943007
0.0949286
0.0955096
0.0962315
0.096852
0.0974939
0.0979579
0.0985732
0.0991514
0.0995698
0.100018
0.100491
0.10095
0.101357
0.101941
0.10246
0.102875
0.103443
0.103935
0.104374
0.104812
0.105193
0.105651
0.106054
0.106417
0.106786
0.107194
0.107592
0.107942
0.108311
0.108657
0.108997
0.109374
0.109727
0.110065
0.110402
0.110768
0.111125
0.111485
0.111821
0.112191
0.112586
0.11304
0.113454
0.113861
0.114232
0.114689
0.115143
0.115582
0.115997
0.116407
0.116825
0.11724
0.117658
0.118095
0.118552
0.119018
0.119512
0.120039
0.120561
0.121085
0.121653
0.122227
0.122836
0.123495
0.124176
0.124934
0.125751
0.12663
0.127586
)
;

boundaryField
{
    inlet
    {
        type            fixedValue;
        value           uniform 0;
    }
    outlet
    {
        type            zeroGradient;
    }
    yzfaces
    {
        type            empty;
    }
}


// ************************************************************************* //
