/*--------------------------------*- C++ -*----------------------------------*\
| =========                 |                                                 |
| \\      /  F ield         | foam-extend: Open Source CFD                    |
|  \\    /   O peration     | Version:     5.0                                |
|   \\  /    A nd           | Web:         http://www.foam-extend.org         |
|    \\/     M anipulation  |                                                 |
\*---------------------------------------------------------------------------*/
FoamFile
{
    version     2.0;
    format      ascii;
    class       volScalarField;
    location    "6";
    object      H2O.gas;
}
// * * * * * * * * * * * * * * * * * * * * * * * * * * * * * * * * * * * * * //

dimensions      [0 0 0 0 0 0 0];

internalField   nonuniform List<scalar> 
100
(
0.000312056
0.00028509
0.000267338
0.000257717
0.000247522
0.000237252
0.000226359
0.000218607
0.000211547
0.00020491
0.000199189
0.000193442
0.000189073
0.000184025
0.000180207
0.000177426
0.000173415
0.00017042
0.000168914
0.00016694
0.00016452
0.000162491
0.000159898
0.000156639
0.000154503
0.000152011
0.000149814
0.00014771
0.00014623
0.000144485
0.000142656
0.000140842
0.000139296
0.000137577
0.00013625
0.000134925
0.000133652
0.000132124
0.000130706
0.000129333
0.000127899
0.000126701
0.000125297
0.000123702
0.000122246
0.000121103
0.000119969
0.0001187
0.000117343
0.000116197
0.000115044
0.000113962
0.000112875
0.000111933
0.000110882
0.000109773
0.000108719
0.000107986
0.000106913
0.000106006
0.000105119
0.000104162
0.000103114
0.000102207
0.000101298
0.000100464
9.95091e-05
9.84828e-05
9.75269e-05
9.65551e-05
9.54637e-05
9.4477e-05
9.34182e-05
9.22668e-05
9.12009e-05
9.0232e-05
8.90844e-05
8.80872e-05
8.70138e-05
8.59163e-05
8.48365e-05
8.37567e-05
8.26314e-05
8.15005e-05
8.03599e-05
7.91782e-05
7.79275e-05
7.67332e-05
7.54285e-05
7.41023e-05
7.2689e-05
0.0137234
0.0176079
0.0204177
0.0224217
0.0238665
0.0248061
0.0253514
0.0255029
0.025268
)
;

boundaryField
{
    inlet
    {
        type            fixedValue;
        value           uniform 0;
    }
    outlet
    {
        type            zeroGradient;
    }
    yzfaces
    {
        type            empty;
    }
}


// ************************************************************************* //
