/*--------------------------------*- C++ -*----------------------------------*\
| =========                 |                                                 |
| \\      /  F ield         | foam-extend: Open Source CFD                    |
|  \\    /   O peration     | Version:     5.0                                |
|   \\  /    A nd           | Web:         http://www.foam-extend.org         |
|    \\/     M anipulation  |                                                 |
\*---------------------------------------------------------------------------*/
FoamFile
{
    version     2.0;
    format      ascii;
    class       volScalarField;
    location    "6";
    object      H2O.gas;
}
// * * * * * * * * * * * * * * * * * * * * * * * * * * * * * * * * * * * * * //

dimensions      [0 0 0 0 0 0 0];

internalField   nonuniform List<scalar> 
100
(
0.000311624
0.000284688
0.00026615
0.000256864
0.000247786
0.000236283
0.000226276
0.000218706
0.00021149
0.000204503
0.000199189
0.00019387
0.000188902
0.000184495
0.000180082
0.000176936
0.000173891
0.000170622
0.000168476
0.000166823
0.000164427
0.000162157
0.000159696
0.000156902
0.000154302
0.000152004
0.000149775
0.000147924
0.000146213
0.000144363
0.000142684
0.000141034
0.000139511
0.000137641
0.000136004
0.000134345
0.000133105
0.000131489
0.000129986
0.000128887
0.000127712
0.000126485
0.000125289
0.000124191
0.000122692
0.000121333
0.000120232
0.00011877
0.000117458
0.00011631
0.000115176
0.000114171
0.00011298
0.000111917
0.000110962
0.000109992
0.00010894
0.000107904
0.000106985
0.000106019
0.000105104
0.000104204
0.000103235
0.00010231
0.00010142
0.000100534
9.95785e-05
9.86381e-05
9.76976e-05
9.68132e-05
9.58445e-05
9.48093e-05
9.36341e-05
9.25389e-05
9.14766e-05
9.04968e-05
8.93147e-05
8.81312e-05
8.69823e-05
8.58947e-05
8.48208e-05
8.37279e-05
8.26385e-05
8.1542e-05
8.04001e-05
7.92016e-05
7.79796e-05
7.66922e-05
7.53228e-05
7.39494e-05
7.25702e-05
7.10947e-05
6.95823e-05
6.79931e-05
6.62718e-05
6.44814e-05
6.25047e-05
6.03689e-05
5.80624e-05
5.55502e-05
)
;

boundaryField
{
    inlet
    {
        type            fixedValue;
        value           uniform 0;
    }
    outlet
    {
        type            zeroGradient;
    }
    yzfaces
    {
        type            empty;
    }
}


// ************************************************************************* //
