/*--------------------------------*- C++ -*----------------------------------*\
| =========                 |                                                 |
| \\      /  F ield         | foam-extend: Open Source CFD                    |
|  \\    /   O peration     | Version:     5.0                                |
|   \\  /    A nd           | Web:         http://www.foam-extend.org         |
|    \\/     M anipulation  |                                                 |
\*---------------------------------------------------------------------------*/
FoamFile
{
    version     2.0;
    format      ascii;
    class       volScalarField;
    location    "6";
    object      Na.water;
}
// * * * * * * * * * * * * * * * * * * * * * * * * * * * * * * * * * * * * * //

dimensions      [0 0 0 0 0 0 0];

internalField   nonuniform List<scalar> 
100
(
0.00458983
0.00617567
0.00725827
0.00782348
0.00836663
0.00903024
0.0096308
0.0100764
0.0105035
0.0109155
0.0112317
0.0115385
0.0118213
0.0120879
0.0123448
0.0125309
0.0127169
0.0129
0.0130272
0.0131324
0.0132708
0.0134078
0.0135578
0.013719
0.0138655
0.0140053
0.0141314
0.014244
0.0143471
0.0144528
0.014552
0.0146518
0.0147436
0.0148495
0.014948
0.0150424
0.0151251
0.0152163
0.0152971
0.0153612
0.015438
0.0155082
0.0155744
0.0156454
0.015728
0.0158037
0.0158749
0.0159608
0.0160416
0.0161028
0.0161705
0.0162296
0.0162996
0.016366
0.0164223
0.0164806
0.0165377
0.0166002
0.0166567
0.016715
0.0167705
0.0168234
0.0168769
0.0169377
0.0169945
0.0170447
0.0170949
0.01715
0.0172061
0.0172583
0.0173197
0.0173794
0.0174506
0.017514
0.0175761
0.0176337
0.017699
0.0177685
0.0178342
0.0178967
0.0179587
0.0180211
0.0180871
0.0181528
0.0182213
0.0182958
0.0183697
0.0184467
0.0185226
0.0186065
0.0186899
0.0187776
0.0188638
0.0189539
0.0190514
0.0191581
0.0192736
0.0194036
0.0195442
0.0197015
)
;

boundaryField
{
    inlet
    {
        type            fixedValue;
        value           uniform 0;
    }
    outlet
    {
        type            zeroGradient;
    }
    yzfaces
    {
        type            empty;
    }
}


// ************************************************************************* //
