/*--------------------------------*- C++ -*----------------------------------*\
| =========                 |                                                 |
| \\      /  F ield         | foam-extend: Open Source CFD                    |
|  \\    /   O peration     | Version:     5.0                                |
|   \\  /    A nd           | Web:         http://www.foam-extend.org         |
|    \\/     M anipulation  |                                                 |
\*---------------------------------------------------------------------------*/
FoamFile
{
    version     2.0;
    format      ascii;
    class       volScalarField;
    location    "6";
    object      Na.water;
}
// * * * * * * * * * * * * * * * * * * * * * * * * * * * * * * * * * * * * * //

dimensions      [0 0 0 0 0 0 0];

internalField   nonuniform List<scalar> 
100
(
0.00456472
0.0061513
0.00720013
0.00776989
0.00837936
0.00899078
0.00962088
0.0100825
0.0104916
0.0108812
0.0112245
0.0115601
0.0118236
0.01212
0.0123409
0.0125089
0.0127352
0.0129145
0.013009
0.0131215
0.0132636
0.0133869
0.013537
0.0137275
0.0138627
0.0140072
0.0141374
0.0142582
0.014345
0.0144406
0.0145522
0.0146621
0.0147533
0.0148474
0.0149281
0.0150086
0.0150832
0.0151729
0.0152561
0.0153365
0.0154206
0.0154975
0.0155774
0.0156675
0.0157567
0.0158301
0.0158965
0.0159718
0.0160518
0.016123
0.016192
0.0162583
0.0163227
0.0163803
0.0164366
0.0165001
0.0165653
0.0166094
0.0166687
0.0167295
0.0167827
0.0168377
0.0168919
0.0169437
0.0169989
0.0170514
0.0171059
0.0171637
0.0172222
0.0172805
0.0173438
0.0174062
0.0174674
0.0175333
0.0175976
0.0176522
0.0177145
0.0177767
0.0178361
0.017897
0.0179537
0.0180182
0.0180896
0.018158
0.0182251
0.0182955
0.018379
0.0184629
0.018568
0.0192476
0.0218594
0.0341598
0.0345397
0.0347611
0.034949
0.0351674
0.0353611
0.0355958
0.0358257
0.0360582
)
;

boundaryField
{
    inlet
    {
        type            fixedValue;
        value           uniform 0;
    }
    outlet
    {
        type            zeroGradient;
    }
    yzfaces
    {
        type            empty;
    }
}


// ************************************************************************* //
