/*--------------------------------*- C++ -*----------------------------------*\
| =========                 |                                                 |
| \\      /  F ield         | foam-extend: Open Source CFD                    |
|  \\    /   O peration     | Version:     5.0                                |
|   \\  /    A nd           | Web:         http://www.foam-extend.org         |
|    \\/     M anipulation  |                                                 |
\*---------------------------------------------------------------------------*/
FoamFile
{
    version     2.0;
    format      ascii;
    class       volScalarField;
    location    "6";
    object      Ns;
}
// * * * * * * * * * * * * * * * * * * * * * * * * * * * * * * * * * * * * * //

dimensions      [0 -3 0 0 1 0 0];

internalField   nonuniform List<scalar> 
100
(
2107.16
2024.36
1974.09
2006.22
1951.34
1898.62
1906.06
1857.38
1845.51
1817.48
1820.87
1820.29
1837.09
1770.09
1827.28
1793.3
1776.19
1813.71
1783.13
1811.97
1761.56
1793.3
1794.73
1795.36
1786.9
1757.33
2159.55
1899.24
1796.97
1770.68
1775.13
1789.17
1783.43
1786.22
1762.16
1780.13
1794.98
1777.21
1781.25
1762.54
1780.19
1798.7
1769.13
1761.9
2130.29
1858.57
1779.76
1795.66
1785.1
1771.42
1773.53
1757.51
1780.37
1782.59
1777.01
1777.29
1784.02
1787.94
1783.93
1771.09
1790.58
1784.16
2142.87
1856.88
1799.07
1802.02
1787.47
1762.46
1774.14
1786.18
1774.92
1775.52
1771.68
1767.83
1778.18
1762.89
1740.56
2128.57
1853.2
1800.31
1781.97
1779.77
1776.19
1825.93
1838.97
1890.49
1907.3
1922.86
1972.99
1698.49
1534.69
2
2
2
2
2
2
2
2
2
)
;

boundaryField
{
    inlet
    {
        type            fixedValue;
        value           uniform 0;
    }
    outlet
    {
        type            zeroGradient;
    }
    yzfaces
    {
        type            empty;
    }
}


// ************************************************************************* //
