/*--------------------------------*- C++ -*----------------------------------*\
| =========                 |                                                 |
| \\      /  F ield         | foam-extend: Open Source CFD                    |
|  \\    /   O peration     | Version:     5.0                                |
|   \\  /    A nd           | Web:         http://www.foam-extend.org         |
|    \\/     M anipulation  |                                                 |
\*---------------------------------------------------------------------------*/
FoamFile
{
    version     2.0;
    format      ascii;
    class       surfaceScalarField;
    location    "6";
    object      phi;
}
// * * * * * * * * * * * * * * * * * * * * * * * * * * * * * * * * * * * * * //

dimensions      [0 3 -1 0 0 0 0];

internalField   nonuniform List<scalar> 
99
(
1.22075e-06
1.23315e-06
1.23044e-06
1.23722e-06
1.23164e-06
1.21752e-06
1.21791e-06
1.21268e-06
1.20928e-06
1.20789e-06
1.20618e-06
1.20533e-06
1.20507e-06
1.21193e-06
1.21472e-06
1.21252e-06
1.21495e-06
1.22095e-06
1.21441e-06
1.21439e-06
1.21377e-06
1.2155e-06
1.21931e-06
1.22493e-06
1.21713e-06
1.21678e-06
1.21776e-06
1.22047e-06
1.22059e-06
1.22044e-06
1.22203e-06
1.22131e-06
1.22161e-06
1.22523e-06
1.22355e-06
1.22092e-06
1.22319e-06
1.22353e-06
1.22382e-06
1.22714e-06
1.22654e-06
1.22389e-06
1.22321e-06
1.22604e-06
1.2278e-06
1.22731e-06
1.22795e-06
1.22905e-06
1.22897e-06
1.2293e-06
1.22629e-06
1.22387e-06
1.22599e-06
1.22304e-06
1.22226e-06
1.22432e-06
1.22605e-06
1.22411e-06
1.22799e-06
1.2284e-06
1.2248e-06
1.22705e-06
1.22709e-06
1.22641e-06
1.22611e-06
1.2236e-06
1.22046e-06
1.22246e-06
1.22092e-06
1.21987e-06
1.21966e-06
1.21615e-06
1.21615e-06
1.21284e-06
1.21315e-06
1.21157e-06
1.21424e-06
1.21375e-06
1.21282e-06
1.21169e-06
1.21322e-06
1.21289e-06
1.21177e-06
1.2118e-06
1.21129e-06
1.2103e-06
1.21104e-06
1.20874e-06
1.20911e-06
1.20868e-06
1.20779e-06
1.20834e-06
1.20942e-06
1.20978e-06
1.20979e-06
1.20963e-06
1.2105e-06
1.21093e-06
1.21093e-06
)
;

boundaryField
{
    inlet
    {
        type            calculated;
        value           uniform -1.225e-06;
    }
    outlet
    {
        type            calculated;
        value           uniform 1.20914e-06;
    }
    yzfaces
    {
        type            empty;
    }
}


// ************************************************************************* //
