/*--------------------------------*- C++ -*----------------------------------*\
| =========                 |                                                 |
| \\      /  F ield         | foam-extend: Open Source CFD                    |
|  \\    /   O peration     | Version:     5.0                                |
|   \\  /    A nd           | Web:         http://www.foam-extend.org         |
|    \\/     M anipulation  |                                                 |
\*---------------------------------------------------------------------------*/
FoamFile
{
    version     2.0;
    format      ascii;
    class       surfaceScalarField;
    location    "6";
    object      phi;
}
// * * * * * * * * * * * * * * * * * * * * * * * * * * * * * * * * * * * * * //

dimensions      [0 3 -1 0 0 0 0];

internalField   nonuniform List<scalar> 
99
(
1.22671e-06
1.21674e-06
1.22664e-06
1.21592e-06
1.19945e-06
1.20479e-06
1.19469e-06
1.19669e-06
1.18812e-06
1.19007e-06
1.18062e-06
1.17452e-06
1.1832e-06
1.17533e-06
1.18048e-06
1.18168e-06
1.18238e-06
1.18333e-06
1.18926e-06
1.18501e-06
1.18112e-06
1.17881e-06
1.1747e-06
1.17245e-06
1.17844e-06
1.17787e-06
1.18305e-06
1.18129e-06
1.18248e-06
1.18328e-06
1.18194e-06
1.18307e-06
1.1841e-06
1.1867e-06
1.18662e-06
1.19237e-06
1.19216e-06
1.18822e-06
1.19021e-06
1.18852e-06
1.18648e-06
1.18808e-06
1.19108e-06
1.18578e-06
1.188e-06
1.18784e-06
1.18744e-06
1.19171e-06
1.18859e-06
1.18763e-06
1.18954e-06
1.18802e-06
1.18937e-06
1.18955e-06
1.18668e-06
1.18363e-06
1.18531e-06
1.18697e-06
1.18982e-06
1.18982e-06
1.18861e-06
1.18726e-06
1.18946e-06
1.19082e-06
1.19055e-06
1.18974e-06
1.18943e-06
1.18702e-06
1.18434e-06
1.18326e-06
1.17905e-06
1.17756e-06
1.17511e-06
1.1721e-06
1.16969e-06
1.16765e-06
1.16564e-06
1.16469e-06
1.1646e-06
1.16407e-06
1.1645e-06
1.16376e-06
1.16258e-06
1.16282e-06
1.16139e-06
1.16055e-06
1.1583e-06
1.15915e-06
1.16053e-06
1.16029e-06
1.15853e-06
1.16024e-06
1.15752e-06
1.15791e-06
1.15691e-06
1.15628e-06
1.15651e-06
1.15737e-06
1.15674e-06
)
;

boundaryField
{
    inlet
    {
        type            calculated;
        value           uniform -1.225e-06;
    }
    outlet
    {
        type            calculated;
        value           uniform 1.15406e-06;
    }
    yzfaces
    {
        type            empty;
    }
}


// ************************************************************************* //
