/*--------------------------------*- C++ -*----------------------------------*\
| =========                 |                                                 |
| \\      /  F ield         | foam-extend: Open Source CFD                    |
|  \\    /   O peration     | Version:     5.0                                |
|   \\  /    A nd           | Web:         http://www.foam-extend.org         |
|    \\/     M anipulation  |                                                 |
\*---------------------------------------------------------------------------*/
FoamFile
{
    version     2.0;
    format      ascii;
    class       surfaceScalarField;
    location    "6";
    object      phi.water;
}
// * * * * * * * * * * * * * * * * * * * * * * * * * * * * * * * * * * * * * //

dimensions      [0 3 -1 0 0 0 0];

internalField   nonuniform List<scalar> 
99
(
9.25296e-08
1.5902e-07
2.24904e-07
2.57182e-07
2.89087e-07
3.45542e-07
4.00173e-07
4.46904e-07
4.9359e-07
5.47691e-07
5.8704e-07
6.32218e-07
6.83331e-07
7.23463e-07
7.78707e-07
8.13925e-07
8.50732e-07
8.96004e-07
9.29406e-07
9.46764e-07
9.78374e-07
1.00908e-06
1.04096e-06
1.08408e-06
1.13298e-06
1.17072e-06
1.21665e-06
1.24955e-06
1.28252e-06
1.3183e-06
1.35076e-06
1.38453e-06
1.41749e-06
1.46284e-06
1.49728e-06
1.54585e-06
1.5713e-06
1.60559e-06
1.64486e-06
1.66961e-06
1.69828e-06
1.73164e-06
1.76609e-06
1.78634e-06
1.83296e-06
1.87045e-06
1.8998e-06
1.94857e-06
1.9833e-06
2.01603e-06
2.05352e-06
2.08323e-06
2.12329e-06
2.15778e-06
2.18377e-06
2.20884e-06
2.24901e-06
2.28733e-06
2.32443e-06
2.35703e-06
2.38766e-06
2.41512e-06
2.45833e-06
2.49338e-06
2.52685e-06
2.55727e-06
2.59233e-06
2.62315e-06
2.65357e-06
2.68531e-06
2.71477e-06
2.75055e-06
2.79408e-06
2.83123e-06
2.86984e-06
2.90564e-06
2.9505e-06
2.99938e-06
3.04879e-06
3.09363e-06
3.1428e-06
3.18894e-06
3.23515e-06
3.28576e-06
3.3337e-06
3.38559e-06
3.43606e-06
3.4992e-06
3.56963e-06
3.63264e-06
3.69353e-06
3.77e-06
3.8343e-06
3.91394e-06
3.9951e-06
4.08039e-06
4.17888e-06
4.28587e-06
4.39557e-06
)
;

boundaryField
{
    inlet
    {
        type            fixedValue;
        value           uniform 0;
    }
    outlet
    {
        type            calculated;
        value           uniform 4.52521e-06;
    }
    yzfaces
    {
        type            empty;
    }
}


// ************************************************************************* //
