/*--------------------------------*- C++ -*----------------------------------*\
| =========                 |                                                 |
| \\      /  F ield         | foam-extend: Open Source CFD                    |
|  \\    /   O peration     | Version:     5.0                                |
|   \\  /    A nd           | Web:         http://www.foam-extend.org         |
|    \\/     M anipulation  |                                                 |
\*---------------------------------------------------------------------------*/
FoamFile
{
    version     2.0;
    format      ascii;
    class       volVectorField;
    location    "6";
    object      U.gas;
}
// * * * * * * * * * * * * * * * * * * * * * * * * * * * * * * * * * * * * * //

dimensions      [0 1 -1 0 0 0 0];

internalField   nonuniform List<vector> 
100
(
(0.00624271 0 0)
(0.00678433 0 0)
(0.0072255 0 0)
(0.00745677 0 0)
(0.00761987 0 0)
(0.00792003 0 0)
(0.00820985 0 0)
(0.00842106 0 0)
(0.00863983 0 0)
(0.00885978 0 0)
(0.00901747 0 0)
(0.00915394 0 0)
(0.00935115 0 0)
(0.00952336 0 0)
(0.00968664 0 0)
(0.00983141 0 0)
(0.00996375 0 0)
(0.0101081 0 0)
(0.0102176 0 0)
(0.0102898 0 0)
(0.0103627 0 0)
(0.0104303 0 0)
(0.0105094 0 0)
(0.0106051 0 0)
(0.0107319 0 0)
(0.0108531 0 0)
(0.0109713 0 0)
(0.0110619 0 0)
(0.011131 0 0)
(0.0112241 0 0)
(0.0112921 0 0)
(0.0113625 0 0)
(0.0114372 0 0)
(0.0115412 0 0)
(0.0116197 0 0)
(0.0117187 0 0)
(0.0117886 0 0)
(0.0118453 0 0)
(0.0118963 0 0)
(0.0119343 0 0)
(0.011964 0 0)
(0.0120121 0 0)
(0.0120841 0 0)
(0.0121135 0 0)
(0.0121668 0 0)
(0.012225 0 0)
(0.0122563 0 0)
(0.0123431 0 0)
(0.0123914 0 0)
(0.0124045 0 0)
(0.0124502 0 0)
(0.012481 0 0)
(0.0125249 0 0)
(0.0125624 0 0)
(0.0125731 0 0)
(0.0125724 0 0)
(0.0125996 0 0)
(0.0126452 0 0)
(0.0126894 0 0)
(0.0127332 0 0)
(0.012747 0 0)
(0.0127551 0 0)
(0.012785 0 0)
(0.0128214 0 0)
(0.0128443 0 0)
(0.012855 0 0)
(0.0128714 0 0)
(0.012872 0 0)
(0.0128593 0 0)
(0.0128486 0 0)
(0.0128357 0 0)
(0.0128209 0 0)
(0.0128197 0 0)
(0.0127913 0 0)
(0.0127653 0 0)
(0.0127371 0 0)
(0.0127303 0 0)
(0.0127132 0 0)
(0.0127004 0 0)
(0.012688 0 0)
(0.0126779 0 0)
(0.0126651 0 0)
(0.0126392 0 0)
(0.0126153 0 0)
(0.0125904 0 0)
(0.0125568 0 0)
(0.0125114 0 0)
(0.0124729 0 0)
(0.0124469 0 0)
(0.0124029 0 0)
(0.0123376 0 0)
(0.0122809 0 0)
(0.0122051 0 0)
(0.0121123 0 0)
(0.0120182 0 0)
(0.0118972 0 0)
(0.0117733 0 0)
(0.0116288 0 0)
(0.0114472 0 0)
(0.0112091 0 0)
)
;

boundaryField
{
    inlet
    {
        type            fixedValue;
        value           uniform (0.005 0 0);
    }
    outlet
    {
        type            zeroGradient;
    }
    yzfaces
    {
        type            empty;
    }
}


// ************************************************************************* //
