/*--------------------------------*- C++ -*----------------------------------*\
| =========                 |                                                 |
| \\      /  F ield         | foam-extend: Open Source CFD                    |
|  \\    /   O peration     | Version:     5.0                                |
|   \\  /    A nd           | Web:         http://www.foam-extend.org         |
|    \\/     M anipulation  |                                                 |
\*---------------------------------------------------------------------------*/
FoamFile
{
    version     2.0;
    format      ascii;
    class       volVectorField;
    location    "6";
    object      U.gas;
}
// * * * * * * * * * * * * * * * * * * * * * * * * * * * * * * * * * * * * * //

dimensions      [0 1 -1 0 0 0 0];

internalField   nonuniform List<vector> 
100
(
(0.0062191 0 0)
(0.0068041 0 0)
(0.00725447 0 0)
(0.00751074 0 0)
(0.00779773 0 0)
(0.0080366 0 0)
(0.0083319 0 0)
(0.00856334 0 0)
(0.00877198 0 0)
(0.00898829 0 0)
(0.00918363 0 0)
(0.00939188 0 0)
(0.00954972 0 0)
(0.00978149 0 0)
(0.00996921 0 0)
(0.0100787 0 0)
(0.0102585 0 0)
(0.0104141 0 0)
(0.0104618 0 0)
(0.0105233 0 0)
(0.0106301 0 0)
(0.0107188 0 0)
(0.010865 0 0)
(0.0110619 0 0)
(0.0111335 0 0)
(0.0112133 0 0)
(0.0113116 0 0)
(0.0114219 0 0)
(0.0114913 0 0)
(0.0115742 0 0)
(0.0116649 0 0)
(0.0117498 0 0)
(0.011812 0 0)
(0.0119111 0 0)
(0.0119707 0 0)
(0.0120076 0 0)
(0.012061 0 0)
(0.0121463 0 0)
(0.0122081 0 0)
(0.0122848 0 0)
(0.0123599 0 0)
(0.0123862 0 0)
(0.0124339 0 0)
(0.0125161 0 0)
(0.0125935 0 0)
(0.012636 0 0)
(0.0126804 0 0)
(0.012742 0 0)
(0.0128023 0 0)
(0.0128385 0 0)
(0.0128655 0 0)
(0.0128709 0 0)
(0.0129058 0 0)
(0.0129283 0 0)
(0.0129459 0 0)
(0.0129891 0 0)
(0.0130404 0 0)
(0.0130466 0 0)
(0.0131023 0 0)
(0.0131406 0 0)
(0.0131452 0 0)
(0.0131665 0 0)
(0.0132084 0 0)
(0.0132172 0 0)
(0.0132333 0 0)
(0.0132322 0 0)
(0.0132245 0 0)
(0.0132385 0 0)
(0.0132525 0 0)
(0.013254 0 0)
(0.0132684 0 0)
(0.0132525 0 0)
(0.0132479 0 0)
(0.0132442 0 0)
(0.0132264 0 0)
(0.0132147 0 0)
(0.0132351 0 0)
(0.0132328 0 0)
(0.0132263 0 0)
(0.0132116 0 0)
(0.0132018 0 0)
(0.0131948 0 0)
(0.0131756 0 0)
(0.0131506 0 0)
(0.0131247 0 0)
(0.0130926 0 0)
(0.0130658 0 0)
(0.013017 0 0)
(0.0129711 0 0)
(0.0129225 0 0)
(0.0128657 0 0)
(0.0128007 0 0)
(0.0127389 0 0)
(0.0126572 0 0)
(0.0125637 0 0)
(0.0124485 0 0)
(0.0123194 0 0)
(0.0121668 0 0)
(0.0119821 0 0)
(0.0117456 0 0)
)
;

boundaryField
{
    inlet
    {
        type            fixedValue;
        value           uniform (0.005 0 0);
    }
    outlet
    {
        type            zeroGradient;
    }
    yzfaces
    {
        type            empty;
    }
}


// ************************************************************************* //
