/*--------------------------------*- C++ -*----------------------------------*\
| =========                 |                                                 |
| \\      /  F ield         | foam-extend: Open Source CFD                    |
|  \\    /   O peration     | Version:     5.0                                |
|   \\  /    A nd           | Web:         http://www.foam-extend.org         |
|    \\/     M anipulation  |                                                 |
\*---------------------------------------------------------------------------*/
FoamFile
{
    version     2.0;
    format      ascii;
    class       volVectorField;
    location    "6";
    object      U.water;
}
// * * * * * * * * * * * * * * * * * * * * * * * * * * * * * * * * * * * * * //

dimensions      [0 1 -1 0 0 0 0];

internalField   nonuniform List<vector> 
100
(
(4.37567e-05 0 0)
(0.000103345 0 0)
(0.000154498 0 0)
(0.000196262 0 0)
(0.000227914 0 0)
(0.000263463 0 0)
(0.000305812 0 0)
(0.000351295 0 0)
(0.000390494 0 0)
(0.000431155 0 0)
(0.000471032 0 0)
(0.000510561 0 0)
(0.000550868 0 0)
(0.000589913 0 0)
(0.000632611 0 0)
(0.000665633 0 0)
(0.000696879 0 0)
(0.000737182 0 0)
(0.000764738 0 0)
(0.000781215 0 0)
(0.00080568 0 0)
(0.000833809 0 0)
(0.000862852 0 0)
(0.000902546 0 0)
(0.000940431 0 0)
(0.000969084 0 0)
(0.0010036 0 0)
(0.00103805 0 0)
(0.00106876 0 0)
(0.00109401 0 0)
(0.0011239 0 0)
(0.00115551 0 0)
(0.00118497 0 0)
(0.00121573 0 0)
(0.00124583 0 0)
(0.0012686 0 0)
(0.00129307 0 0)
(0.00132125 0 0)
(0.00135126 0 0)
(0.00138144 0 0)
(0.00141277 0 0)
(0.00144018 0 0)
(0.0014657 0 0)
(0.00149969 0 0)
(0.00153798 0 0)
(0.00156961 0 0)
(0.00159684 0 0)
(0.00162696 0 0)
(0.00165932 0 0)
(0.00169137 0 0)
(0.00171913 0 0)
(0.00174502 0 0)
(0.00177363 0 0)
(0.00179998 0 0)
(0.00182427 0 0)
(0.00185506 0 0)
(0.00188771 0 0)
(0.00191381 0 0)
(0.00194043 0 0)
(0.00197385 0 0)
(0.00199806 0 0)
(0.00202392 0 0)
(0.002056 0 0)
(0.00208626 0 0)
(0.00211307 0 0)
(0.00213779 0 0)
(0.00216147 0 0)
(0.00219263 0 0)
(0.00222536 0 0)
(0.00225443 0 0)
(0.00228718 0 0)
(0.00231897 0 0)
(0.00235009 0 0)
(0.00238459 0 0)
(0.00242085 0 0)
(0.002456 0 0)
(0.00249391 0 0)
(0.00253587 0 0)
(0.00257198 0 0)
(0.00260927 0 0)
(0.00265062 0 0)
(0.00269292 0 0)
(0.00273285 0 0)
(0.00277501 0 0)
(0.00281877 0 0)
(0.00286235 0 0)
(0.0029095 0 0)
(0.00295629 0 0)
(0.00300421 0 0)
(0.0030574 0 0)
(0.00311113 0 0)
(0.00317029 0 0)
(0.00323552 0 0)
(0.00330383 0 0)
(0.00337356 0 0)
(0.00344749 0 0)
(0.00352802 0 0)
(0.00361549 0 0)
(0.00370823 0 0)
(0.00380607 0 0)
)
;

boundaryField
{
    inlet
    {
        type            fixedValue;
        value           uniform (0 0 0);
    }
    outlet
    {
        type            zeroGradient;
    }
    yzfaces
    {
        type            empty;
    }
}


// ************************************************************************* //
