/*--------------------------------*- C++ -*----------------------------------*\
| =========                 |                                                 |
| \\      /  F ield         | foam-extend: Open Source CFD                    |
|  \\    /   O peration     | Version:     5.0                                |
|   \\  /    A nd           | Web:         http://www.foam-extend.org         |
|    \\/     M anipulation  |                                                 |
\*---------------------------------------------------------------------------*/
FoamFile
{
    version     2.0;
    format      ascii;
    class       volVectorField;
    location    "6";
    object      U.water;
}
// * * * * * * * * * * * * * * * * * * * * * * * * * * * * * * * * * * * * * //

dimensions      [0 1 -1 0 0 0 0];

internalField   nonuniform List<vector> 
100
(
(4.42953e-05 0 0)
(0.000103475 0 0)
(0.000155203 0 0)
(0.000197382 0 0)
(0.000224716 0 0)
(0.000259307 0 0)
(0.000303995 0 0)
(0.000346266 0 0)
(0.000384306 0 0)
(0.000424562 0 0)
(0.000463734 0 0)
(0.000497857 0 0)
(0.000536745 0 0)
(0.0005744 0 0)
(0.000612201 0 0)
(0.000649788 0 0)
(0.000679707 0 0)
(0.00071185 0 0)
(0.000744377 0 0)
(0.000766617 0 0)
(0.000785976 0 0)
(0.000811686 0 0)
(0.000837552 0 0)
(0.000867431 0 0)
(0.000904541 0 0)
(0.00094015 0 0)
(0.000973814 0 0)
(0.00100615 0 0)
(0.00103352 0 0)
(0.00106127 0 0)
(0.0010894 0 0)
(0.00111652 0 0)
(0.00114414 0 0)
(0.00117521 0 0)
(0.0012079 0 0)
(0.00124111 0 0)
(0.00127265 0 0)
(0.00129686 0 0)
(0.00132646 0 0)
(0.00135316 0 0)
(0.00137487 0 0)
(0.00139976 0 0)
(0.00142751 0 0)
(0.00145096 0 0)
(0.00147723 0 0)
(0.00151115 0 0)
(0.0015393 0 0)
(0.00157043 0 0)
(0.00160492 0 0)
(0.00163277 0 0)
(0.00166088 0 0)
(0.00168864 0 0)
(0.00171668 0 0)
(0.00174734 0 0)
(0.00177249 0 0)
(0.00179338 0 0)
(0.00181938 0 0)
(0.00185097 0 0)
(0.00188207 0 0)
(0.00191052 0 0)
(0.00193684 0 0)
(0.00196086 0 0)
(0.00198897 0 0)
(0.00202061 0 0)
(0.00204892 0 0)
(0.00207537 0 0)
(0.00210217 0 0)
(0.00212935 0 0)
(0.00215438 0 0)
(0.00218009 0 0)
(0.00220513 0 0)
(0.00223184 0 0)
(0.00226371 0 0)
(0.00229686 0 0)
(0.00232782 0 0)
(0.00235872 0 0)
(0.00239088 0 0)
(0.0024287 0 0)
(0.00246871 0 0)
(0.00250723 0 0)
(0.00254567 0 0)
(0.00258459 0 0)
(0.00262239 0 0)
(0.00266195 0 0)
(0.00270215 0 0)
(0.00274309 0 0)
(0.00278506 0 0)
(0.00283098 0 0)
(0.00288488 0 0)
(0.00293968 0 0)
(0.00299079 0 0)
(0.00304664 0 0)
(0.00310427 0 0)
(0.00316315 0 0)
(0.0032286 0 0)
(0.00329702 0 0)
(0.00337171 0 0)
(0.00345538 0 0)
(0.00354462 0 0)
(0.0036358 0 0)
)
;

boundaryField
{
    inlet
    {
        type            fixedValue;
        value           uniform (0 0 0);
    }
    outlet
    {
        type            zeroGradient;
    }
    yzfaces
    {
        type            empty;
    }
}


// ************************************************************************* //
