/*--------------------------------*- C++ -*----------------------------------*\
| =========                 |                                                 |
| \\      /  F ield         | foam-extend: Open Source CFD                    |
|  \\    /   O peration     | Version:     5.0                                |
|   \\  /    A nd           | Web:         http://www.foam-extend.org         |
|    \\/     M anipulation  |                                                 |
\*---------------------------------------------------------------------------*/
FoamFile
{
    version     2.0;
    format      ascii;
    class       volScalarField;
    location    "8.67533";
    object      CO2.water;
}
// * * * * * * * * * * * * * * * * * * * * * * * * * * * * * * * * * * * * * //

dimensions      [0 0 0 0 0 0 0];

internalField   nonuniform List<scalar> 
100
(
6.12326e-05
1.36363e-05
2.51028e-06
4.174e-07
6.50276e-08
9.67911e-09
1.39192e-09
1.94768e-10
2.66476e-11
3.57781e-12
4.72648e-13
6.15618e-14
7.91663e-15
1.0064e-15
1.26618e-16
1.57805e-17
1.94968e-18
2.38909e-19
2.90541e-20
3.50853e-21
4.20816e-22
5.01474e-23
5.94064e-24
6.99671e-25
8.19517e-26
9.54885e-27
1.10705e-27
1.27712e-28
1.46665e-29
1.67686e-30
1.90866e-31
2.16349e-32
2.44222e-33
2.74588e-34
3.07595e-35
3.43273e-36
3.81677e-37
4.22931e-38
4.67036e-39
5.14001e-40
5.63896e-41
6.16613e-42
6.72213e-43
7.30584e-44
7.91705e-45
8.55456e-46
9.21651e-47
9.90288e-48
1.06108e-48
1.13396e-49
1.20867e-50
1.28481e-51
1.36253e-52
1.44127e-53
1.52095e-54
1.60103e-55
1.68133e-56
1.76161e-57
1.84142e-58
1.92089e-59
1.99914e-60
2.07616e-61
2.15148e-62
2.22507e-63
2.29625e-64
2.36461e-65
2.43055e-66
2.49301e-67
2.55246e-68
2.60794e-69
2.65989e-70
2.70765e-71
2.75121e-72
2.79035e-73
2.82484e-74
2.85499e-75
2.88024e-76
2.90085e-77
2.91656e-78
2.92748e-79
2.93333e-80
2.93441e-81
2.93081e-82
2.92269e-83
2.90993e-84
2.89288e-85
2.87148e-86
2.84596e-87
2.8164e-88
2.78302e-89
2.7459e-90
2.70542e-91
2.66179e-92
2.61517e-93
2.5656e-94
2.51353e-95
2.45927e-96
2.40282e-97
2.34475e-98
2.28487e-99
)
;

boundaryField
{
    inlet
    {
        type            fixedValue;
        value           uniform 0;
    }
    outlet
    {
        type            zeroGradient;
    }
    yzfaces
    {
        type            empty;
    }
}


// ************************************************************************* //
