/*--------------------------------*- C++ -*----------------------------------*\
| =========                 |                                                 |
| \\      /  F ield         | foam-extend: Open Source CFD                    |
|  \\    /   O peration     | Version:     5.0                                |
|   \\  /    A nd           | Web:         http://www.foam-extend.org         |
|    \\/     M anipulation  |                                                 |
\*---------------------------------------------------------------------------*/
FoamFile
{
    version     2.0;
    format      ascii;
    class       volScalarField;
    location    "1";
    object      alpha.water;
}
// * * * * * * * * * * * * * * * * * * * * * * * * * * * * * * * * * * * * * //

dimensions      [0 0 0 0 0 0 0];

internalField   nonuniform List<scalar> 
100
(
0.0141468
0.0210505
0.0265378
0.0311729
0.0352067
0.0387812
0.0419952
0.0449112
0.0475793
0.0500326
0.0523067
0.0544267
0.0563999
0.0582531
0.0600093
0.0616555
0.0632221
0.0647031
0.0661195
0.0674658
0.0687557
0.0699875
0.071166
0.0723001
0.0733861
0.0744336
0.0754441
0.0764172
0.077359
0.0782685
0.0791462
0.0799942
0.0808219
0.0816211
0.0823969
0.0831529
0.0838884
0.0846015
0.0852981
0.0859758
0.086628
0.0872696
0.0879023
0.0885132
0.0891111
0.0896988
0.0902724
0.090837
0.0913772
0.0919121
0.0924403
0.0929492
0.0934506
0.0939468
0.0944256
0.0949018
0.0953723
0.095827
0.0962777
0.0967193
0.097152
0.0975778
0.0979921
0.0984025
0.0988038
0.0992009
0.0995853
0.0999688
0.100344
0.100712
0.101078
0.101441
0.101795
0.102143
0.102488
0.102829
0.103164
0.103495
0.10382
0.104141
0.104456
0.104768
0.105074
0.105377
0.105677
0.105973
0.106263
0.10655
0.106832
0.107113
0.107392
0.107663
0.107932
0.1082
0.108464
0.108727
0.108988
0.109242
0.109494
0.109749
)
;

boundaryField
{
    inlet
    {
        type            fixedValue;
        value           uniform 0;
    }
    outlet
    {
        type            zeroGradient;
    }
    yzfaces
    {
        type            empty;
    }
}


// ************************************************************************* //
