/*--------------------------------*- C++ -*----------------------------------*\
| =========                 |                                                 |
| \\      /  F ield         | foam-extend: Open Source CFD                    |
|  \\    /   O peration     | Version:     5.0                                |
|   \\  /    A nd           | Web:         http://www.foam-extend.org         |
|    \\/     M anipulation  |                                                 |
\*---------------------------------------------------------------------------*/
FoamFile
{
    version     2.0;
    format      ascii;
    class       surfaceScalarField;
    location    "1";
    object      phi;
}
// * * * * * * * * * * * * * * * * * * * * * * * * * * * * * * * * * * * * * //

dimensions      [0 3 -1 0 0 0 0];

internalField   nonuniform List<scalar> 
99
(
0.000122503
0.000122505
0.000122522
0.000122524
0.000122524
0.000122529
0.000122518
0.000122513
0.000122527
0.000122536
0.000122539
0.00012254
0.000122533
0.000122534
0.000122544
0.000122539
0.000122537
0.000122534
0.000122529
0.000122525
0.00012253
0.000122517
0.000122513
0.000122504
0.000122517
0.000122514
0.000122503
0.0001225
0.000122489
0.00012249
0.0001225
0.000122501
0.000122507
0.00012251
0.000122506
0.000122506
0.000122486
0.000122493
0.000122502
0.000122513
0.000122496
0.000122497
0.000122485
0.000122481
0.000122483
0.000122489
0.000122478
0.000122478
0.000122476
0.000122481
0.000122481
0.000122476
0.000122469
0.000122467
0.000122454
0.000122445
0.000122453
0.000122451
0.000122448
0.000122441
0.000122434
0.00012245
0.000122451
0.000122453
0.000122456
0.000122462
0.000122464
0.000122472
0.000122481
0.000122479
0.000122479
0.000122478
0.00012248
0.000122482
0.000122488
0.000122487
0.00012248
0.000122479
0.00012248
0.000122483
0.000122481
0.00012249
0.00012249
0.000122492
0.000122488
0.000122487
0.000122482
0.000122486
0.000122486
0.000122482
0.000122483
0.000122485
0.000122482
0.000122489
0.000122488
0.00012249
0.000122486
0.000122485
0.000122488
)
;

boundaryField
{
    inlet
    {
        type            calculated;
        value           uniform -0.0001225;
    }
    outlet
    {
        type            calculated;
        value           uniform 0.000122484;
    }
    yzfaces
    {
        type            empty;
    }
}


// ************************************************************************* //
