/*--------------------------------*- C++ -*----------------------------------*\
| =========                 |                                                 |
| \\      /  F ield         | foam-extend: Open Source CFD                    |
|  \\    /   O peration     | Version:     5.0                                |
|   \\  /    A nd           | Web:         http://www.foam-extend.org         |
|    \\/     M anipulation  |                                                 |
\*---------------------------------------------------------------------------*/
FoamFile
{
    version     2.0;
    format      ascii;
    class       volScalarField;
    location    "5";
    object      alpha.gas;
}
// * * * * * * * * * * * * * * * * * * * * * * * * * * * * * * * * * * * * * //

dimensions      [0 0 0 0 0 0 0];

internalField   nonuniform List<scalar> 
100
(
0.156731
0.142082
0.132465
0.125767
0.120241
0.115043
0.110788
0.106377
0.102392
0.098866
0.0961522
0.0939734
0.0916804
0.0893196
0.087493
0.0862
0.084859
0.0838091
0.082369
0.0805613
0.0790506
0.0778458
0.0766749
0.0753458
0.0740219
0.0729112
0.0719774
0.0711247
0.0700584
0.0689914
0.0680206
0.0671375
0.06637
0.0654531
0.0645413
0.0636942
0.0628902
0.0622442
0.0614616
0.0607319
0.060053
0.059285
0.0586749
0.0579888
0.0572989
0.0566929
0.055968
0.055358
0.0546869
0.0541205
0.0535225
0.0528979
0.0523434
0.0518598
0.0513372
0.0508074
0.0502152
0.0496293
0.0489394
0.0483735
0.0477764
0.04714
0.0464888
0.0458344
0.0451612
0.0444736
0.0438058
0.0430999
0.0424262
0.0417601
0.0410357
0.0402787
0.039521
0.0387732
0.0379681
0.0371601
0.0363133
0.0354362
0.0344614
0.0334437
0.0323448
0.0311739
0.0299063
0.0285224
0.0270252
0.0254083
0.0236498
0.0217923
0.019859
0.0179224
0.0160724
0.0144242
0.0130609
0.0120177
0.0112788
0.0107863
0.0104734
0.0102821
0.0101673
0.0100991
)
;

boundaryField
{
    inlet
    {
        type            fixedValue;
        value           uniform 0.2;
    }
    outlet
    {
        type            zeroGradient;
    }
    yzfaces
    {
        type            empty;
    }
}


// ************************************************************************* //
