/*--------------------------------*- C++ -*----------------------------------*\
| =========                 |                                                 |
| \\      /  F ield         | foam-extend: Open Source CFD                    |
|  \\    /   O peration     | Version:     5.0                                |
|   \\  /    A nd           | Web:         http://www.foam-extend.org         |
|    \\/     M anipulation  |                                                 |
\*---------------------------------------------------------------------------*/
FoamFile
{
    version     2.0;
    format      ascii;
    class       volScalarField;
    location    "5";
    object      CO2.water;
}
// * * * * * * * * * * * * * * * * * * * * * * * * * * * * * * * * * * * * * //

dimensions      [0 0 0 0 0 0 0];

internalField   nonuniform List<scalar> 
100
(
0.00114176
0.00151086
0.00177356
0.00194641
0.00208393
0.00221031
0.00234541
0.00245839
0.00255932
0.00264175
0.00271432
0.00277643
0.0028375
0.00289744
0.00294747
0.00297649
0.00302379
0.00306867
0.00311236
0.00314631
0.00318358
0.00321864
0.00325343
0.00328124
0.00330984
0.00333656
0.00336844
0.00339645
0.003421
0.00344538
0.00347034
0.00349572
0.0035177
0.00353798
0.0035605
0.00358214
0.00360136
0.0036165
0.00363729
0.00365588
0.00367449
0.00369043
0.00371129
0.00372884
0.00374612
0.00376376
0.00377995
0.00379587
0.00381431
0.00382881
0.00384319
0.00385846
0.00387431
0.00388994
0.00390312
0.00391823
0.00393351
0.00394793
0.00396385
0.00398019
0.00399815
0.00401464
0.0040312
0.00404836
0.00406584
0.00408413
0.00410242
0.00412028
0.0041381
0.00415628
0.00417545
0.000167137
3.4878e-05
7.50754e-06
1.67437e-06
3.90931e-07
9.72448e-08
2.57522e-08
7.21501e-09
2.13125e-09
6.60804e-10
2.14635e-10
7.28372e-11
2.55279e-11
9.17192e-12
3.33593e-12
1.20246e-12
4.30029e-13
1.44829e-13
4.63398e-14
1.31946e-14
3.16087e-15
4.95754e-16
1.59337e-17
4.64913e-17
1.00735e-16
1.10396e-16
9.43346e-17
6.95861e-17
6.95972e-17
)
;

boundaryField
{
    inlet
    {
        type            fixedValue;
        value           uniform 0;
    }
    outlet
    {
        type            zeroGradient;
    }
    yzfaces
    {
        type            empty;
    }
}


// ************************************************************************* //
