/*--------------------------------*- C++ -*----------------------------------*\
| =========                 |                                                 |
| \\      /  F ield         | foam-extend: Open Source CFD                    |
|  \\    /   O peration     | Version:     5.0                                |
|   \\  /    A nd           | Web:         http://www.foam-extend.org         |
|    \\/     M anipulation  |                                                 |
\*---------------------------------------------------------------------------*/
FoamFile
{
    version     2.0;
    format      ascii;
    class       volScalarField;
    location    "5";
    object      CO2.gas;
}
// * * * * * * * * * * * * * * * * * * * * * * * * * * * * * * * * * * * * * //

dimensions      [0 0 0 0 0 0 0];

internalField   nonuniform List<scalar> 
100
(
0.156426
0.141806
0.132207
0.125522
0.120007
0.114819
0.110572
0.10617
0.102193
0.0986735
0.0959649
0.0937904
0.0915018
0.0891456
0.0873226
0.0860321
0.0846937
0.0836459
0.0822086
0.0804044
0.0788966
0.0776942
0.0765256
0.0751991
0.0738778
0.0727692
0.0718372
0.0709862
0.069922
0.068857
0.0678881
0.0670067
0.0662408
0.0653256
0.0644156
0.0635702
0.0627677
0.062123
0.0613419
0.0606136
0.059936
0.0591695
0.0585607
0.0578759
0.0571873
0.0565825
0.055859
0.0552502
0.0545804
0.0540151
0.0534183
0.0527949
0.0522415
0.0517588
0.0512372
0.0507085
0.0501174
0.0495326
0.0488441
0.0482793
0.0476833
0.0470482
0.0463982
0.0457451
0.0450732
0.0443869
0.0437205
0.043016
0.0423435
0.0416787
0.0409558
0.0330571
0.0291956
0.025656
0.0223289
0.0193169
0.0165288
0.0140164
0.0117117
0.00966561
0.00785025
0.0062631
0.00489166
0.00372244
0.00275641
0.00197078
0.0013521
0.000882411
0.000541438
0.000309322
0.000162685
7.82053e-05
3.43466e-05
1.38988e-05
5.28915e-06
1.94206e-06
7.08236e-07
2.62918e-07
1.00414e-07
4.62961e-08
)
;

boundaryField
{
    inlet
    {
        type            fixedValue;
        value           uniform 0.2;
    }
    outlet
    {
        type            zeroGradient;
    }
    yzfaces
    {
        type            empty;
    }
}


// ************************************************************************* //
