/*--------------------------------*- C++ -*----------------------------------*\
| =========                 |                                                 |
| \\      /  F ield         | foam-extend: Open Source CFD                    |
|  \\    /   O peration     | Version:     5.0                                |
|   \\  /    A nd           | Web:         http://www.foam-extend.org         |
|    \\/     M anipulation  |                                                 |
\*---------------------------------------------------------------------------*/
FoamFile
{
    version     2.0;
    format      ascii;
    class       volScalarField;
    location    "5";
    object      H2O.water;
}
// * * * * * * * * * * * * * * * * * * * * * * * * * * * * * * * * * * * * * //

dimensions      [0 0 0 0 0 0 0];

internalField   nonuniform List<scalar> 
100
(
0.0247121
0.0322311
0.0376015
0.0407205
0.0439886
0.0466514
0.0502208
0.0531649
0.0555378
0.0572502
0.0586189
0.0600154
0.0614567
0.0627222
0.0638285
0.0641231
0.0651992
0.0664274
0.0673959
0.0676929
0.0686395
0.0693785
0.0701266
0.0706369
0.0712845
0.0718757
0.0726834
0.0732211
0.0737183
0.0741609
0.0748126
0.0753097
0.0757196
0.0761641
0.0767349
0.0772158
0.0775652
0.0776284
0.0781509
0.0784604
0.0790742
0.0793843
0.0798937
0.0802158
0.0806706
0.0811074
0.0813739
0.0816883
0.0821256
0.0821891
0.0823884
0.0826857
0.0830893
0.0835424
0.0837739
0.0841728
0.0844495
0.0846935
0.0851343
0.0855323
0.0860544
0.0863909
0.0867247
0.0871572
0.087554
0.0879594
0.0883804
0.0886711
0.0890925
0.0894912
0.0899316
0.0922465
0.0927575
0.0933235
0.0937143
0.0943234
0.0947675
0.0952125
0.0957974
0.0964247
0.0969871
0.0976882
0.098412
0.09919
0.100012
0.101046
0.102082
0.103167
0.10431
0.105441
0.10644
0.107478
0.108258
0.108839
0.109275
0.109567
0.109775
0.109802
0.109857
0.110036
)
;

boundaryField
{
    inlet
    {
        type            fixedValue;
        value           uniform 0;
    }
    outlet
    {
        type            zeroGradient;
    }
    yzfaces
    {
        type            empty;
    }
}


// ************************************************************************* //
