/*--------------------------------*- C++ -*----------------------------------*\
| =========                 |                                                 |
| \\      /  F ield         | foam-extend: Open Source CFD                    |
|  \\    /   O peration     | Version:     5.0                                |
|   \\  /    A nd           | Web:         http://www.foam-extend.org         |
|    \\/     M anipulation  |                                                 |
\*---------------------------------------------------------------------------*/
FoamFile
{
    version     2.0;
    format      ascii;
    class       volScalarField;
    location    "5";
    object      H2O.gas;
}
// * * * * * * * * * * * * * * * * * * * * * * * * * * * * * * * * * * * * * //

dimensions      [0 0 0 0 0 0 0];

internalField   nonuniform List<scalar> 
100
(
0.000304835
0.000277466
0.000257988
0.000245171
0.000234974
0.000225603
0.000215586
0.000207209
0.000199725
0.000193613
0.000188232
0.000183626
0.000179098
0.000174654
0.000170944
0.000168793
0.000165285
0.000161957
0.000158718
0.0001562
0.000153437
0.000150838
0.000148258
0.000146196
0.000144075
0.000142094
0.00013973
0.000137653
0.000135833
0.000134025
0.000132174
0.000130293
0.000128663
0.000127159
0.00012549
0.000123885
0.000122459
0.000121337
0.000119795
0.000118417
0.000117037
0.000115855
0.000114308
0.000113007
0.000111725
0.000110417
0.000109217
0.000108037
0.00010667
0.000105594
0.000104528
0.000103396
0.000102221
0.000101062
0.000100085
9.89639e-05
9.78312e-05
9.67621e-05
9.55814e-05
9.43698e-05
9.30385e-05
9.18152e-05
9.05879e-05
8.93154e-05
8.80188e-05
8.66627e-05
8.53068e-05
8.39826e-05
8.26614e-05
8.1313e-05
7.98915e-05
0.00715624
0.010236
0.0130441
0.0155373
0.0177817
0.0197212
0.0213385
0.0226975
0.0237244
0.0244364
0.0248624
0.0249827
0.0247752
0.0242513
0.0234435
0.0223303
0.0209605
0.0193753
0.0176741
0.0159625
0.01441
0.0130801
0.0120426
0.0113003
0.0108017
0.0104857
0.0102799
0.0101592
0.0101014
)
;

boundaryField
{
    inlet
    {
        type            fixedValue;
        value           uniform 0;
    }
    outlet
    {
        type            zeroGradient;
    }
    yzfaces
    {
        type            empty;
    }
}


// ************************************************************************* //
