/*--------------------------------*- C++ -*----------------------------------*\
| =========                 |                                                 |
| \\      /  F ield         | foam-extend: Open Source CFD                    |
|  \\    /   O peration     | Version:     5.0                                |
|   \\  /    A nd           | Web:         http://www.foam-extend.org         |
|    \\/     M anipulation  |                                                 |
\*---------------------------------------------------------------------------*/
FoamFile
{
    version     2.0;
    format      ascii;
    class       surfaceScalarField;
    location    "5";
    object      phi;
}
// * * * * * * * * * * * * * * * * * * * * * * * * * * * * * * * * * * * * * //

dimensions      [0 3 -1 0 0 0 0];

internalField   nonuniform List<scalar> 
99
(
1.2188e-06
1.22015e-06
1.22382e-06
1.22449e-06
1.21965e-06
1.21297e-06
1.20923e-06
1.21558e-06
1.21155e-06
1.20831e-06
1.20809e-06
1.20823e-06
1.20803e-06
1.21111e-06
1.21394e-06
1.20724e-06
1.19993e-06
1.20259e-06
1.19984e-06
1.19912e-06
1.19641e-06
1.19268e-06
1.19761e-06
1.19752e-06
1.20015e-06
1.19981e-06
1.20337e-06
1.20057e-06
1.20192e-06
1.20098e-06
1.19728e-06
1.20174e-06
1.20114e-06
1.2038e-06
1.20392e-06
1.20368e-06
1.20329e-06
1.20498e-06
1.20323e-06
1.19971e-06
1.20015e-06
1.19688e-06
1.19528e-06
1.19401e-06
1.19357e-06
1.19367e-06
1.19649e-06
1.19528e-06
1.19717e-06
1.19653e-06
1.19543e-06
1.19504e-06
1.19584e-06
1.19677e-06
1.19613e-06
1.19556e-06
1.1948e-06
1.19265e-06
1.19251e-06
1.19227e-06
1.1922e-06
1.19128e-06
1.18722e-06
1.18528e-06
1.18413e-06
1.18341e-06
1.18425e-06
1.18379e-06
1.18635e-06
1.18784e-06
1.18769e-06
1.18791e-06
1.18925e-06
1.19176e-06
1.19404e-06
1.19409e-06
1.1932e-06
1.19452e-06
1.19321e-06
1.19554e-06
1.19595e-06
1.19708e-06
1.19666e-06
1.19892e-06
1.19926e-06
1.1995e-06
1.20063e-06
1.19926e-06
1.20073e-06
1.20071e-06
1.20182e-06
1.20238e-06
1.20233e-06
1.20333e-06
1.20354e-06
1.20413e-06
1.20416e-06
1.20169e-06
1.20225e-06
)
;

boundaryField
{
    inlet
    {
        type            calculated;
        value           uniform -1.225e-06;
    }
    outlet
    {
        type            calculated;
        value           uniform 1.20368e-06;
    }
    yzfaces
    {
        type            empty;
    }
}


// ************************************************************************* //
