/*--------------------------------*- C++ -*----------------------------------*\
| =========                 |                                                 |
| \\      /  F ield         | foam-extend: Open Source CFD                    |
|  \\    /   O peration     | Version:     5.0                                |
|   \\  /    A nd           | Web:         http://www.foam-extend.org         |
|    \\/     M anipulation  |                                                 |
\*---------------------------------------------------------------------------*/
FoamFile
{
    version     2.0;
    format      ascii;
    class       surfaceScalarField;
    location    "5";
    object      phi.water;
}
// * * * * * * * * * * * * * * * * * * * * * * * * * * * * * * * * * * * * * //

dimensions      [0 3 -1 0 0 0 0];

internalField   nonuniform List<scalar> 
99
(
1.04396e-07
1.81574e-07
2.49994e-07
3.05428e-07
3.58341e-07
4.14644e-07
4.68262e-07
5.29261e-07
5.91935e-07
6.58771e-07
7.07506e-07
7.52825e-07
8.01826e-07
8.6298e-07
9.1363e-07
9.51915e-07
9.94383e-07
1.01491e-06
1.0543e-06
1.11523e-06
1.16786e-06
1.20351e-06
1.23624e-06
1.28535e-06
1.33555e-06
1.38128e-06
1.42125e-06
1.45114e-06
1.498e-06
1.5465e-06
1.59145e-06
1.62596e-06
1.66193e-06
1.70192e-06
1.74902e-06
1.79395e-06
1.84001e-06
1.87122e-06
1.91902e-06
1.95983e-06
1.99879e-06
2.04983e-06
2.08678e-06
2.12729e-06
2.17538e-06
2.20852e-06
2.253e-06
2.29607e-06
2.34653e-06
2.38222e-06
2.42616e-06
2.47205e-06
2.51495e-06
2.54304e-06
2.57838e-06
2.60664e-06
2.6429e-06
2.68644e-06
2.74373e-06
2.78063e-06
2.82368e-06
2.86998e-06
2.91596e-06
2.96257e-06
3.02198e-06
3.08016e-06
3.13647e-06
3.2035e-06
3.25907e-06
3.31264e-06
3.37806e-06
3.45156e-06
3.52545e-06
3.59469e-06
3.676e-06
3.74587e-06
3.82973e-06
3.90797e-06
4.0026e-06
4.09921e-06
4.21004e-06
4.31827e-06
4.44136e-06
4.57264e-06
4.71455e-06
4.85933e-06
5.0172e-06
5.1715e-06
5.32827e-06
5.46611e-06
5.593e-06
5.69182e-06
5.75546e-06
5.80864e-06
5.83262e-06
5.85137e-06
5.86464e-06
5.86602e-06
5.86783e-06
)
;

boundaryField
{
    inlet
    {
        type            fixedValue;
        value           uniform 0;
    }
    outlet
    {
        type            calculated;
        value           uniform 5.87943e-06;
    }
    yzfaces
    {
        type            empty;
    }
}


// ************************************************************************* //
