/*--------------------------------*- C++ -*----------------------------------*\
| =========                 |                                                 |
| \\      /  F ield         | foam-extend: Open Source CFD                    |
|  \\    /   O peration     | Version:     5.0                                |
|   \\  /    A nd           | Web:         http://www.foam-extend.org         |
|    \\/     M anipulation  |                                                 |
\*---------------------------------------------------------------------------*/
FoamFile
{
    version     2.0;
    format      ascii;
    class       volVectorField;
    location    "5";
    object      U.water;
}
// * * * * * * * * * * * * * * * * * * * * * * * * * * * * * * * * * * * * * //

dimensions      [0 1 -1 0 0 0 0];

internalField   nonuniform List<vector> 
100
(
(5.00174e-05 0 0)
(0.000117282 0 0)
(0.000175227 0 0)
(0.000228346 0 0)
(0.000272088 0 0)
(0.000313016 0 0)
(0.000358854 0 0)
(0.000411479 0 0)
(0.00046177 0 0)
(0.000509192 0 0)
(0.000553524 0 0)
(0.000595651 0 0)
(0.000635877 0 0)
(0.000679358 0 0)
(0.000724331 0 0)
(0.000756821 0 0)
(0.000781265 0 0)
(0.000820339 0 0)
(0.000860881 0 0)
(0.000898204 0 0)
(0.000932151 0 0)
(0.000967123 0 0)
(0.00100503 0 0)
(0.00104348 0 0)
(0.00107755 0 0)
(0.0011126 0 0)
(0.00115001 0 0)
(0.00118905 0 0)
(0.00122457 0 0)
(0.00125874 0 0)
(0.00129109 0 0)
(0.00132776 0 0)
(0.0013654 0 0)
(0.00139925 0 0)
(0.00143413 0 0)
(0.00146985 0 0)
(0.00150372 0 0)
(0.00153409 0 0)
(0.00156418 0 0)
(0.00159656 0 0)
(0.00162775 0 0)
(0.00165726 0 0)
(0.00168673 0 0)
(0.00172232 0 0)
(0.00175483 0 0)
(0.00178893 0 0)
(0.00182579 0 0)
(0.00186001 0 0)
(0.00189562 0 0)
(0.00193234 0 0)
(0.00196205 0 0)
(0.00199272 0 0)
(0.00202703 0 0)
(0.00206405 0 0)
(0.0020977 0 0)
(0.00212879 0 0)
(0.00216373 0 0)
(0.00219662 0 0)
(0.00223029 0 0)
(0.00226909 0 0)
(0.0023112 0 0)
(0.00235423 0 0)
(0.00239106 0 0)
(0.00242827 0 0)
(0.00247054 0 0)
(0.00251541 0 0)
(0.0025645 0 0)
(0.00261424 0 0)
(0.00266549 0 0)
(0.00272032 0 0)
(0.00277439 0 0)
(0.00283001 0 0)
(0.00288917 0 0)
(0.00295179 0 0)
(0.00301765 0 0)
(0.00308363 0 0)
(0.00314747 0 0)
(0.00321647 0 0)
(0.00329044 0 0)
(0.00337113 0 0)
(0.00346107 0 0)
(0.0035549 0 0)
(0.0036536 0 0)
(0.00376138 0 0)
(0.00387891 0 0)
(0.00400046 0 0)
(0.00412974 0 0)
(0.00425924 0 0)
(0.00438831 0 0)
(0.00451322 0 0)
(0.00462409 0 0)
(0.00471768 0 0)
(0.00478813 0 0)
(0.0048398 0 0)
(0.00487581 0 0)
(0.00489901 0 0)
(0.00491362 0 0)
(0.00491659 0 0)
(0.00491752 0 0)
(0.00492449 0 0)
)
;

boundaryField
{
    inlet
    {
        type            fixedValue;
        value           uniform (0 0 0);
    }
    outlet
    {
        type            zeroGradient;
    }
    yzfaces
    {
        type            empty;
    }
}


// ************************************************************************* //
