/*--------------------------------*- C++ -*----------------------------------*\
| =========                 |                                                 |
| \\      /  F ield         | foam-extend: Open Source CFD                    |
|  \\    /   O peration     | Version:     5.0                                |
|   \\  /    A nd           | Web:         http://www.foam-extend.org         |
|    \\/     M anipulation  |                                                 |
\*---------------------------------------------------------------------------*/
FoamFile
{
    version     2.0;
    format      ascii;
    class       volVectorField;
    location    "5";
    object      U.water;
}
// * * * * * * * * * * * * * * * * * * * * * * * * * * * * * * * * * * * * * //

dimensions      [0 1 -1 0 0 0 0];

internalField   nonuniform List<vector> 
100
(
(4.98618e-05 0 0)
(0.000117511 0 0)
(0.000175956 0 0)
(0.000226933 0 0)
(0.000271745 0 0)
(0.000315743 0 0)
(0.000361534 0 0)
(0.000407652 0 0)
(0.00045776 0 0)
(0.000509881 0 0)
(0.000557553 0 0)
(0.00059687 0 0)
(0.000634745 0 0)
(0.000678084 0 0)
(0.000723253 0 0)
(0.000760531 0 0)
(0.000793453 0 0)
(0.000821453 0 0)
(0.000846012 0 0)
(0.000884735 0 0)
(0.000930815 0 0)
(0.000968502 0 0)
(0.000997513 0 0)
(0.00102989 0 0)
(0.00106919 0 0)
(0.00110804 0 0)
(0.00114359 0 0)
(0.00117344 0 0)
(0.001204 0 0)
(0.00124227 0 0)
(0.00128093 0 0)
(0.00131406 0 0)
(0.0013437 0 0)
(0.00137389 0 0)
(0.00140862 0 0)
(0.00144577 0 0)
(0.00148266 0 0)
(0.00151525 0 0)
(0.00154694 0 0)
(0.00158315 0 0)
(0.00161595 0 0)
(0.00165156 0 0)
(0.00168841 0 0)
(0.00171999 0 0)
(0.00175609 0 0)
(0.00179052 0 0)
(0.0018214 0 0)
(0.00185688 0 0)
(0.00189428 0 0)
(0.00193024 0 0)
(0.00196257 0 0)
(0.00199868 0 0)
(0.00203543 0 0)
(0.00206556 0 0)
(0.00209194 0 0)
(0.0021186 0 0)
(0.00214476 0 0)
(0.00217653 0 0)
(0.00221613 0 0)
(0.0022563 0 0)
(0.00228962 0 0)
(0.00232573 0 0)
(0.0023636 0 0)
(0.00240145 0 0)
(0.00244358 0 0)
(0.00249029 0 0)
(0.00253693 0 0)
(0.00258682 0 0)
(0.00263775 0 0)
(0.0026835 0 0)
(0.00273114 0 0)
(0.0027864 0 0)
(0.00284625 0 0)
(0.00290525 0 0)
(0.00296706 0 0)
(0.00303013 0 0)
(0.00309401 0 0)
(0.00316127 0 0)
(0.00323213 0 0)
(0.00331125 0 0)
(0.00339704 0 0)
(0.00348748 0 0)
(0.00358155 0 0)
(0.00368361 0 0)
(0.00379358 0 0)
(0.00390917 0 0)
(0.0040321 0 0)
(0.00416 0 0)
(0.0042866 0 0)
(0.00440627 0 0)
(0.00451486 0 0)
(0.00460836 0 0)
(0.00467457 0 0)
(0.00472063 0 0)
(0.00475061 0 0)
(0.00476872 0 0)
(0.00478393 0 0)
(0.00479088 0 0)
(0.00479295 0 0)
(0.00479936 0 0)
)
;

boundaryField
{
    inlet
    {
        type            fixedValue;
        value           uniform (0 0 0);
    }
    outlet
    {
        type            zeroGradient;
    }
    yzfaces
    {
        type            empty;
    }
}


// ************************************************************************* //
