/*--------------------------------*- C++ -*----------------------------------*\
| =========                 |                                                 |
| \\      /  F ield         | foam-extend: Open Source CFD                    |
|  \\    /   O peration     | Version:     5.0                                |
|   \\  /    A nd           | Web:         http://www.foam-extend.org         |
|    \\/     M anipulation  |                                                 |
\*---------------------------------------------------------------------------*/
FoamFile
{
    version     2.0;
    format      ascii;
    class       volScalarField;
    location    "1";
    object      alpha.gas;
}
// * * * * * * * * * * * * * * * * * * * * * * * * * * * * * * * * * * * * * //

dimensions      [0 0 0 0 0 0 0];

internalField   nonuniform List<scalar> 
100
(
0.113058
0.0940277
0.0822904
0.0734365
0.0660089
0.0595097
0.0525275
0.0440679
0.03153
0.0046404
0.0269547
0.0273874
0.0277534
0.0276664
0.0270883
0.0260483
0.0245863
0.0227886
0.0207288
0.0185236
0.0163552
0.0144026
0.0128298
0.0117015
0.0109729
0.0105339
0.010288
0.0101535
0.010082
0.0100427
0.0100225
0.0100131
0.0100074
0.0100042
0.0100037
0.0100032
0.0100042
0.0100045
0.0100028
0.0100021
0.0100022
0.0100014
0.0100015
0.00999965
0.00999791
0.01
0.0100003
0.0100004
0.00999896
0.00999913
0.00999908
0.00999817
0.00999602
0.00999448
0.00999344
0.00999505
0.00999573
0.00999707
0.00999805
0.00999787
0.00999829
0.00999963
0.0100003
0.0100003
0.00999933
0.0100006
0.00999993
0.00999923
0.00999978
0.0100029
0.0100019
0.0100009
0.010001
0.0100008
0.0100018
0.010002
0.0100014
0.0100023
0.0100022
0.0100011
0.0100011
0.0100003
0.0099999
0.0100005
0.0100006
0.00999995
0.0100008
0.010001
0.0100004
0.0100001
0.00999904
0.00999748
0.00999806
0.00999883
0.00999898
0.00999959
0.0100002
0.0100001
0.0100018
0.0100005
)
;

boundaryField
{
    inlet
    {
        type            fixedValue;
        value           uniform 0.2;
    }
    outlet
    {
        type            zeroGradient;
    }
    yzfaces
    {
        type            empty;
    }
}


// ************************************************************************* //
