/*--------------------------------*- C++ -*----------------------------------*\
| =========                 |                                                 |
| \\      /  F ield         | foam-extend: Open Source CFD                    |
|  \\    /   O peration     | Version:     5.0                                |
|   \\  /    A nd           | Web:         http://www.foam-extend.org         |
|    \\/     M anipulation  |                                                 |
\*---------------------------------------------------------------------------*/
FoamFile
{
    version     2.0;
    format      ascii;
    class       volScalarField;
    location    "1";
    object      Cl.water;
}
// * * * * * * * * * * * * * * * * * * * * * * * * * * * * * * * * * * * * * //

dimensions      [0 0 0 0 0 0 0];

internalField   nonuniform List<scalar> 
100
(
0.00997635
0.0121414
0.0134765
0.014506
0.0153793
0.0161198
0.0169254
0.0178789
0.019301
0.0223211
0.0207392
0.0208291
0.0208252
0.0208456
0.0209123
0.0210395
0.0212248
0.0214481
0.0216945
0.0219596
0.0222358
0.0224584
0.0226543
0.0227928
0.0228819
0.0229529
0.0229717
0.0230084
0.0230097
0.0230108
0.0229856
0.0229959
0.0229883
0.0230002
0.0230008
0.0230104
0.0230045
0.023011
0.0230116
0.0230166
0.0229988
0.0230101
0.0230173
0.0230135
0.0230089
0.0230085
0.0229929
0.0230016
0.0229913
0.0229914
0.0230067
0.0230056
0.0229986
0.0230054
0.0230051
0.0230026
0.0229977
0.0230095
0.0230013
0.0230108
0.0230157
0.0230004
0.0230023
0.0229924
0.0229998
0.0229841
0.0229841
0.0229851
0.0229853
0.0229731
0.0229815
0.0229866
0.0229686
0.0229701
0.0229739
0.0229811
0.0229891
0.022996
0.0230049
0.0230038
0.0229957
0.0229943
0.0229866
0.0229975
0.0229979
0.0229887
0.0229823
0.0229957
0.0229815
0.0229947
0.022996
0.0229998
0.023007
0.0230183
0.0230104
0.0230198
0.023002
0.0230148
0.0230151
0.0230014
)
;

boundaryField
{
    inlet
    {
        type            fixedValue;
        value           uniform 0;
    }
    outlet
    {
        type            zeroGradient;
    }
    yzfaces
    {
        type            empty;
    }
}


// ************************************************************************* //
