/*--------------------------------*- C++ -*----------------------------------*\
| =========                 |                                                 |
| \\      /  F ield         | foam-extend: Open Source CFD                    |
|  \\    /   O peration     | Version:     5.0                                |
|   \\  /    A nd           | Web:         http://www.foam-extend.org         |
|    \\/     M anipulation  |                                                 |
\*---------------------------------------------------------------------------*/
FoamFile
{
    version     2.0;
    format      ascii;
    class       volScalarField;
    location    "1";
    object      Na.water;
}
// * * * * * * * * * * * * * * * * * * * * * * * * * * * * * * * * * * * * * //

dimensions      [0 0 0 0 0 0 0];

internalField   nonuniform List<scalar> 
100
(
0.00997357
0.0121432
0.0134802
0.0145066
0.015381
0.0161211
0.0169225
0.0178767
0.0193074
0.0223254
0.0207373
0.0208261
0.0208283
0.0208502
0.0209144
0.0210388
0.0212269
0.0214485
0.0216973
0.0219677
0.0222482
0.0224669
0.0226604
0.0228008
0.0228906
0.0229589
0.0229762
0.0230107
0.0230161
0.0230187
0.022994
0.023001
0.022988
0.023002
0.023003
0.0230083
0.0230049
0.0230129
0.0230127
0.0230171
0.023009
0.0230098
0.0230123
0.023011
0.0230023
0.0229996
0.0229998
0.0230077
0.0229949
0.0229948
0.0230126
0.0230086
0.0229994
0.0230059
0.0230095
0.0230042
0.0230051
0.0230111
0.0230018
0.0230168
0.0230204
0.0230017
0.0230033
0.0229938
0.0230019
0.0229896
0.0229842
0.022986
0.0229855
0.0229862
0.0229889
0.0229931
0.0229647
0.0229723
0.0229735
0.0229793
0.0229818
0.0229861
0.0229999
0.0230114
0.0230069
0.0230049
0.0229937
0.0230022
0.0230016
0.0229907
0.022983
0.0229879
0.0229788
0.0230002
0.0229974
0.0230023
0.0230085
0.0230117
0.0230007
0.0230168
0.0230014
0.0230148
0.0230148
0.0229977
)
;

boundaryField
{
    inlet
    {
        type            fixedValue;
        value           uniform 0;
    }
    outlet
    {
        type            zeroGradient;
    }
    yzfaces
    {
        type            empty;
    }
}


// ************************************************************************* //
