/*--------------------------------*- C++ -*----------------------------------*\
| =========                 |                                                 |
| \\      /  F ield         | foam-extend: Open Source CFD                    |
|  \\    /   O peration     | Version:     5.0                                |
|   \\  /    A nd           | Web:         http://www.foam-extend.org         |
|    \\/     M anipulation  |                                                 |
\*---------------------------------------------------------------------------*/
FoamFile
{
    version     2.0;
    format      ascii;
    class       volScalarField;
    location    "5";
    object      alpha.gas;
}
// * * * * * * * * * * * * * * * * * * * * * * * * * * * * * * * * * * * * * //

dimensions      [0 0 0 0 0 0 0];

internalField   nonuniform List<scalar> 
100
(
0.154003
0.139899
0.129609
0.123072
0.118299
0.112069
0.106663
0.101968
0.0977811
0.0941474
0.0914038
0.0889976
0.0869624
0.0856687
0.083752
0.0820842
0.0797852
0.0781109
0.0768581
0.0751887
0.0740998
0.0727913
0.0716859
0.0707509
0.0696681
0.0681523
0.0672229
0.0663107
0.0654617
0.0644205
0.0634373
0.0623762
0.0613162
0.0601353
0.0591448
0.0580296
0.0570355
0.0557665
0.0545578
0.0532618
0.0517979
0.0497982
0.0471466
0.0430545
0.0362057
0.0214438
0.0240126
0.0248391
0.0252631
0.025542
0.0257203
0.0258179
0.0258348
0.0258066
0.0257503
0.0256873
0.0256315
0.0255745
0.0255337
0.0254873
0.0254549
0.0254173
0.0253808
0.0253367
0.0252975
0.0252359
0.0251712
0.0250717
0.0249397
0.0247545
0.0245172
0.0242201
0.0238544
0.0233836
0.0228073
0.022101
0.0212457
0.0202488
0.019112
0.0178588
0.0165298
0.0151934
0.0139411
0.012854
0.0119731
0.0113105
0.0108467
0.0105365
0.0103332
0.0102067
0.0101274
0.0100777
0.0100482
0.0100314
0.0100191
0.0100121
0.0100098
0.0100073
0.010005
0.0100016
)
;

boundaryField
{
    inlet
    {
        type            fixedValue;
        value           uniform 0.2;
    }
    outlet
    {
        type            zeroGradient;
    }
    yzfaces
    {
        type            empty;
    }
}


// ************************************************************************* //
