/*--------------------------------*- C++ -*----------------------------------*\
| =========                 |                                                 |
| \\      /  F ield         | foam-extend: Open Source CFD                    |
|  \\    /   O peration     | Version:     5.0                                |
|   \\  /    A nd           | Web:         http://www.foam-extend.org         |
|    \\/     M anipulation  |                                                 |
\*---------------------------------------------------------------------------*/
FoamFile
{
    version     2.0;
    format      ascii;
    class       volScalarField;
    location    "5";
    object      Cl.water;
}
// * * * * * * * * * * * * * * * * * * * * * * * * * * * * * * * * * * * * * //

dimensions      [0 0 0 0 0 0 0];

internalField   nonuniform List<scalar> 
100
(
0.00923834
0.0124069
0.0146281
0.016205
0.0170554
0.0181189
0.0190687
0.0199405
0.0207625
0.021476
0.0220887
0.0227863
0.0233106
0.0234564
0.0238351
0.0240698
0.0244884
0.0248645
0.0251554
0.0255342
0.025763
0.0259589
0.0261953
0.0265434
0.0267217
0.0268953
0.0271247
0.0274346
0.0276185
0.0278261
0.0280062
0.028253
0.0284042
0.0286043
0.0288023
0.0290419
0.0292083
0.0294227
0.0297605
0.0300712
0.0303951
0.0307754
0.0313273
0.0321267
0.033514
0.0365585
0.0367078
0.0367547
0.0367194
0.0367256
0.0366949
0.0366801
0.0366486
0.0366632
0.0366817
0.0367131
0.0367218
0.0367442
0.0367282
0.0367303
0.0367173
0.0366914
0.0367122
0.0367342
0.036767
0.036787
0.0368122
0.0368362
0.0368551
0.0368851
0.0369453
0.0370031
0.0370733
0.037171
0.0373058
0.0374438
0.0376281
0.0378244
0.0381018
0.0383607
0.0386635
0.0389547
0.0392579
0.0394912
0.0396875
0.0398142
0.0398742
0.0399427
0.0399878
0.0399982
0.0400169
0.0400329
0.0400345
0.0400581
0.0400356
0.0400168
0.0400035
0.0400112
0.0399802
0.0399683
)
;

boundaryField
{
    inlet
    {
        type            fixedValue;
        value           uniform 0;
    }
    outlet
    {
        type            zeroGradient;
    }
    yzfaces
    {
        type            empty;
    }
}


// ************************************************************************* //
