/*--------------------------------*- C++ -*----------------------------------*\
| =========                 |                                                 |
| \\      /  F ield         | foam-extend: Open Source CFD                    |
|  \\    /   O peration     | Version:     5.0                                |
|   \\  /    A nd           | Web:         http://www.foam-extend.org         |
|    \\/     M anipulation  |                                                 |
\*---------------------------------------------------------------------------*/
FoamFile
{
    version     2.0;
    format      ascii;
    class       volScalarField;
    location    "5";
    object      CO2.gas;
}
// * * * * * * * * * * * * * * * * * * * * * * * * * * * * * * * * * * * * * //

dimensions      [0 0 0 0 0 0 0];

internalField   nonuniform List<scalar> 
100
(
0.153703
0.139627
0.129356
0.122833
0.118069
0.111851
0.106455
0.101769
0.0975906
0.0939641
0.0912258
0.0888243
0.0867931
0.0855018
0.0835889
0.0819243
0.0796298
0.0779588
0.0767084
0.0750422
0.0739555
0.0726495
0.0715463
0.0706131
0.0695324
0.0680196
0.067092
0.0661816
0.0653342
0.064295
0.0633138
0.0622548
0.0611967
0.0600181
0.0590296
0.0579166
0.0569244
0.0556579
0.0544515
0.0531581
0.051697
0.0497012
0.0470548
0.0429707
0.0361352
0.021402
0.0233237
0.0234998
0.0231705
0.0226421
0.0218992
0.0209977
0.0199288
0.0187812
0.0175675
0.0163208
0.0150665
0.0138229
0.0125895
0.0113863
0.0102272
0.00911128
0.00806542
0.0070803
0.00616121
0.00530579
0.00452309
0.00381141
0.00316869
0.00259852
0.00209944
0.00166524
0.00129582
0.000984963
0.000728924
0.00052273
0.000361236
0.00023844
0.00014933
8.77093e-05
4.78409e-05
2.39269e-05
1.08951e-05
4.50389e-06
1.69522e-06
5.87136e-07
1.89095e-07
5.71633e-08
1.61581e-08
4.25121e-09
1.078e-09
2.72593e-10
7.01872e-11
1.86429e-11
5.2022e-12
1.56342e-12
5.18048e-13
1.77122e-13
6.08475e-14
2.50066e-14
)
;

boundaryField
{
    inlet
    {
        type            fixedValue;
        value           uniform 0.2;
    }
    outlet
    {
        type            zeroGradient;
    }
    yzfaces
    {
        type            empty;
    }
}


// ************************************************************************* //
