/*--------------------------------*- C++ -*----------------------------------*\
| =========                 |                                                 |
| \\      /  F ield         | foam-extend: Open Source CFD                    |
|  \\    /   O peration     | Version:     5.0                                |
|   \\  /    A nd           | Web:         http://www.foam-extend.org         |
|    \\/     M anipulation  |                                                 |
\*---------------------------------------------------------------------------*/
FoamFile
{
    version     2.0;
    format      ascii;
    class       volScalarField;
    location    "5";
    object      CO2.water;
}
// * * * * * * * * * * * * * * * * * * * * * * * * * * * * * * * * * * * * * //

dimensions      [0 0 0 0 0 0 0];

internalField   nonuniform List<scalar> 
100
(
0.0012081
0.00157852
0.0018488
0.00202047
0.00214584
0.00230946
0.00245147
0.00257476
0.00268473
0.00278017
0.00285223
0.00291543
0.00296888
0.00300286
0.0030532
0.003097
0.00315739
0.00320136
0.00323427
0.00327811
0.00330671
0.00334108
0.00337011
0.00339467
0.00342311
0.00346292
0.00348733
0.00351129
0.00353359
0.00356093
0.00358676
0.00361462
0.00364247
0.00367348
0.0036995
0.00372879
0.0037549
0.00378823
0.00381997
0.00385401
0.00389246
0.00394498
0.00401462
0.0041221
0.00430198
0.0046897
0.00152152
0.0005284
0.000187514
6.72721e-05
2.43484e-05
8.91409e-06
3.29417e-06
1.22621e-06
4.578e-07
1.71022e-07
6.37558e-08
2.36918e-08
8.76299e-09
3.22825e-09
1.18462e-09
4.32754e-10
1.57667e-10
5.72666e-11
2.0744e-11
7.49423e-12
2.70499e-12
9.7527e-13
3.52263e-13
1.28364e-13
4.76783e-14
1.83752e-14
7.51167e-15
3.32793e-15
1.61634e-15
8.5154e-16
4.75786e-16
2.74542e-16
1.60768e-16
9.42031e-17
5.49032e-17
3.16301e-17
1.79668e-17
1.00359e-17
5.50707e-18
2.97089e-18
1.57504e-18
8.22793e-19
4.23822e-19
2.15571e-19
1.08494e-19
5.40668e-20
2.66949e-20
1.30838e-20
6.3624e-21
3.07277e-21
1.47477e-21
7.03747e-22
3.33824e-22
1.55609e-22
)
;

boundaryField
{
    inlet
    {
        type            fixedValue;
        value           uniform 0;
    }
    outlet
    {
        type            zeroGradient;
    }
    yzfaces
    {
        type            empty;
    }
}


// ************************************************************************* //
