/*--------------------------------*- C++ -*----------------------------------*\
| =========                 |                                                 |
| \\      /  F ield         | foam-extend: Open Source CFD                    |
|  \\    /   O peration     | Version:     5.0                                |
|   \\  /    A nd           | Web:         http://www.foam-extend.org         |
|    \\/     M anipulation  |                                                 |
\*---------------------------------------------------------------------------*/
FoamFile
{
    version     2.0;
    format      ascii;
    class       volScalarField;
    location    "5";
    object      H2O.gas;
}
// * * * * * * * * * * * * * * * * * * * * * * * * * * * * * * * * * * * * * //

dimensions      [0 0 0 0 0 0 0];

internalField   nonuniform List<scalar> 
100
(
0.000299916
0.00027245
0.000252409
0.00023968
0.000230384
0.000218251
0.000207722
0.00019858
0.000190426
0.000183349
0.000178006
0.00017332
0.000169357
0.000166837
0.000163105
0.000159857
0.000155379
0.000152119
0.000149679
0.000146428
0.000144307
0.000141759
0.000139606
0.000137785
0.000135677
0.000132725
0.000130915
0.000129138
0.000127485
0.000125457
0.000123542
0.000121476
0.000119411
0.000117112
0.000115183
0.000113011
0.000111075
0.000108604
0.00010625
0.000103726
0.000100875
9.69805e-05
9.18166e-05
8.38474e-05
7.05095e-05
4.17611e-05
0.000682455
0.00133795
0.0020719
0.0029031
0.00382174
0.00482434
0.00588818
0.00701412
0.00817663
0.00936431
0.0105597
0.0117607
0.0129373
0.0140911
0.0152114
0.016273
0.0172964
0.0182495
0.0191432
0.0199418
0.0206682
0.0212747
0.0217733
0.0221522
0.02242
0.0225498
0.0225539
0.0223931
0.0220813
0.0215721
0.0208831
0.0200007
0.0189709
0.0177751
0.0164954
0.0151849
0.0139578
0.0128737
0.011995
0.0113306
0.010856
0.0105467
0.0103436
0.0102154
0.0101376
0.0100878
0.0100538
0.0100391
0.0100219
0.0100127
0.0100093
0.0100102
0.0100001
0.00999251
)
;

boundaryField
{
    inlet
    {
        type            fixedValue;
        value           uniform 0;
    }
    outlet
    {
        type            zeroGradient;
    }
    yzfaces
    {
        type            empty;
    }
}


// ************************************************************************* //
