/*--------------------------------*- C++ -*----------------------------------*\
| =========                 |                                                 |
| \\      /  F ield         | foam-extend: Open Source CFD                    |
|  \\    /   O peration     | Version:     5.0                                |
|   \\  /    A nd           | Web:         http://www.foam-extend.org         |
|    \\/     M anipulation  |                                                 |
\*---------------------------------------------------------------------------*/
FoamFile
{
    version     2.0;
    format      ascii;
    class       volScalarField;
    location    "5";
    object      H2O.water;
}
// * * * * * * * * * * * * * * * * * * * * * * * * * * * * * * * * * * * * * //

dimensions      [0 0 0 0 0 0 0];

internalField   nonuniform List<scalar> 
100
(
0.0263132
0.0337052
0.0392737
0.0424785
0.0454344
0.0493813
0.0527458
0.0555647
0.05799
0.0600985
0.0615563
0.0624868
0.0634122
0.0643973
0.065523
0.0666777
0.068069
0.0689348
0.069574
0.0704544
0.0710587
0.0719386
0.0725344
0.0727582
0.07344
0.0745731
0.0750282
0.0753168
0.0757673
0.0763744
0.0769672
0.0775073
0.0782298
0.0789896
0.0795406
0.0801617
0.0807809
0.0815921
0.0820731
0.0827213
0.0835211
0.0846912
0.0861777
0.0885559
0.0924624
0.100759
0.101006
0.101111
0.100973
0.100981
0.100888
0.100855
0.100764
0.100806
0.10086
0.100888
0.100896
0.100991
0.100959
0.100987
0.101009
0.100972
0.101048
0.101128
0.101196
0.101256
0.10133
0.101357
0.101361
0.101445
0.101602
0.101737
0.101961
0.102228
0.102593
0.102965
0.103489
0.104022
0.104774
0.105474
0.106303
0.107093
0.107926
0.108544
0.109069
0.109451
0.109604
0.109798
0.109921
0.109991
0.110058
0.110079
0.110036
0.110051
0.110013
0.11001
0.11001
0.110052
0.10997
0.109931
)
;

boundaryField
{
    inlet
    {
        type            fixedValue;
        value           uniform 0;
    }
    outlet
    {
        type            zeroGradient;
    }
    yzfaces
    {
        type            empty;
    }
}


// ************************************************************************* //
