/*--------------------------------*- C++ -*----------------------------------*\
| =========                 |                                                 |
| \\      /  F ield         | foam-extend: Open Source CFD                    |
|  \\    /   O peration     | Version:     5.0                                |
|   \\  /    A nd           | Web:         http://www.foam-extend.org         |
|    \\/     M anipulation  |                                                 |
\*---------------------------------------------------------------------------*/
FoamFile
{
    version     2.0;
    format      ascii;
    class       volScalarField;
    location    "5";
    object      Na.water;
}
// * * * * * * * * * * * * * * * * * * * * * * * * * * * * * * * * * * * * * //

dimensions      [0 0 0 0 0 0 0];

internalField   nonuniform List<scalar> 
100
(
0.00923759
0.0124102
0.0146408
0.0162237
0.0170655
0.0181212
0.0190715
0.019952
0.0207818
0.021498
0.022099
0.0228139
0.0233459
0.0234747
0.0238367
0.0240713
0.0245
0.0248885
0.0251782
0.0255446
0.0257718
0.0259702
0.0262142
0.0265529
0.0267471
0.0269163
0.0271368
0.0274266
0.027619
0.0278181
0.0280025
0.0282489
0.0284074
0.0285974
0.0288127
0.0290381
0.0292204
0.0294305
0.0297887
0.0300917
0.0303935
0.0307903
0.0313338
0.0321407
0.0335159
0.0365489
0.0367042
0.0367573
0.0367138
0.0367064
0.0366774
0.0366656
0.0366286
0.0366463
0.0366653
0.0366964
0.0367146
0.0367519
0.0367326
0.0367278
0.0367072
0.0366917
0.0367282
0.0367541
0.0367863
0.0368022
0.0368264
0.0368363
0.0368604
0.0368895
0.0369516
0.0370036
0.0370769
0.0371761
0.0373173
0.0374404
0.0376262
0.0378193
0.0380896
0.0383476
0.0386528
0.0389468
0.039242
0.0394636
0.0396421
0.0397687
0.0398401
0.0399064
0.0399488
0.0399672
0.0399888
0.0400009
0.039987
0.0400041
0.0399868
0.0399725
0.0399679
0.0399855
0.039952
0.0399256
)
;

boundaryField
{
    inlet
    {
        type            fixedValue;
        value           uniform 0;
    }
    outlet
    {
        type            zeroGradient;
    }
    yzfaces
    {
        type            empty;
    }
}


// ************************************************************************* //
