/*--------------------------------*- C++ -*----------------------------------*\
| =========                 |                                                 |
| \\      /  F ield         | foam-extend: Open Source CFD                    |
|  \\    /   O peration     | Version:     5.0                                |
|   \\  /    A nd           | Web:         http://www.foam-extend.org         |
|    \\/     M anipulation  |                                                 |
\*---------------------------------------------------------------------------*/
FoamFile
{
    version     2.0;
    format      ascii;
    class       surfaceScalarField;
    location    "5";
    object      phi;
}
// * * * * * * * * * * * * * * * * * * * * * * * * * * * * * * * * * * * * * //

dimensions      [0 3 -1 0 0 0 0];

internalField   nonuniform List<scalar> 
99
(
1.22477e-06
1.22216e-06
1.22319e-06
1.22032e-06
1.21185e-06
1.21327e-06
1.2168e-06
1.22135e-06
1.2136e-06
1.20985e-06
1.21106e-06
1.20854e-06
1.21441e-06
1.21363e-06
1.21551e-06
1.20926e-06
1.21091e-06
1.21301e-06
1.2152e-06
1.21606e-06
1.21564e-06
1.2171e-06
1.21442e-06
1.21499e-06
1.21343e-06
1.21385e-06
1.21228e-06
1.21328e-06
1.20954e-06
1.21328e-06
1.21092e-06
1.21278e-06
1.21222e-06
1.21142e-06
1.21154e-06
1.21357e-06
1.21533e-06
1.21611e-06
1.21411e-06
1.21789e-06
1.21582e-06
1.21475e-06
1.21171e-06
1.21159e-06
1.2138e-06
1.21437e-06
1.21534e-06
1.21318e-06
1.21351e-06
1.21409e-06
1.21389e-06
1.21302e-06
1.21204e-06
1.21305e-06
1.21248e-06
1.21318e-06
1.21262e-06
1.21251e-06
1.21136e-06
1.2131e-06
1.21332e-06
1.21321e-06
1.2141e-06
1.21491e-06
1.21475e-06
1.21576e-06
1.21672e-06
1.21436e-06
1.21423e-06
1.21533e-06
1.2163e-06
1.21854e-06
1.21653e-06
1.21518e-06
1.21636e-06
1.21621e-06
1.21626e-06
1.21648e-06
1.21811e-06
1.21858e-06
1.21825e-06
1.21804e-06
1.21948e-06
1.21783e-06
1.21905e-06
1.21911e-06
1.2195e-06
1.21799e-06
1.2168e-06
1.21695e-06
1.21716e-06
1.21611e-06
1.21622e-06
1.21506e-06
1.21517e-06
1.21437e-06
1.21494e-06
1.21505e-06
1.21508e-06
)
;

boundaryField
{
    inlet
    {
        type            calculated;
        value           uniform -1.225e-06;
    }
    outlet
    {
        type            calculated;
        value           uniform 1.21594e-06;
    }
    yzfaces
    {
        type            empty;
    }
}


// ************************************************************************* //
