/*--------------------------------*- C++ -*----------------------------------*\
| =========                 |                                                 |
| \\      /  F ield         | foam-extend: Open Source CFD                    |
|  \\    /   O peration     | Version:     5.0                                |
|   \\  /    A nd           | Web:         http://www.foam-extend.org         |
|    \\/     M anipulation  |                                                 |
\*---------------------------------------------------------------------------*/
FoamFile
{
    version     2.0;
    format      ascii;
    class       volVectorField;
    location    "5";
    object      U.gas;
}
// * * * * * * * * * * * * * * * * * * * * * * * * * * * * * * * * * * * * * //

dimensions      [0 1 -1 0 0 0 0];

internalField   nonuniform List<vector> 
100
(
(0.00647399 0 0)
(0.00708355 0 0)
(0.00758116 0 0)
(0.00792909 0 0)
(0.00819485 0 0)
(0.00855676 0 0)
(0.0089295 0 0)
(0.00930238 0 0)
(0.00962149 0 0)
(0.00984564 0 0)
(0.0100378 0 0)
(0.0102302 0 0)
(0.0103851 0 0)
(0.0105212 0 0)
(0.0107058 0 0)
(0.0108334 0 0)
(0.0110076 0 0)
(0.0111537 0 0)
(0.011283 0 0)
(0.0114575 0 0)
(0.0115327 0 0)
(0.0116648 0 0)
(0.0117557 0 0)
(0.0118126 0 0)
(0.0119106 0 0)
(0.0120379 0 0)
(0.0120964 0 0)
(0.0121685 0 0)
(0.0122249 0 0)
(0.0123095 0 0)
(0.0124044 0 0)
(0.012477 0 0)
(0.0125703 0 0)
(0.0126561 0 0)
(0.012713 0 0)
(0.0127966 0 0)
(0.0128862 0 0)
(0.0129987 0 0)
(0.0130616 0 0)
(0.0131358 0 0)
(0.0132487 0 0)
(0.0133627 0 0)
(0.013504 0 0)
(0.0137291 0 0)
(0.0141088 0 0)
(0.0153786 0 0)
(0.00930503 0 0)
(0.0101393 0 0)
(0.0103967 0 0)
(0.0105291 0 0)
(0.010615 0 0)
(0.0106641 0 0)
(0.0106888 0 0)
(0.0106973 0 0)
(0.0106917 0 0)
(0.0106782 0 0)
(0.0106623 0 0)
(0.0106432 0 0)
(0.0106218 0 0)
(0.010614 0 0)
(0.0106081 0 0)
(0.0106 0 0)
(0.0105925 0 0)
(0.010591 0 0)
(0.0105813 0 0)
(0.0105754 0 0)
(0.0105662 0 0)
(0.010543 0 0)
(0.0105059 0 0)
(0.0104763 0 0)
(0.0104361 0 0)
(0.0103835 0 0)
(0.0102996 0 0)
(0.0101807 0 0)
(0.0100403 0 0)
(0.00986741 0 0)
(0.00964153 0 0)
(0.00935837 0 0)
(0.00901514 0 0)
(0.00860133 0 0)
(0.00811465 0 0)
(0.0075704 0 0)
(0.0070018 0 0)
(0.006446 0 0)
(0.00594993 0 0)
(0.00554565 0 0)
(0.00523695 0 0)
(0.00501916 0 0)
(0.00487029 0 0)
(0.00477336 0 0)
(0.00471445 0 0)
(0.00467566 0 0)
(0.00465078 0 0)
(0.00463614 0 0)
(0.00462643 0 0)
(0.00461834 0 0)
(0.00461486 0 0)
(0.00461534 0 0)
(0.00461495 0 0)
(0.00461487 0 0)
)
;

boundaryField
{
    inlet
    {
        type            fixedValue;
        value           uniform (0.005 0 0);
    }
    outlet
    {
        type            zeroGradient;
    }
    yzfaces
    {
        type            empty;
    }
}


// ************************************************************************* //
