/*--------------------------------*- C++ -*----------------------------------*\
| =========                 |                                                 |
| \\      /  F ield         | foam-extend: Open Source CFD                    |
|  \\    /   O peration     | Version:     5.0                                |
|   \\  /    A nd           | Web:         http://www.foam-extend.org         |
|    \\/     M anipulation  |                                                 |
\*---------------------------------------------------------------------------*/
FoamFile
{
    version     2.0;
    format      ascii;
    class       volVectorField;
    location    "5";
    object      U.water;
}
// * * * * * * * * * * * * * * * * * * * * * * * * * * * * * * * * * * * * * //

dimensions      [0 1 -1 0 0 0 0];

internalField   nonuniform List<vector> 
100
(
(5.45731e-05 0 0)
(0.00012782 0 0)
(0.000189417 0 0)
(0.000245307 0 0)
(0.000290618 0 0)
(0.00033851 0 0)
(0.000398865 0 0)
(0.000462059 0 0)
(0.000526074 0 0)
(0.00058717 0 0)
(0.000641658 0 0)
(0.000689354 0 0)
(0.00073516 0 0)
(0.000773305 0 0)
(0.000810366 0 0)
(0.000853313 0 0)
(0.000899411 0 0)
(0.000952548 0 0)
(0.000996371 0 0)
(0.00104054 0 0)
(0.00108544 0 0)
(0.00112301 0 0)
(0.00116492 0 0)
(0.00120068 0 0)
(0.00123438 0 0)
(0.00127827 0 0)
(0.00132483 0 0)
(0.00136214 0 0)
(0.00139751 0 0)
(0.00143537 0 0)
(0.00147921 0 0)
(0.0015249 0 0)
(0.00157174 0 0)
(0.00162305 0 0)
(0.00167599 0 0)
(0.00172774 0 0)
(0.0017841 0 0)
(0.00184648 0 0)
(0.00191492 0 0)
(0.00198653 0 0)
(0.00206739 0 0)
(0.00216991 0 0)
(0.00231118 0 0)
(0.00252897 0 0)
(0.00291699 0 0)
(0.00369808 0 0)
(0.00436555 0 0)
(0.00422116 0 0)
(0.00416531 0 0)
(0.0041381 0 0)
(0.00411977 0 0)
(0.00410634 0 0)
(0.0040977 0 0)
(0.00409756 0 0)
(0.00410157 0 0)
(0.00410624 0 0)
(0.004111 0 0)
(0.00411439 0 0)
(0.0041161 0 0)
(0.00412036 0 0)
(0.00412699 0 0)
(0.00412983 0 0)
(0.0041341 0 0)
(0.00413993 0 0)
(0.00414429 0 0)
(0.00414939 0 0)
(0.0041577 0 0)
(0.00416139 0 0)
(0.00416568 0 0)
(0.00417883 0 0)
(0.00419777 0 0)
(0.00422301 0 0)
(0.00424769 0 0)
(0.00427182 0 0)
(0.00430874 0 0)
(0.00435533 0 0)
(0.00440832 0 0)
(0.00446984 0 0)
(0.004541 0 0)
(0.00461706 0 0)
(0.00469008 0 0)
(0.00475839 0 0)
(0.00482262 0 0)
(0.004873 0 0)
(0.00491102 0 0)
(0.00494168 0 0)
(0.00496184 0 0)
(0.00497199 0 0)
(0.00497434 0 0)
(0.00497723 0 0)
(0.00498107 0 0)
(0.00498126 0 0)
(0.0049805 0 0)
(0.00497899 0 0)
(0.00497722 0 0)
(0.00497615 0 0)
(0.00497585 0 0)
(0.00497727 0 0)
(0.00497759 0 0)
(0.00497951 0 0)
)
;

boundaryField
{
    inlet
    {
        type            fixedValue;
        value           uniform (0 0 0);
    }
    outlet
    {
        type            zeroGradient;
    }
    yzfaces
    {
        type            empty;
    }
}


// ************************************************************************* //
