/*--------------------------------*- C++ -*----------------------------------*\
| =========                 |                                                 |
| \\      /  F ield         | foam-extend: Open Source CFD                    |
|  \\    /   O peration     | Version:     5.0                                |
|   \\  /    A nd           | Web:         http://www.foam-extend.org         |
|    \\/     M anipulation  |                                                 |
\*---------------------------------------------------------------------------*/
FoamFile
{
    version     2.0;
    format      ascii;
    class       volScalarField;
    location    "3";
    object      alpha.gas;
}
// * * * * * * * * * * * * * * * * * * * * * * * * * * * * * * * * * * * * * //

dimensions      [0 0 0 0 0 0 0];

internalField   nonuniform List<scalar> 
100
(
0.143732
0.127045
0.116487
0.108909
0.102209
0.0972386
0.0932308
0.089325
0.0861332
0.0836909
0.0814978
0.0793117
0.0769975
0.075028
0.0728901
0.070791
0.0688098
0.0669645
0.0652598
0.0635529
0.0618066
0.0600698
0.0583709
0.0564729
0.0544761
0.0523613
0.0502714
0.0481201
0.0418026
0.037368
0.0353422
0.0348798
0.0350659
0.0353816
0.0355638
0.035569
0.035438
0.035206
0.0348979
0.0345245
0.0340615
0.0335248
0.0328827
0.0321405
0.0313006
0.0303258
0.0292111
0.0279475
0.0265128
0.0249016
0.0231159
0.0211891
0.0191657
0.017149
0.0152556
0.0136335
0.0123644
0.0114614
0.0108685
0.0105049
0.0102863
0.0101609
0.0100901
0.0100514
0.0100276
0.010016
0.0100092
0.010004
0.0100021
0.0100014
0.0100009
0.0100005
0.0100018
0.0100014
0.0100004
0.0100033
0.0100042
0.0100029
0.0099991
0.00999958
0.00999851
0.009999
0.0099992
0.01
0.0100002
0.0100013
0.0100017
0.00999987
0.0100006
0.00999943
0.00999693
0.00999569
0.00999669
0.00999681
0.00999785
0.00999916
0.00999832
0.0099991
0.0100003
0.0100053
)
;

boundaryField
{
    inlet
    {
        type            fixedValue;
        value           uniform 0.2;
    }
    outlet
    {
        type            zeroGradient;
    }
    yzfaces
    {
        type            empty;
    }
}


// ************************************************************************* //
