/*--------------------------------*- C++ -*----------------------------------*\
| =========                 |                                                 |
| \\      /  F ield         | foam-extend: Open Source CFD                    |
|  \\    /   O peration     | Version:     5.0                                |
|   \\  /    A nd           | Web:         http://www.foam-extend.org         |
|    \\/     M anipulation  |                                                 |
\*---------------------------------------------------------------------------*/
FoamFile
{
    version     2.0;
    format      ascii;
    class       volScalarField;
    location    "3";
    object      Cl.water;
}
// * * * * * * * * * * * * * * * * * * * * * * * * * * * * * * * * * * * * * //

dimensions      [0 0 0 0 0 0 0];

internalField   nonuniform List<scalar> 
100
(
1.37542e-15
0.00318
0.00610441
0.00615799
0.0060548
0.00689387
0.00839258
0.00866279
0.00829548
0.008415
0.00931019
0.00927741
0.00875337
0.00890878
0.00999751
0.00981171
0.00922152
0.0095544
0.0108774
0.00993456
0.00921574
0.0101777
0.0121492
0.00958968
0.00929731
0.0115526
0.0142471
0.0162829
0.00546173
0.0122579
0.0171822
0.0191594
0.0197471
0.0198684
0.0198999
0.0199087
0.0199279
0.0199578
0.0199897
0.0200384
0.0200944
0.0201709
0.0202363
0.0203285
0.0204271
0.0205504
0.0206794
0.0208392
0.0210245
0.0212143
0.0214254
0.0216517
0.0218894
0.022126
0.0223692
0.0225805
0.0227324
0.0228457
0.0229186
0.0229806
0.0229932
0.0230034
0.0230038
0.0230218
0.0230329
0.0230202
0.0229994
0.0230059
0.0230092
0.0230218
0.023047
0.0230439
0.0230335
0.0230316
0.0230328
0.0230257
0.0230336
0.0230289
0.0230099
0.0230019
0.0229894
0.0230032
0.0229972
0.0229986
0.0230047
0.0229963
0.0230141
0.0230203
0.0230276
0.0230222
0.0230287
0.0230116
0.0229969
0.0230003
0.0229873
0.0229904
0.0229888
0.0229712
0.0229911
0.022996
)
;

boundaryField
{
    inlet
    {
        type            fixedValue;
        value           uniform 0;
    }
    outlet
    {
        type            zeroGradient;
    }
    yzfaces
    {
        type            empty;
    }
}


// ************************************************************************* //
