/*--------------------------------*- C++ -*----------------------------------*\
| =========                 |                                                 |
| \\      /  F ield         | foam-extend: Open Source CFD                    |
|  \\    /   O peration     | Version:     5.0                                |
|   \\  /    A nd           | Web:         http://www.foam-extend.org         |
|    \\/     M anipulation  |                                                 |
\*---------------------------------------------------------------------------*/
FoamFile
{
    version     2.0;
    format      ascii;
    class       volScalarField;
    location    "3";
    object      CO2.water;
}
// * * * * * * * * * * * * * * * * * * * * * * * * * * * * * * * * * * * * * //

dimensions      [0 0 0 0 0 0 0];

internalField   nonuniform List<scalar> 
100
(
0.00147835
0.00121504
0.000854533
0.00104782
0.00123057
0.00118582
0.000974052
0.00101337
0.0011849
0.00123774
0.00110287
0.00117513
0.00134085
0.0013525
0.00116679
0.0012533
0.00143471
0.00141461
0.00117079
0.00141864
0.0016234
0.00145719
0.00107075
0.00167525
0.00179482
0.00136401
0.000837107
0.000446488
0.00295787
0.00159942
0.000590687
0.000177619
4.67389e-05
1.137e-05
2.68028e-06
6.31965e-07
1.50846e-07
3.63487e-08
8.71701e-09
2.07339e-09
4.97362e-10
1.28496e-10
3.9531e-11
1.5303e-11
6.89906e-12
3.30978e-12
1.60551e-12
7.75932e-13
3.72161e-13
1.7802e-13
8.47801e-14
4.02549e-14
1.90902e-14
9.04327e-15
4.27341e-15
2.00749e-15
9.34846e-16
4.3151e-16
1.97108e-16
8.92457e-17
4.0001e-17
1.7798e-17
7.85424e-18
3.44096e-18
1.498e-18
6.48237e-19
2.78964e-19
1.19732e-19
5.12004e-20
2.18787e-20
9.37078e-21
4.03164e-21
1.74918e-21
7.64721e-22
3.36423e-22
1.4854e-22
6.56808e-23
2.90138e-23
1.27997e-23
5.63566e-24
2.47268e-24
1.08121e-24
4.70662e-25
2.04135e-25
8.8146e-26
3.78983e-26
1.62415e-26
6.92992e-27
2.94536e-27
1.24809e-27
5.27213e-28
2.21793e-28
9.30161e-29
3.89161e-29
1.62321e-29
6.75755e-30
2.8074e-30
1.1637e-30
4.81807e-31
2.07013e-31
)
;

boundaryField
{
    inlet
    {
        type            fixedValue;
        value           uniform 0;
    }
    outlet
    {
        type            zeroGradient;
    }
    yzfaces
    {
        type            empty;
    }
}


// ************************************************************************* //
