/*--------------------------------*- C++ -*----------------------------------*\
| =========                 |                                                 |
| \\      /  F ield         | foam-extend: Open Source CFD                    |
|  \\    /   O peration     | Version:     5.0                                |
|   \\  /    A nd           | Web:         http://www.foam-extend.org         |
|    \\/     M anipulation  |                                                 |
\*---------------------------------------------------------------------------*/
FoamFile
{
    version     2.0;
    format      ascii;
    class       volScalarField;
    location    "3";
    object      CO2.gas;
}
// * * * * * * * * * * * * * * * * * * * * * * * * * * * * * * * * * * * * * //

dimensions      [0 0 0 0 0 0 0];

internalField   nonuniform List<scalar> 
100
(
0.143759
0.126235
0.115687
0.10852
0.101229
0.0966252
0.0928928
0.088898
0.0859564
0.0839705
0.0817832
0.0797619
0.0771896
0.075099
0.0728582
0.0705675
0.0686032
0.0668416
0.0651103
0.0633705
0.0616546
0.0598235
0.0580732
0.0561294
0.0541205
0.0519464
0.049772
0.0473389
0.0409547
0.036203
0.0335724
0.0322504
0.0313844
0.0304715
0.0293143
0.0278476
0.0261349
0.0242477
0.0222465
0.0201675
0.0180265
0.0158941
0.0137775
0.0117368
0.00980314
0.00800408
0.0063611
0.00490976
0.00365298
0.00260114
0.00175532
0.00110892
0.000646127
0.000341781
0.000161589
6.76156e-05
2.50517e-05
8.33137e-06
2.5332e-06
7.18517e-07
1.92047e-07
4.89513e-08
1.20545e-08
2.87216e-09
7.64566e-10
3.01433e-10
1.37471e-10
7.08132e-11
4.03647e-11
2.26429e-11
1.20604e-11
6.18396e-12
3.07737e-12
1.49604e-12
7.13625e-13
3.354e-13
1.55923e-13
7.18549e-14
3.28761e-14
1.49294e-14
6.72404e-15
3.00213e-15
1.32685e-15
5.8164e-16
2.52644e-16
1.08868e-16
4.6555e-17
1.97536e-17
8.32586e-18
3.48871e-18
1.45419e-18
6.02039e-19
2.48092e-19
1.01803e-19
4.15676e-20
1.69199e-20
6.8605e-21
2.77238e-21
1.11796e-21
4.69004e-22
)
;

boundaryField
{
    inlet
    {
        type            fixedValue;
        value           uniform 0.2;
    }
    outlet
    {
        type            zeroGradient;
    }
    yzfaces
    {
        type            empty;
    }
}


// ************************************************************************* //
