/*--------------------------------*- C++ -*----------------------------------*\
| =========                 |                                                 |
| \\      /  F ield         | foam-extend: Open Source CFD                    |
|  \\    /   O peration     | Version:     5.0                                |
|   \\  /    A nd           | Web:         http://www.foam-extend.org         |
|    \\/     M anipulation  |                                                 |
\*---------------------------------------------------------------------------*/
FoamFile
{
    version     2.0;
    format      ascii;
    class       volScalarField;
    location    "3";
    object      H2O.gas;
}
// * * * * * * * * * * * * * * * * * * * * * * * * * * * * * * * * * * * * * //

dimensions      [0 0 0 0 0 0 0];

internalField   nonuniform List<scalar> 
100
(
6.98075e-14
4.9785e-12
4.37704e-11
2.33255e-10
9.23973e-10
3.08279e-09
8.95043e-09
2.32433e-08
5.58945e-08
1.2657e-07
2.67065e-07
5.36539e-07
1.02149e-06
1.86897e-06
3.29008e-06
5.58624e-06
9.26178e-06
1.49644e-05
2.35793e-05
3.63069e-05
5.48071e-05
8.08453e-05
0.000117681
0.000167622
0.000234497
0.000327583
0.000466887
0.000678691
0.000720348
0.00106732
0.00173145
0.00262515
0.00369375
0.00490855
0.0062626
0.00773925
0.00931788
0.0109754
0.0126776
0.0143916
0.0160612
0.0176667
0.0191186
0.0204117
0.0214984
0.0223254
0.0228395
0.0230319
0.0228674
0.0223029
0.0213641
0.0200784
0.0185117
0.0167966
0.0150921
0.0135731
0.0123464
0.011462
0.0108757
0.0105197
0.0102966
0.0101684
0.0100935
0.0100584
0.0100404
0.0100246
0.0100088
0.0100076
0.0100058
0.0100093
0.010019
0.0100181
0.0100124
0.0100131
0.0100124
0.0100125
0.0100177
0.0100141
0.010003
0.00999782
0.00999157
0.00999688
0.00999487
0.00999735
0.0100032
0.0100033
0.0100104
0.0100119
0.010011
0.0100094
0.0100124
0.0100017
0.00999697
0.00999754
0.00999432
0.00999638
0.00999326
0.0099884
0.00999544
0.00999888
)
;

boundaryField
{
    inlet
    {
        type            fixedValue;
        value           uniform 0;
    }
    outlet
    {
        type            zeroGradient;
    }
    yzfaces
    {
        type            empty;
    }
}


// ************************************************************************* //
