/*--------------------------------*- C++ -*----------------------------------*\
| =========                 |                                                 |
| \\      /  F ield         | foam-extend: Open Source CFD                    |
|  \\    /   O peration     | Version:     5.0                                |
|   \\  /    A nd           | Web:         http://www.foam-extend.org         |
|    \\/     M anipulation  |                                                 |
\*---------------------------------------------------------------------------*/
FoamFile
{
    version     2.0;
    format      ascii;
    class       volScalarField;
    location    "3";
    object      Na.water;
}
// * * * * * * * * * * * * * * * * * * * * * * * * * * * * * * * * * * * * * //

dimensions      [0 0 0 0 0 0 0];

internalField   nonuniform List<scalar> 
100
(
1.37541e-15
0.00317893
0.00610182
0.006158
0.00604874
0.00688915
0.00839236
0.00866511
0.00829269
0.00841799
0.00931546
0.00928694
0.00875954
0.00891875
0.0100122
0.00982439
0.0092258
0.00955683
0.0108782
0.00993399
0.00921285
0.0101691
0.0121487
0.00959391
0.00930337
0.0115568
0.014258
0.0162918
0.00546284
0.0122627
0.0171897
0.0191667
0.0197529
0.0198692
0.0198928
0.019905
0.0199254
0.0199557
0.019997
0.0200515
0.0201066
0.0201745
0.0202391
0.0203241
0.0204221
0.0205443
0.0206718
0.0208255
0.021006
0.0211933
0.0214104
0.0216413
0.0218765
0.0221118
0.0223542
0.0225674
0.0227219
0.0228384
0.0229167
0.022978
0.0229924
0.0229991
0.0229968
0.0230129
0.0230247
0.0230224
0.0230027
0.0230146
0.0230067
0.0230159
0.023041
0.0230389
0.0230244
0.0230344
0.0230389
0.0230325
0.023034
0.0230238
0.0230075
0.0229994
0.0229888
0.0230013
0.0229982
0.0230015
0.0230155
0.0230123
0.0230242
0.0230256
0.0230265
0.023021
0.023032
0.0230156
0.0229998
0.0230022
0.0229891
0.0229849
0.0229842
0.0229779
0.0229933
0.0229879
)
;

boundaryField
{
    inlet
    {
        type            fixedValue;
        value           uniform 0;
    }
    outlet
    {
        type            zeroGradient;
    }
    yzfaces
    {
        type            empty;
    }
}


// ************************************************************************* //
