/*--------------------------------*- C++ -*----------------------------------*\
| =========                 |                                                 |
| \\      /  F ield         | foam-extend: Open Source CFD                    |
|  \\    /   O peration     | Version:     5.0                                |
|   \\  /    A nd           | Web:         http://www.foam-extend.org         |
|    \\/     M anipulation  |                                                 |
\*---------------------------------------------------------------------------*/
FoamFile
{
    version     2.0;
    format      ascii;
    class       surfaceScalarField;
    location    "3";
    object      phi;
}
// * * * * * * * * * * * * * * * * * * * * * * * * * * * * * * * * * * * * * //

dimensions      [0 3 -1 0 0 0 0];

internalField   nonuniform List<scalar> 
99
(
1.22865e-06
1.21704e-06
1.22542e-06
1.21873e-06
1.21825e-06
1.22288e-06
1.21715e-06
1.21857e-06
1.22038e-06
1.22265e-06
1.22033e-06
1.218e-06
1.22074e-06
1.21782e-06
1.21152e-06
1.21117e-06
1.2099e-06
1.20738e-06
1.20663e-06
1.20497e-06
1.20381e-06
1.20541e-06
1.20395e-06
1.20291e-06
1.20374e-06
1.20309e-06
1.20354e-06
1.20668e-06
1.20317e-06
1.2033e-06
1.20459e-06
1.20431e-06
1.20463e-06
1.20441e-06
1.20499e-06
1.20472e-06
1.20622e-06
1.20654e-06
1.20783e-06
1.20702e-06
1.20858e-06
1.20669e-06
1.20529e-06
1.20695e-06
1.20556e-06
1.20479e-06
1.20575e-06
1.20446e-06
1.20356e-06
1.20312e-06
1.20373e-06
1.20371e-06
1.20526e-06
1.20531e-06
1.20568e-06
1.20546e-06
1.20581e-06
1.20589e-06
1.20656e-06
1.20631e-06
1.20692e-06
1.20557e-06
1.20353e-06
1.20384e-06
1.20244e-06
1.20295e-06
1.20489e-06
1.20502e-06
1.20694e-06
1.2085e-06
1.20746e-06
1.20825e-06
1.2083e-06
1.20738e-06
1.20683e-06
1.20642e-06
1.20497e-06
1.20448e-06
1.20516e-06
1.20465e-06
1.2039e-06
1.20311e-06
1.20291e-06
1.20219e-06
1.20306e-06
1.20346e-06
1.20469e-06
1.20492e-06
1.20572e-06
1.20545e-06
1.20516e-06
1.20165e-06
1.20067e-06
1.19949e-06
1.19936e-06
1.19953e-06
1.19768e-06
1.19821e-06
1.19749e-06
)
;

boundaryField
{
    inlet
    {
        type            calculated;
        value           uniform -1.225e-06;
    }
    outlet
    {
        type            calculated;
        value           uniform 1.19869e-06;
    }
    yzfaces
    {
        type            empty;
    }
}


// ************************************************************************* //
