/*--------------------------------*- C++ -*----------------------------------*\
| =========                 |                                                 |
| \\      /  F ield         | foam-extend: Open Source CFD                    |
|  \\    /   O peration     | Version:     5.0                                |
|   \\  /    A nd           | Web:         http://www.foam-extend.org         |
|    \\/     M anipulation  |                                                 |
\*---------------------------------------------------------------------------*/
FoamFile
{
    version     2.0;
    format      ascii;
    class       volVectorField;
    location    "3";
    object      U.gas;
}
// * * * * * * * * * * * * * * * * * * * * * * * * * * * * * * * * * * * * * //

dimensions      [0 1 -1 0 0 0 0];

internalField   nonuniform List<vector> 
100
(
(0.00693774 0 0)
(0.00775153 0 0)
(0.0083581 0 0)
(0.00885497 0 0)
(0.00930515 0 0)
(0.00968816 0 0)
(0.00999422 0 0)
(0.0102978 0 0)
(0.0105716 0 0)
(0.0107869 0 0)
(0.010974 0 0)
(0.0111462 0 0)
(0.0113573 0 0)
(0.0115226 0 0)
(0.0116753 0 0)
(0.011828 0 0)
(0.0119889 0 0)
(0.0121234 0 0)
(0.0122443 0 0)
(0.0123712 0 0)
(0.0124975 0 0)
(0.012631 0 0)
(0.0127519 0 0)
(0.0128822 0 0)
(0.0130109 0 0)
(0.0131365 0 0)
(0.0132264 0 0)
(0.0133243 0 0)
(0.0140012 0 0)
(0.013575 0 0)
(0.0129195 0 0)
(0.0125092 0 0)
(0.0123776 0 0)
(0.0123877 0 0)
(0.012443 0 0)
(0.0124844 0 0)
(0.0125073 0 0)
(0.0125152 0 0)
(0.0125045 0 0)
(0.0124753 0 0)
(0.0124403 0 0)
(0.0123835 0 0)
(0.0123024 0 0)
(0.0122156 0 0)
(0.0121039 0 0)
(0.0119569 0 0)
(0.0117829 0 0)
(0.0115611 0 0)
(0.0112755 0 0)
(0.0109212 0 0)
(0.0104864 0 0)
(0.00995097 0 0)
(0.0093137 0 0)
(0.00857935 0 0)
(0.00777893 0 0)
(0.0069728 0 0)
(0.00624969 0 0)
(0.0056698 0 0)
(0.00525402 0 0)
(0.00497913 0 0)
(0.00481165 0 0)
(0.00470955 0 0)
(0.00464503 0 0)
(0.00460971 0 0)
(0.00458936 0 0)
(0.00457655 0 0)
(0.00457629 0 0)
(0.00457693 0 0)
(0.00457895 0 0)
(0.00458461 0 0)
(0.00458513 0 0)
(0.00458437 0 0)
(0.0045856 0 0)
(0.00458409 0 0)
(0.00458063 0 0)
(0.00457889 0 0)
(0.00457732 0 0)
(0.00457432 0 0)
(0.00457381 0 0)
(0.0045717 0 0)
(0.00456907 0 0)
(0.00456568 0 0)
(0.00456472 0 0)
(0.00456362 0 0)
(0.00456384 0 0)
(0.00456576 0 0)
(0.00456927 0 0)
(0.00457256 0 0)
(0.00457412 0 0)
(0.00457538 0 0)
(0.00457336 0 0)
(0.00456495 0 0)
(0.00455667 0 0)
(0.00455312 0 0)
(0.00455055 0 0)
(0.00455114 0 0)
(0.00454804 0 0)
(0.00454549 0 0)
(0.00454597 0 0)
(0.00454415 0 0)
)
;

boundaryField
{
    inlet
    {
        type            fixedValue;
        value           uniform (0.005 0 0);
    }
    outlet
    {
        type            zeroGradient;
    }
    yzfaces
    {
        type            empty;
    }
}


// ************************************************************************* //
