/*--------------------------------*- C++ -*----------------------------------*\
| =========                 |                                                 |
| \\      /  F ield         | foam-extend: Open Source CFD                    |
|  \\    /   O peration     | Version:     5.0                                |
|   \\  /    A nd           | Web:         http://www.foam-extend.org         |
|    \\/     M anipulation  |                                                 |
\*---------------------------------------------------------------------------*/
FoamFile
{
    version     2.0;
    format      ascii;
    class       volVectorField;
    location    "3";
    object      U.water;
}
// * * * * * * * * * * * * * * * * * * * * * * * * * * * * * * * * * * * * * //

dimensions      [0 1 -1 0 0 0 0];

internalField   nonuniform List<vector> 
100
(
(7.67538e-05 0 0)
(0.000184351 0 0)
(0.000279147 0 0)
(0.000364762 0 0)
(0.000445985 0 0)
(0.000528574 0 0)
(0.000600949 0 0)
(0.000671551 0 0)
(0.000745842 0 0)
(0.000811488 0 0)
(0.000867277 0 0)
(0.00092147 0 0)
(0.000983083 0 0)
(0.00104674 0 0)
(0.00110576 0 0)
(0.00117281 0 0)
(0.00124429 0 0)
(0.00131399 0 0)
(0.00138229 0 0)
(0.00145187 0 0)
(0.00152504 0 0)
(0.00160517 0 0)
(0.00168804 0 0)
(0.00177596 0 0)
(0.00187958 0 0)
(0.00199499 0 0)
(0.00211976 0 0)
(0.00225571 0 0)
(0.00251792 0 0)
(0.00292048 0 0)
(0.00319577 0 0)
(0.00331217 0 0)
(0.00332987 0 0)
(0.00331058 0 0)
(0.00328948 0 0)
(0.00328097 0 0)
(0.00328642 0 0)
(0.00330224 0 0)
(0.00332568 0 0)
(0.00335365 0 0)
(0.00338813 0 0)
(0.00342796 0 0)
(0.00347029 0 0)
(0.0035266 0 0)
(0.00359123 0 0)
(0.00366123 0 0)
(0.00374559 0 0)
(0.00383987 0 0)
(0.00394221 0 0)
(0.00405694 0 0)
(0.00418345 0 0)
(0.00431617 0 0)
(0.00445021 0 0)
(0.00457628 0 0)
(0.00468433 0 0)
(0.00477058 0 0)
(0.00483341 0 0)
(0.00487636 0 0)
(0.00490437 0 0)
(0.00492119 0 0)
(0.00493111 0 0)
(0.0049349 0 0)
(0.00493095 0 0)
(0.00492904 0 0)
(0.00492773 0 0)
(0.00492647 0 0)
(0.00493173 0 0)
(0.00493615 0 0)
(0.00494045 0 0)
(0.00494762 0 0)
(0.00494871 0 0)
(0.00494821 0 0)
(0.00494994 0 0)
(0.00494815 0 0)
(0.00494519 0 0)
(0.00494322 0 0)
(0.0049393 0 0)
(0.0049353 0 0)
(0.00493573 0 0)
(0.0049362 0 0)
(0.00493364 0 0)
(0.0049305 0 0)
(0.00492843 0 0)
(0.00492651 0 0)
(0.00492683 0 0)
(0.00492946 0 0)
(0.00493277 0 0)
(0.00493573 0 0)
(0.00493787 0 0)
(0.00493893 0 0)
(0.00493782 0 0)
(0.00493011 0 0)
(0.0049209 0 0)
(0.00491645 0 0)
(0.00491377 0 0)
(0.00491383 0 0)
(0.0049104 0 0)
(0.00490768 0 0)
(0.00490724 0 0)
(0.00490838 0 0)
)
;

boundaryField
{
    inlet
    {
        type            fixedValue;
        value           uniform (0 0 0);
    }
    outlet
    {
        type            zeroGradient;
    }
    yzfaces
    {
        type            empty;
    }
}


// ************************************************************************* //
