/*--------------------------------*- C++ -*----------------------------------*\
| =========                 |                                                 |
| \\      /  F ield         | foam-extend: Open Source CFD                    |
|  \\    /   O peration     | Version:     5.0                                |
|   \\  /    A nd           | Web:         http://www.foam-extend.org         |
|    \\/     M anipulation  |                                                 |
\*---------------------------------------------------------------------------*/
FoamFile
{
    version     2.0;
    format      ascii;
    class       volScalarField;
    location    "1";
    object      alpha.gas;
}
// * * * * * * * * * * * * * * * * * * * * * * * * * * * * * * * * * * * * * //

dimensions      [0 0 0 0 0 0 0];

internalField   nonuniform List<scalar> 
100
(
0.112874
0.0935775
0.0823473
0.0735234
0.066326
0.059971
0.0532341
0.0449063
0.032676
0.00559478
0.0274284
0.0277623
0.0280484
0.0279063
0.0272718
0.0261778
0.024669
0.0228264
0.0207243
0.0184958
0.0163018
0.0143387
0.0127697
0.0116529
0.010936
0.0105098
0.0102704
0.0101408
0.0100729
0.0100369
0.0100208
0.0100088
0.0100048
0.0100004
0.00999883
0.00999752
0.00999918
0.00999909
0.00999792
0.00999923
0.00999803
0.0099986
0.00999853
0.0100003
0.00999902
0.00999768
0.00999795
0.00999849
0.00999741
0.00999748
0.00999774
0.00999619
0.00999667
0.00999725
0.00999835
0.0100002
0.0100005
0.010001
0.0100019
0.0100024
0.0100024
0.0100013
0.0100002
0.0100023
0.0100032
0.0100036
0.0100028
0.0100037
0.0100029
0.0100023
0.0100012
0.0100005
0.00999978
0.0099983
0.00999815
0.00999766
0.00999816
0.00999969
0.00999926
0.00999837
0.00999791
0.00999945
0.0100002
0.0100007
0.010001
0.0100001
0.00999855
0.00999758
0.00999748
0.00999964
0.0100001
0.0100006
0.0100015
0.0100028
0.0100025
0.0100013
0.0100018
0.0100014
0.0100007
0.00999838
)
;

boundaryField
{
    inlet
    {
        type            fixedValue;
        value           uniform 0.2;
    }
    outlet
    {
        type            zeroGradient;
    }
    yzfaces
    {
        type            empty;
    }
}


// ************************************************************************* //
