/*--------------------------------*- C++ -*----------------------------------*\
| =========                 |                                                 |
| \\      /  F ield         | foam-extend: Open Source CFD                    |
|  \\    /   O peration     | Version:     5.0                                |
|   \\  /    A nd           | Web:         http://www.foam-extend.org         |
|    \\/     M anipulation  |                                                 |
\*---------------------------------------------------------------------------*/
FoamFile
{
    version     2.0;
    format      ascii;
    class       volScalarField;
    location    "1";
    object      Cl.water;
}
// * * * * * * * * * * * * * * * * * * * * * * * * * * * * * * * * * * * * * //

dimensions      [0 0 0 0 0 0 0];

internalField   nonuniform List<scalar> 
100
(
0.0178099
0.0216994
0.0241144
0.0258712
0.0273284
0.0286773
0.0300262
0.0317349
0.0342234
0.0397949
0.0361911
0.0362101
0.0361775
0.0362349
0.0363654
0.036591
0.0369166
0.0372796
0.0377545
0.0382311
0.0386927
0.0390821
0.0394179
0.0396602
0.0398278
0.0399227
0.0399585
0.0399612
0.0399667
0.0399784
0.0399832
0.0399753
0.0399808
0.0400171
0.0400167
0.0399977
0.0399815
0.0400044
0.0400262
0.0399923
0.0399791
0.0399856
0.03999
0.0399908
0.0400066
0.0400261
0.0400291
0.0400013
0.0399857
0.039982
0.0399847
0.0399925
0.0399969
0.0399981
0.0399787
0.0399837
0.0399797
0.0399695
0.0399677
0.0399978
0.0399859
0.0400192
0.040007
0.0400086
0.0400102
0.0400229
0.0400205
0.040027
0.0400328
0.0400129
0.0400221
0.0400202
0.0400184
0.0399787
0.0399807
0.0399962
0.039995
0.0399978
0.0400038
0.0399875
0.0399558
0.0399935
0.0400018
0.0400359
0.0400131
0.0400232
0.0400119
0.0400074
0.0400138
0.0399794
0.0399843
0.0399817
0.0399902
0.0400009
0.0399944
0.0399851
0.0399959
0.0400249
0.0400105
0.0400372
)
;

boundaryField
{
    inlet
    {
        type            fixedValue;
        value           uniform 0;
    }
    outlet
    {
        type            zeroGradient;
    }
    yzfaces
    {
        type            empty;
    }
}


// ************************************************************************* //
