/*--------------------------------*- C++ -*----------------------------------*\
| =========                 |                                                 |
| \\      /  F ield         | foam-extend: Open Source CFD                    |
|  \\    /   O peration     | Version:     5.0                                |
|   \\  /    A nd           | Web:         http://www.foam-extend.org         |
|    \\/     M anipulation  |                                                 |
\*---------------------------------------------------------------------------*/
FoamFile
{
    version     2.0;
    format      ascii;
    class       volScalarField;
    location    "1";
    object      H2O.gas;
}
// * * * * * * * * * * * * * * * * * * * * * * * * * * * * * * * * * * * * * //

dimensions      [0 0 0 0 0 0 0];

internalField   nonuniform List<scalar> 
100
(
0.00021982
0.000182239
0.000160369
0.000143185
0.000129168
0.000116792
0.000103672
8.74538e-05
6.36355e-05
1.08957e-05
0.00326534
0.00538653
0.00765818
0.00998225
0.0121999
0.0141384
0.0156179
0.0164732
0.0166445
0.0161273
0.0150854
0.0137858
0.0125514
0.0115777
0.0109175
0.0105103
0.0102732
0.0101369
0.010068
0.0100334
0.0100165
0.0100033
0.00999923
0.0100037
0.0100036
0.00999688
0.00999302
0.00999876
0.0100039
0.00999896
0.00999629
0.00999678
0.00999636
0.00999869
0.0100016
0.0100062
0.0100065
0.0100004
0.00999426
0.00999505
0.00999637
0.00999822
0.00999762
0.00999445
0.00999185
0.00999739
0.00999665
0.00999519
0.00999626
0.0100027
0.0100002
0.0100069
0.010002
0.0100047
0.0100043
0.0100071
0.0100083
0.0100124
0.0100119
0.0100029
0.0100048
0.0100043
0.0100044
0.00999505
0.00999712
0.00999765
0.00999759
0.0100005
0.0099999
0.00999414
0.0099875
0.00999778
0.00999995
0.0100091
0.0100024
0.0100056
0.0100007
0.00999914
0.0100004
0.00999233
0.00999431
0.00999285
0.00999717
0.0100002
0.00999951
0.00999551
0.00999962
0.0100064
0.0100026
0.010007
)
;

boundaryField
{
    inlet
    {
        type            fixedValue;
        value           uniform 0;
    }
    outlet
    {
        type            zeroGradient;
    }
    yzfaces
    {
        type            empty;
    }
}


// ************************************************************************* //
