/*--------------------------------*- C++ -*----------------------------------*\
| =========                 |                                                 |
| \\      /  F ield         | foam-extend: Open Source CFD                    |
|  \\    /   O peration     | Version:     5.0                                |
|   \\  /    A nd           | Web:         http://www.foam-extend.org         |
|    \\/     M anipulation  |                                                 |
\*---------------------------------------------------------------------------*/
FoamFile
{
    version     2.0;
    format      ascii;
    class       volScalarField;
    location    "1";
    object      Na.water;
}
// * * * * * * * * * * * * * * * * * * * * * * * * * * * * * * * * * * * * * //

dimensions      [0 0 0 0 0 0 0];

internalField   nonuniform List<scalar> 
100
(
0.0178117
0.0217017
0.024125
0.0258786
0.027324
0.0286955
0.0300403
0.0317559
0.0342386
0.0398047
0.0361968
0.0362239
0.0361828
0.0362429
0.0363794
0.0366108
0.0369275
0.0373008
0.0377663
0.0382434
0.0387
0.0390812
0.0394169
0.0396617
0.0398311
0.0399265
0.0399748
0.039975
0.0399939
0.0400127
0.0400115
0.0399911
0.039981
0.040015
0.0400163
0.0399954
0.0399818
0.0400054
0.040033
0.0400096
0.040005
0.0400033
0.039996
0.0399936
0.0400039
0.0400219
0.0400139
0.0399886
0.0399696
0.0399693
0.0399779
0.0400028
0.0400001
0.0399776
0.0399583
0.0399872
0.0399932
0.0399809
0.0399766
0.0399981
0.0399817
0.0400115
0.0399948
0.0400062
0.0400022
0.0400134
0.0400191
0.0400274
0.0400427
0.040019
0.0400397
0.0400311
0.0400291
0.0400014
0.0400084
0.0399928
0.0399936
0.0399999
0.0400017
0.0399853
0.039957
0.0399913
0.0399958
0.0400369
0.0400122
0.0400247
0.0400138
0.0400181
0.0400139
0.0399716
0.0399853
0.0399852
0.0400003
0.0399971
0.0399905
0.0399767
0.039995
0.0400199
0.0400024
0.0400333
)
;

boundaryField
{
    inlet
    {
        type            fixedValue;
        value           uniform 0;
    }
    outlet
    {
        type            zeroGradient;
    }
    yzfaces
    {
        type            empty;
    }
}


// ************************************************************************* //
