/*--------------------------------*- C++ -*----------------------------------*\
| =========                 |                                                 |
| \\      /  F ield         | foam-extend: Open Source CFD                    |
|  \\    /   O peration     | Version:     5.0                                |
|   \\  /    A nd           | Web:         http://www.foam-extend.org         |
|    \\/     M anipulation  |                                                 |
\*---------------------------------------------------------------------------*/
FoamFile
{
    version     2.0;
    format      ascii;
    class       surfaceScalarField;
    location    "1";
    object      phi;
}
// * * * * * * * * * * * * * * * * * * * * * * * * * * * * * * * * * * * * * //

dimensions      [0 3 -1 0 0 0 0];

internalField   nonuniform List<scalar> 
99
(
1.22513e-06
1.22851e-06
1.22511e-06
1.21918e-06
1.22183e-06
1.2215e-06
1.21908e-06
1.21871e-06
1.21928e-06
1.2198e-06
1.21912e-06
1.22069e-06
1.22174e-06
1.22261e-06
1.22358e-06
1.22299e-06
1.22415e-06
1.22465e-06
1.22656e-06
1.22605e-06
1.22646e-06
1.22514e-06
1.22601e-06
1.22634e-06
1.22647e-06
1.22688e-06
1.22612e-06
1.2265e-06
1.22655e-06
1.22587e-06
1.22585e-06
1.22585e-06
1.22642e-06
1.22777e-06
1.22874e-06
1.22907e-06
1.22816e-06
1.22871e-06
1.2302e-06
1.22926e-06
1.22974e-06
1.22982e-06
1.22962e-06
1.22958e-06
1.23306e-06
1.23232e-06
1.23306e-06
1.23354e-06
1.23197e-06
1.23212e-06
1.23368e-06
1.23507e-06
1.23694e-06
1.23454e-06
1.23345e-06
1.23326e-06
1.23436e-06
1.23355e-06
1.23372e-06
1.23528e-06
1.23364e-06
1.23419e-06
1.23445e-06
1.23474e-06
1.23667e-06
1.23895e-06
1.23953e-06
1.2402e-06
1.24091e-06
1.24116e-06
1.23877e-06
1.23961e-06
1.24063e-06
1.24148e-06
1.24228e-06
1.24262e-06
1.242e-06
1.24262e-06
1.24128e-06
1.24061e-06
1.23988e-06
1.24001e-06
1.2394e-06
1.23917e-06
1.24039e-06
1.24073e-06
1.24222e-06
1.24108e-06
1.2401e-06
1.23861e-06
1.23979e-06
1.24002e-06
1.24064e-06
1.24115e-06
1.24028e-06
1.24005e-06
1.24125e-06
1.24092e-06
1.24066e-06
)
;

boundaryField
{
    inlet
    {
        type            calculated;
        value           uniform -1.225e-06;
    }
    outlet
    {
        type            calculated;
        value           uniform 1.24057e-06;
    }
    yzfaces
    {
        type            empty;
    }
}


// ************************************************************************* //
