/*--------------------------------*- C++ -*----------------------------------*\
| =========                 |                                                 |
| \\      /  F ield         | foam-extend: Open Source CFD                    |
|  \\    /   O peration     | Version:     5.0                                |
|   \\  /    A nd           | Web:         http://www.foam-extend.org         |
|    \\/     M anipulation  |                                                 |
\*---------------------------------------------------------------------------*/
FoamFile
{
    version     2.0;
    format      ascii;
    class       volScalarField;
    location    "1";
    object      S.gas;
}
// * * * * * * * * * * * * * * * * * * * * * * * * * * * * * * * * * * * * * //

dimensions      [0 0 0 0 0 0 0];

internalField   nonuniform List<scalar> 
100
(
0.564814
0.468091
0.412016
0.36766
0.332271
0.300234
0.266496
0.224941
0.163811
0.141183
0.137142
0.138811
0.140242
0.139531
0.136359
0.130889
0.123345
0.114132
0.103622
0.0924792
0.081509
0.0716935
0.0638486
0.0582643
0.0546798
0.052549
0.0513519
0.0507038
0.0503643
0.0501843
0.0501039
0.0500438
0.0500238
0.0500018
0.0499941
0.0499876
0.0499959
0.0499954
0.0499896
0.0499961
0.0499902
0.049993
0.0499927
0.0500013
0.0499951
0.0499884
0.0499898
0.0499925
0.0499871
0.0499874
0.0499887
0.049981
0.0499834
0.0499863
0.0499917
0.0500011
0.0500024
0.0500051
0.0500096
0.0500118
0.0500119
0.0500067
0.0500008
0.0500115
0.0500162
0.0500178
0.0500141
0.0500183
0.0500147
0.0500115
0.0500058
0.0500026
0.0499989
0.0499915
0.0499908
0.0499883
0.0499908
0.0499985
0.0499963
0.0499919
0.0499895
0.0499972
0.0500009
0.0500037
0.0500049
0.0500003
0.0499927
0.0499879
0.0499874
0.0499982
0.0500003
0.050003
0.0500075
0.0500138
0.0500123
0.0500066
0.0500091
0.0500068
0.0500036
0.0499919
)
;

boundaryField
{
    inlet
    {
        type            calculated;
        value           uniform 1;
    }
    outlet
    {
        type            calculated;
        value           uniform 0.0499919;
    }
    yzfaces
    {
        type            empty;
    }
}


// ************************************************************************* //
