/*--------------------------------*- C++ -*----------------------------------*\
| =========                 |                                                 |
| \\      /  F ield         | foam-extend: Open Source CFD                    |
|  \\    /   O peration     | Version:     5.0                                |
|   \\  /    A nd           | Web:         http://www.foam-extend.org         |
|    \\/     M anipulation  |                                                 |
\*---------------------------------------------------------------------------*/
FoamFile
{
    version     2.0;
    format      ascii;
    class       volVectorField;
    location    "1";
    object      U.gas;
}
// * * * * * * * * * * * * * * * * * * * * * * * * * * * * * * * * * * * * * //

dimensions      [0 1 -1 0 0 0 0];

internalField   nonuniform List<vector> 
100
(
(0.0087085 0 0)
(0.0101573 0 0)
(0.0111086 0 0)
(0.0118895 0 0)
(0.0125155 0 0)
(0.0131005 0 0)
(0.0136737 0 0)
(0.0143328 0 0)
(0.0151888 0 0)
(0.0127883 0 0)
(0.0114337 0 0)
(0.0111458 0 0)
(0.0112434 0 0)
(0.011358 0 0)
(0.0113745 0 0)
(0.011258 0 0)
(0.0110074 0 0)
(0.0106077 0 0)
(0.0100522 0 0)
(0.00933428 0 0)
(0.00848117 0 0)
(0.00756283 0 0)
(0.00668577 0 0)
(0.00596087 0 0)
(0.0054333 0 0)
(0.0050956 0 0)
(0.00489477 0 0)
(0.00478049 0 0)
(0.00472042 0 0)
(0.00468746 0 0)
(0.00466947 0 0)
(0.00466191 0 0)
(0.00465636 0 0)
(0.00465778 0 0)
(0.00466009 0 0)
(0.00466189 0 0)
(0.00466124 0 0)
(0.0046622 0 0)
(0.00466579 0 0)
(0.00466557 0 0)
(0.00466527 0 0)
(0.00466551 0 0)
(0.0046659 0 0)
(0.00466594 0 0)
(0.00467316 0 0)
(0.00467807 0 0)
(0.00467728 0 0)
(0.0046789 0 0)
(0.00467674 0 0)
(0.00467396 0 0)
(0.00467796 0 0)
(0.00468383 0 0)
(0.0046887 0 0)
(0.0046873 0 0)
(0.00468116 0 0)
(0.00468035 0 0)
(0.00468263 0 0)
(0.00468242 0 0)
(0.00468162 0 0)
(0.00468523 0 0)
(0.00468548 0 0)
(0.00468389 0 0)
(0.00468541 0 0)
(0.00468532 0 0)
(0.00469002 0 0)
(0.00469878 0 0)
(0.00470403 0 0)
(0.00470688 0 0)
(0.00470961 0 0)
(0.00471023 0 0)
(0.00470666 0 0)
(0.00470389 0 0)
(0.00470653 0 0)
(0.00470939 0 0)
(0.0047127 0 0)
(0.00471473 0 0)
(0.00471336 0 0)
(0.00471383 0 0)
(0.00471306 0 0)
(0.00470825 0 0)
(0.00470474 0 0)
(0.00470383 0 0)
(0.00470431 0 0)
(0.00470321 0 0)
(0.00470476 0 0)
(0.0047077 0 0)
(0.00471123 0 0)
(0.00471063 0 0)
(0.0047067 0 0)
(0.00470239 0 0)
(0.00470239 0 0)
(0.00470505 0 0)
(0.00470683 0 0)
(0.00470917 0 0)
(0.0047088 0 0)
(0.00470706 0 0)
(0.00470873 0 0)
(0.00471118 0 0)
(0.00471023 0 0)
(0.00470896 0 0)
)
;

boundaryField
{
    inlet
    {
        type            fixedValue;
        value           uniform (0.005 0 0);
    }
    outlet
    {
        type            zeroGradient;
    }
    yzfaces
    {
        type            empty;
    }
}


// ************************************************************************* //
