/*--------------------------------*- C++ -*----------------------------------*\
| =========                 |                                                 |
| \\      /  F ield         | foam-extend: Open Source CFD                    |
|  \\    /   O peration     | Version:     5.0                                |
|   \\  /    A nd           | Web:         http://www.foam-extend.org         |
|    \\/     M anipulation  |                                                 |
\*---------------------------------------------------------------------------*/
FoamFile
{
    version     2.0;
    format      ascii;
    class       volVectorField;
    location    "1";
    object      U.water;
}
// * * * * * * * * * * * * * * * * * * * * * * * * * * * * * * * * * * * * * //

dimensions      [0 1 -1 0 0 0 0];

internalField   nonuniform List<vector> 
100
(
(0.000187456 0 0)
(0.000475366 0 0)
(0.000732124 0 0)
(0.000975841 0 0)
(0.0012327 0 0)
(0.00150504 0 0)
(0.00182246 0 0)
(0.00225926 0 0)
(0.00297472 0 0)
(0.00369373 0 0)
(0.00395122 0 0)
(0.00398522 0 0)
(0.00396362 0 0)
(0.00395562 0 0)
(0.00398455 0 0)
(0.00404949 0 0)
(0.00414809 0 0)
(0.00427475 0 0)
(0.0044187 0 0)
(0.00456417 0 0)
(0.00469665 0 0)
(0.00480559 0 0)
(0.00488752 0 0)
(0.00494564 0 0)
(0.004981 0 0)
(0.00500191 0 0)
(0.00501214 0 0)
(0.00501734 0 0)
(0.00502137 0 0)
(0.00502172 0 0)
(0.00502114 0 0)
(0.00502146 0 0)
(0.00502295 0 0)
(0.005027 0 0)
(0.00503187 0 0)
(0.00503457 0 0)
(0.00503336 0 0)
(0.00503252 0 0)
(0.00503672 0 0)
(0.00503792 0 0)
(0.00503695 0 0)
(0.00503813 0 0)
(0.00503786 0 0)
(0.00503734 0 0)
(0.00504435 0 0)
(0.00504997 0 0)
(0.00505001 0 0)
(0.00505255 0 0)
(0.00505033 0 0)
(0.00504742 0 0)
(0.00505087 0 0)
(0.0050569 0 0)
(0.00506365 0 0)
(0.00506259 0 0)
(0.00505544 0 0)
(0.00505273 0 0)
(0.00505456 0 0)
(0.00505519 0 0)
(0.00505385 0 0)
(0.00505739 0 0)
(0.00505722 0 0)
(0.00505494 0 0)
(0.00505659 0 0)
(0.00505779 0 0)
(0.00506233 0 0)
(0.0050709 0 0)
(0.00507675 0 0)
(0.0050793 0 0)
(0.00508213 0 0)
(0.00508416 0 0)
(0.00507974 0 0)
(0.00507656 0 0)
(0.00508042 0 0)
(0.00508428 0 0)
(0.00508765 0 0)
(0.00508997 0 0)
(0.00508944 0 0)
(0.00508942 0 0)
(0.00508793 0 0)
(0.00508388 0 0)
(0.00508103 0 0)
(0.00507978 0 0)
(0.00507874 0 0)
(0.00507701 0 0)
(0.00507905 0 0)
(0.00508223 0 0)
(0.00508597 0 0)
(0.00508676 0 0)
(0.00508241 0 0)
(0.00507735 0 0)
(0.00507669 0 0)
(0.00507956 0 0)
(0.0050813 0 0)
(0.00508361 0 0)
(0.00508285 0 0)
(0.00508058 0 0)
(0.00508259 0 0)
(0.00508432 0 0)
(0.0050831 0 0)
(0.00508242 0 0)
)
;

boundaryField
{
    inlet
    {
        type            fixedValue;
        value           uniform (0 0 0);
    }
    outlet
    {
        type            zeroGradient;
    }
    yzfaces
    {
        type            empty;
    }
}


// ************************************************************************* //
