/*--------------------------------*- C++ -*----------------------------------*\
| =========                 |                                                 |
| \\      /  F ield         | foam-extend: Open Source CFD                    |
|  \\    /   O peration     | Version:     5.0                                |
|   \\  /    A nd           | Web:         http://www.foam-extend.org         |
|    \\/     M anipulation  |                                                 |
\*---------------------------------------------------------------------------*/
FoamFile
{
    version     2.0;
    format      ascii;
    class       volScalarField;
    location    "8";
    object      alpha.gas;
}
// * * * * * * * * * * * * * * * * * * * * * * * * * * * * * * * * * * * * * //

dimensions      [0 0 0 0 0 0 0];

internalField   nonuniform List<scalar> 
100
(
0.165362
0.149415
0.130464
0.113919
0.105884
0.104742
0.101187
0.100228
0.102307
0.100202
0.101245
0.104587
0.104424
0.10462
0.101957
0.102169
0.0996504
0.0983346
0.0975003
0.08805
0.0851018
0.0831634
0.0820669
0.0806924
0.0809411
0.0797133
0.0795229
0.0784565
0.0766116
0.0791601
0.0786822
0.0794911
0.0780231
0.0742766
0.0733091
0.0734127
0.0730683
0.0725457
0.0734648
0.0737127
0.0743931
0.072973
0.0710952
0.0671898
0.0683373
0.0676434
0.0674781
0.0672612
0.0664793
0.0659513
0.0654882
0.0662657
0.0648756
0.0643639
0.0628361
0.0626884
0.0599924
0.0632517
0.060707
0.0601251
0.056978
0.0558095
0.0556482
0.0541161
0.0541112
0.0498227
0.0487633
0.0477621
0.0451402
0.0432952
0.0397412
0.0326081
0.0110105
0.0259248
0.0249717
0.0245117
0.0242523
0.0240922
0.0239808
0.0239153
0.0238819
0.0238895
0.0239244
0.023984
0.0240549
0.0241422
0.0242345
0.0243292
0.0244323
0.0245288
0.0246271
0.024725
0.0248235
0.024921
0.0250123
0.0250954
0.025175
0.0252539
0.0253304
0.0253913
)
;

boundaryField
{
    inlet
    {
        type            fixedValue;
        value           uniform 0.2;
    }
    outlet
    {
        type            zeroGradient;
    }
    yzfaces
    {
        type            empty;
    }
}


// ************************************************************************* //
