/*--------------------------------*- C++ -*----------------------------------*\
| =========                 |                                                 |
| \\      /  F ield         | foam-extend: Open Source CFD                    |
|  \\    /   O peration     | Version:     5.0                                |
|   \\  /    A nd           | Web:         http://www.foam-extend.org         |
|    \\/     M anipulation  |                                                 |
\*---------------------------------------------------------------------------*/
FoamFile
{
    version     2.0;
    format      ascii;
    class       volScalarField;
    location    "8";
    object      CO2.water;
}
// * * * * * * * * * * * * * * * * * * * * * * * * * * * * * * * * * * * * * //

dimensions      [0 0 0 0 0 0 0];

internalField   nonuniform List<scalar> 
100
(
0.000909758
0.00132859
0.00182634
0.00226088
0.00247192
0.0025019
0.00259527
0.00262047
0.00256586
0.00262114
0.00259376
0.00250598
0.00251027
0.00250511
0.00257506
0.00256948
0.00263564
0.00267019
0.00269211
0.00294032
0.00301775
0.00306866
0.00309746
0.00313356
0.00312703
0.00315928
0.00316428
0.00319228
0.00324074
0.0031738
0.00318636
0.00316511
0.00320367
0.00330207
0.00332748
0.00332476
0.0033338
0.00334753
0.00332339
0.00331688
0.00329901
0.00333631
0.00338563
0.0034882
0.00345806
0.00347629
0.00348063
0.00348632
0.00350686
0.00352073
0.00353289
0.00351247
0.00354898
0.00356242
0.00360255
0.00360643
0.00367724
0.00359163
0.00365847
0.00367375
0.00375641
0.0037871
0.00379133
0.00383157
0.0038317
0.00394434
0.00397216
0.00399846
0.00406732
0.00411578
0.00420912
0.00439647
0.00496372
0.000955333
0.000375457
0.000143089
5.39994e-05
2.03402e-05
7.6458e-06
2.87142e-06
1.07454e-06
4.00851e-07
1.4896e-07
5.51403e-08
2.03489e-08
7.50164e-09
2.76018e-09
1.01494e-09
3.73468e-10
1.37525e-10
5.06962e-11
1.87455e-11
6.96597e-12
2.60157e-12
9.78199e-13
3.70901e-13
1.42049e-13
5.50925e-14
2.16407e-14
8.59029e-15
)
;

boundaryField
{
    inlet
    {
        type            fixedValue;
        value           uniform 0;
    }
    outlet
    {
        type            zeroGradient;
    }
    yzfaces
    {
        type            empty;
    }
}


// ************************************************************************* //
