/*--------------------------------*- C++ -*----------------------------------*\
| =========                 |                                                 |
| \\      /  F ield         | foam-extend: Open Source CFD                    |
|  \\    /   O peration     | Version:     5.0                                |
|   \\  /    A nd           | Web:         http://www.foam-extend.org         |
|    \\/     M anipulation  |                                                 |
\*---------------------------------------------------------------------------*/
FoamFile
{
    version     2.0;
    format      ascii;
    class       volScalarField;
    location    "8";
    object      CO2.gas;
}
// * * * * * * * * * * * * * * * * * * * * * * * * * * * * * * * * * * * * * //

dimensions      [0 0 0 0 0 0 0];

internalField   nonuniform List<scalar> 
100
(
0.16504
0.149124
0.13021
0.113697
0.105678
0.104538
0.10099
0.100033
0.102108
0.100007
0.101048
0.104383
0.10422
0.104416
0.101758
0.10197
0.0994564
0.0981431
0.0973104
0.0878785
0.0849361
0.0830014
0.0819071
0.0805353
0.0807834
0.0795581
0.079368
0.0783037
0.0764624
0.0790059
0.078529
0.0793362
0.0778712
0.0741319
0.0731664
0.0732697
0.072926
0.0724045
0.0733217
0.0735692
0.0742482
0.0728309
0.0709567
0.0670589
0.0682042
0.0675117
0.0673467
0.0671302
0.0663498
0.0658229
0.0653606
0.0661367
0.0647492
0.0642386
0.0627137
0.0625663
0.0598755
0.0631286
0.0605888
0.060008
0.056867
0.0557008
0.0555398
0.0540107
0.0540058
0.0497257
0.0486683
0.0476691
0.0450523
0.0432109
0.0396638
0.0325446
0.0109891
0.0254399
0.0241554
0.0232986
0.0226001
0.0219471
0.0213019
0.0206646
0.0200148
0.0193715
0.0187105
0.0180314
0.0173224
0.0166087
0.0158781
0.0151188
0.014359
0.01358
0.0127855
0.0119804
0.0111871
0.0104023
0.00962745
0.00886689
0.00812538
0.0074161
0.00673256
0.00608341
)
;

boundaryField
{
    inlet
    {
        type            fixedValue;
        value           uniform 0.2;
    }
    outlet
    {
        type            zeroGradient;
    }
    yzfaces
    {
        type            empty;
    }
}


// ************************************************************************* //
