/*--------------------------------*- C++ -*----------------------------------*\
| =========                 |                                                 |
| \\      /  F ield         | foam-extend: Open Source CFD                    |
|  \\    /   O peration     | Version:     5.0                                |
|   \\  /    A nd           | Web:         http://www.foam-extend.org         |
|    \\/     M anipulation  |                                                 |
\*---------------------------------------------------------------------------*/
FoamFile
{
    version     2.0;
    format      ascii;
    class       volScalarField;
    location    "8";
    object      H2O.gas;
}
// * * * * * * * * * * * * * * * * * * * * * * * * * * * * * * * * * * * * * //

dimensions      [0 0 0 0 0 0 0];

internalField   nonuniform List<scalar> 
100
(
0.000322037
0.000290981
0.000254075
0.000221854
0.000206205
0.000203983
0.00019706
0.000195191
0.00019924
0.000195141
0.000197171
0.00020368
0.000203362
0.000203745
0.000198558
0.000198972
0.000194066
0.000191504
0.000189879
0.000171475
0.000165733
0.000161958
0.000159823
0.000157146
0.00015763
0.000155239
0.000154868
0.000152792
0.000149199
0.000154162
0.000153231
0.000154807
0.000151948
0.000144651
0.000142767
0.000142969
0.000142298
0.000141281
0.00014307
0.000143553
0.000144878
0.000142113
0.000138456
0.00013085
0.000133085
0.000131734
0.000131412
0.000130989
0.000129466
0.000128438
0.000127536
0.000129051
0.000126343
0.000125347
0.000122371
0.000122084
0.000116833
0.000123181
0.000118225
0.000117092
0.000110963
0.000108687
0.000108373
0.00010539
0.00010538
9.70283e-05
9.4965e-05
9.30152e-05
8.79093e-05
8.43162e-05
7.73949e-05
6.35033e-05
2.14427e-05
0.000487249
0.000831638
0.00122943
0.00167553
0.00216616
0.00269837
0.00327316
0.00388736
0.004544
0.00524005
0.00597463
0.00673795
0.00753607
0.00836083
0.00920729
0.0100755
0.0109625
0.0118495
0.012734
0.0136259
0.0145076
0.015372
0.0162123
0.0170276
0.0178218
0.018581
0.0192985
)
;

boundaryField
{
    inlet
    {
        type            fixedValue;
        value           uniform 0;
    }
    outlet
    {
        type            zeroGradient;
    }
    yzfaces
    {
        type            empty;
    }
}


// ************************************************************************* //
