/*--------------------------------*- C++ -*----------------------------------*\
| =========                 |                                                 |
| \\      /  F ield         | foam-extend: Open Source CFD                    |
|  \\    /   O peration     | Version:     5.0                                |
|   \\  /    A nd           | Web:         http://www.foam-extend.org         |
|    \\/     M anipulation  |                                                 |
\*---------------------------------------------------------------------------*/
FoamFile
{
    version     2.0;
    format      ascii;
    class       surfaceScalarField;
    location    "8";
    object      phi;
}
// * * * * * * * * * * * * * * * * * * * * * * * * * * * * * * * * * * * * * //

dimensions      [0 3 -1 0 0 0 0];

internalField   nonuniform List<scalar> 
99
(
1.22214e-06
1.23835e-06
1.22765e-06
1.229e-06
1.22478e-06
1.22505e-06
1.21809e-06
1.22466e-06
1.22331e-06
1.22483e-06
1.22532e-06
1.22943e-06
1.23488e-06
1.23463e-06
1.23654e-06
1.23794e-06
1.23912e-06
1.23945e-06
1.23811e-06
1.23943e-06
1.23969e-06
1.23301e-06
1.23689e-06
1.2373e-06
1.23738e-06
1.23601e-06
1.23164e-06
1.22828e-06
1.22592e-06
1.22352e-06
1.22279e-06
1.22577e-06
1.22949e-06
1.22647e-06
1.22837e-06
1.22664e-06
1.22653e-06
1.22475e-06
1.22676e-06
1.22716e-06
1.2268e-06
1.22679e-06
1.22799e-06
1.228e-06
1.22963e-06
1.2282e-06
1.22808e-06
1.22547e-06
1.22404e-06
1.22493e-06
1.22365e-06
1.22613e-06
1.22729e-06
1.22529e-06
1.22614e-06
1.23054e-06
1.22719e-06
1.22841e-06
1.22995e-06
1.23289e-06
1.23101e-06
1.22887e-06
1.22925e-06
1.22684e-06
1.2298e-06
1.22639e-06
1.22673e-06
1.22688e-06
1.22676e-06
1.22654e-06
1.22555e-06
1.22643e-06
1.22561e-06
1.22583e-06
1.22686e-06
1.22622e-06
1.22553e-06
1.2236e-06
1.22414e-06
1.22306e-06
1.22477e-06
1.22525e-06
1.22374e-06
1.22375e-06
1.22427e-06
1.22294e-06
1.22313e-06
1.22433e-06
1.2244e-06
1.22508e-06
1.22566e-06
1.22573e-06
1.22459e-06
1.22394e-06
1.22388e-06
1.22381e-06
1.22696e-06
1.22545e-06
1.22633e-06
)
;

boundaryField
{
    inlet
    {
        type            calculated;
        value           uniform -1.225e-06;
    }
    outlet
    {
        type            calculated;
        value           uniform 1.23055e-06;
    }
    yzfaces
    {
        type            empty;
    }
}


// ************************************************************************* //
