/*--------------------------------*- C++ -*----------------------------------*\
| =========                 |                                                 |
| \\      /  F ield         | foam-extend: Open Source CFD                    |
|  \\    /   O peration     | Version:     5.0                                |
|   \\  /    A nd           | Web:         http://www.foam-extend.org         |
|    \\/     M anipulation  |                                                 |
\*---------------------------------------------------------------------------*/
FoamFile
{
    version     2.0;
    format      ascii;
    class       volVectorField;
    location    "8";
    object      U.gas;
}
// * * * * * * * * * * * * * * * * * * * * * * * * * * * * * * * * * * * * * //

dimensions      [0 1 -1 0 0 0 0];

internalField   nonuniform List<vector> 
100
(
(0.00599785 0 0)
(0.00677132 0 0)
(0.0076109 0 0)
(0.00854027 0 0)
(0.0090987 0 0)
(0.00917534 0 0)
(0.00925423 0 0)
(0.00945572 0 0)
(0.00928978 0 0)
(0.00943422 0 0)
(0.00943591 0 0)
(0.00924314 0 0)
(0.00915864 0 0)
(0.00926697 0 0)
(0.00938743 0 0)
(0.0093996 0 0)
(0.00974243 0 0)
(0.00967124 0 0)
(0.00987812 0 0)
(0.0107047 0 0)
(0.0108356 0 0)
(0.0107652 0 0)
(0.011229 0 0)
(0.0110859 0 0)
(0.0110726 0 0)
(0.0112036 0 0)
(0.0110831 0 0)
(0.011179 0 0)
(0.0113518 0 0)
(0.0110247 0 0)
(0.0111577 0 0)
(0.0111574 0 0)
(0.0113944 0 0)
(0.0116203 0 0)
(0.01172 0 0)
(0.0117391 0 0)
(0.0116565 0 0)
(0.0116964 0 0)
(0.0117142 0 0)
(0.0116069 0 0)
(0.0116195 0 0)
(0.0117222 0 0)
(0.012035 0 0)
(0.0122496 0 0)
(0.0121562 0 0)
(0.0121231 0 0)
(0.0121246 0 0)
(0.0122577 0 0)
(0.0122111 0 0)
(0.0123224 0 0)
(0.01232 0 0)
(0.0124496 0 0)
(0.0124894 0 0)
(0.0124305 0 0)
(0.0126522 0 0)
(0.0126802 0 0)
(0.0127503 0 0)
(0.0125258 0 0)
(0.0128509 0 0)
(0.0129725 0 0)
(0.0131256 0 0)
(0.0130801 0 0)
(0.0130434 0 0)
(0.0132444 0 0)
(0.0132537 0 0)
(0.0135033 0 0)
(0.0135609 0 0)
(0.0135178 0 0)
(0.013617 0 0)
(0.0135413 0 0)
(0.013678 0 0)
(0.0142877 0 0)
(0.0127176 0 0)
(0.0115559 0 0)
(0.0109091 0 0)
(0.0106042 0 0)
(0.0104509 0 0)
(0.0103563 0 0)
(0.0102983 0 0)
(0.0102597 0 0)
(0.0102427 0 0)
(0.0102373 0 0)
(0.0102318 0 0)
(0.0102362 0 0)
(0.0102552 0 0)
(0.0102728 0 0)
(0.0102968 0 0)
(0.0103307 0 0)
(0.0103617 0 0)
(0.0103944 0 0)
(0.0104291 0 0)
(0.0104622 0 0)
(0.0104856 0 0)
(0.0105073 0 0)
(0.0105341 0 0)
(0.0105588 0 0)
(0.0105951 0 0)
(0.0106254 0 0)
(0.0106471 0 0)
(0.0106969 0 0)
)
;

boundaryField
{
    inlet
    {
        type            fixedValue;
        value           uniform (0.005 0 0);
    }
    outlet
    {
        type            zeroGradient;
    }
    yzfaces
    {
        type            empty;
    }
}


// ************************************************************************* //
