/*--------------------------------*- C++ -*----------------------------------*\
| =========                 |                                                 |
| \\      /  F ield         | foam-extend: Open Source CFD                    |
|  \\    /   O peration     | Version:     5.0                                |
|   \\  /    A nd           | Web:         http://www.foam-extend.org         |
|    \\/     M anipulation  |                                                 |
\*---------------------------------------------------------------------------*/
FoamFile
{
    version     2.0;
    format      ascii;
    class       volVectorField;
    location    "8";
    object      U.water;
}
// * * * * * * * * * * * * * * * * * * * * * * * * * * * * * * * * * * * * * //

dimensions      [0 1 -1 0 0 0 0];

internalField   nonuniform List<vector> 
100
(
(3.44345e-05 0 0)
(9.05598e-05 0 0)
(0.000165554 0 0)
(0.000271939 0 0)
(0.000389967 0 0)
(0.000461727 0 0)
(0.000483977 0 0)
(0.000510057 0 0)
(0.000527344 0 0)
(0.000514858 0 0)
(0.00053094 0 0)
(0.000522063 0 0)
(0.000490511 0 0)
(0.000478261 0 0)
(0.000494477 0 0)
(0.000510157 0 0)
(0.000532108 0 0)
(0.000569952 0 0)
(0.000577887 0 0)
(0.000664566 0 0)
(0.000792685 0 0)
(0.000827803 0 0)
(0.000868456 0 0)
(0.000935053 0 0)
(0.000923066 0 0)
(0.000928894 0 0)
(0.000941554 0 0)
(0.000938268 0 0)
(0.000973871 0 0)
(0.000985938 0 0)
(0.000952287 0 0)
(0.000967859 0 0)
(0.000990218 0 0)
(0.0010487 0 0)
(0.00111066 0 0)
(0.00114864 0 0)
(0.00115501 0 0)
(0.00114767 0 0)
(0.00115591 0 0)
(0.00115051 0 0)
(0.00112924 0 0)
(0.00113554 0 0)
(0.00118786 0 0)
(0.00128137 0 0)
(0.00134045 0 0)
(0.00133863 0 0)
(0.00133109 0 0)
(0.00134536 0 0)
(0.00137389 0 0)
(0.00139316 0 0)
(0.00142198 0 0)
(0.00144809 0 0)
(0.00148873 0 0)
(0.00150316 0 0)
(0.0015251 0 0)
(0.00158466 0 0)
(0.00161983 0 0)
(0.00162149 0 0)
(0.00161948 0 0)
(0.00169965 0 0)
(0.00178157 0 0)
(0.00185334 0 0)
(0.00188692 0 0)
(0.00193188 0 0)
(0.00201297 0 0)
(0.00210749 0 0)
(0.00225203 0 0)
(0.00238559 0 0)
(0.00251273 0 0)
(0.00265577 0 0)
(0.0028232 0 0)
(0.00322076 0 0)
(0.00374782 0 0)
(0.00402701 0 0)
(0.00416321 0 0)
(0.00422439 0 0)
(0.00425186 0 0)
(0.00426439 0 0)
(0.00427294 0 0)
(0.00427916 0 0)
(0.00428404 0 0)
(0.00428959 0 0)
(0.00428678 0 0)
(0.00428068 0 0)
(0.00427692 0 0)
(0.00426966 0 0)
(0.00426056 0 0)
(0.00425584 0 0)
(0.00425092 0 0)
(0.00424471 0 0)
(0.00423932 0 0)
(0.00423272 0 0)
(0.0042234 0 0)
(0.00421263 0 0)
(0.00420387 0 0)
(0.00419703 0 0)
(0.0041961 0 0)
(0.00419266 0 0)
(0.00418521 0 0)
(0.00418764 0 0)
)
;

boundaryField
{
    inlet
    {
        type            fixedValue;
        value           uniform (0 0 0);
    }
    outlet
    {
        type            zeroGradient;
    }
    yzfaces
    {
        type            empty;
    }
}


// ************************************************************************* //
