/*--------------------------------*- C++ -*----------------------------------*\
| =========                 |                                                 |
| \\      /  F ield         | foam-extend: Open Source CFD                    |
|  \\    /   O peration     | Version:     5.0                                |
|   \\  /    A nd           | Web:         http://www.foam-extend.org         |
|    \\/     M anipulation  |                                                 |
\*---------------------------------------------------------------------------*/
FoamFile
{
    version     2.0;
    format      ascii;
    class       volScalarField;
    location    "9.00738";
    object      CO2.water;
}
// * * * * * * * * * * * * * * * * * * * * * * * * * * * * * * * * * * * * * //

dimensions      [0 0 0 0 0 0 0];

internalField   nonuniform List<scalar> 
100
(
5.97587e-05
1.49275e-05
3.09242e-06
5.80955e-07
1.0238e-07
1.72427e-08
2.80612e-09
4.44406e-10
6.88208e-11
1.04588e-11
1.56401e-12
2.30603e-13
3.35747e-14
4.83257e-15
6.88406e-16
9.71449e-17
1.35911e-17
1.886e-18
2.59715e-19
3.55132e-20
4.82412e-21
6.51129e-22
8.73482e-23
1.16527e-23
1.54602e-24
2.04031e-25
2.67926e-26
3.50147e-27
4.55424e-28
5.89763e-29
7.60482e-30
9.76403e-31
1.24857e-31
1.59061e-32
2.01832e-33
2.55174e-34
3.21454e-35
4.03468e-36
5.04719e-37
6.29217e-38
7.81881e-39
9.68661e-40
1.19631e-40
1.47278e-41
1.80804e-42
2.21306e-43
2.70106e-44
3.28748e-45
3.98998e-46
4.83059e-47
5.83268e-48
7.02405e-49
8.43755e-50
1.01087e-50
1.20831e-51
1.44071e-52
1.71382e-53
2.03396e-54
2.40845e-55
2.8458e-56
3.35479e-57
3.9465e-58
4.63241e-59
5.42514e-60
6.34093e-61
7.39522e-62
8.60878e-63
1.00004e-63
1.15946e-64
1.34152e-65
1.54934e-66
1.78605e-67
2.05468e-68
2.35949e-69
2.7046e-70
3.09498e-71
3.5355e-72
4.03136e-73
4.5888e-74
5.21448e-75
5.9159e-76
6.70033e-77
7.57712e-78
8.55364e-79
9.64164e-80
1.08499e-80
1.21912e-81
1.36748e-82
1.53164e-83
1.71274e-84
1.9124e-85
2.13235e-86
2.37385e-87
2.63944e-88
2.93016e-89
3.24864e-90
3.59649e-91
3.97656e-92
4.39042e-93
4.84082e-94
)
;

boundaryField
{
    inlet
    {
        type            fixedValue;
        value           uniform 0;
    }
    outlet
    {
        type            zeroGradient;
    }
    yzfaces
    {
        type            empty;
    }
}


// ************************************************************************* //
