/*--------------------------------*- C++ -*----------------------------------*\
| =========                 |                                                 |
| \\      /  F ield         | foam-extend: Open Source CFD                    |
|  \\    /   O peration     | Version:     5.0                                |
|   \\  /    A nd           | Web:         http://www.foam-extend.org         |
|    \\/     M anipulation  |                                                 |
\*---------------------------------------------------------------------------*/
FoamFile
{
    version     2.0;
    format      ascii;
    class       volScalarField;
    location    "10";
    object      alpha.gas;
}
// * * * * * * * * * * * * * * * * * * * * * * * * * * * * * * * * * * * * * //

dimensions      [0 0 0 0 0 0 0];

internalField   nonuniform List<scalar> 
100
(
0.170155
0.157834
0.150527
0.14325
0.13717
0.135563
0.135185
0.133139
0.130005
0.126094
0.121912
0.118244
0.115024
0.112435
0.110477
0.108184
0.105748
0.103915
0.101899
0.099624
0.0980756
0.0967514
0.0955494
0.0939219
0.0925375
0.0914188
0.0902053
0.0887141
0.087637
0.0872015
0.086995
0.0870778
0.0868068
0.086259
0.0852868
0.0844694
0.0835952
0.0826061
0.0815779
0.0808201
0.0799331
0.0789087
0.0780343
0.0773882
0.0767334
0.0763151
0.0758277
0.0753319
0.0746767
0.0741605
0.0736476
0.0730715
0.0724767
0.0718803
0.0712228
0.0707744
0.0705153
0.0700675
0.0697254
0.0692568
0.0687635
0.0682593
0.0677847
0.0673324
0.0668854
0.0664198
0.0660947
0.0656401
0.0652291
0.0647464
0.0642881
0.0638984
0.0633952
0.0630786
0.0627661
0.0623441
0.0620583
0.0617464
0.0613712
0.0608968
0.060618
0.0601614
0.0598231
0.0594201
0.0590992
0.0587834
0.0584552
0.0581348
0.0577779
0.0575152
0.0572101
0.05695
0.0566452
0.0563853
0.0561792
0.0558864
0.0555831
0.0553045
0.0550041
0.0546885
)
;

boundaryField
{
    inlet
    {
        type            fixedValue;
        value           uniform 0.2;
    }
    outlet
    {
        type            zeroGradient;
    }
    yzfaces
    {
        type            empty;
    }
}


// ************************************************************************* //
