/*--------------------------------*- C++ -*----------------------------------*\
| =========                 |                                                 |
| \\      /  F ield         | foam-extend: Open Source CFD                    |
|  \\    /   O peration     | Version:     5.0                                |
|   \\  /    A nd           | Web:         http://www.foam-extend.org         |
|    \\/     M anipulation  |                                                 |
\*---------------------------------------------------------------------------*/
FoamFile
{
    version     2.0;
    format      ascii;
    class       volScalarField;
    location    "10";
    object      alpha.gas;
}
// * * * * * * * * * * * * * * * * * * * * * * * * * * * * * * * * * * * * * //

dimensions      [0 0 0 0 0 0 0];

internalField   nonuniform List<scalar> 
100
(
0.169466
0.157791
0.149969
0.14208
0.136346
0.134985
0.134974
0.133947
0.131088
0.127204
0.122439
0.118203
0.11486
0.112822
0.110715
0.108809
0.105999
0.103905
0.102056
0.100025
0.0982276
0.0968527
0.0958159
0.093796
0.0924732
0.090978
0.0898108
0.0882052
0.087335
0.086737
0.0865829
0.0864171
0.0861191
0.0858009
0.0852676
0.0847821
0.0836888
0.083162
0.0821691
0.0812649
0.0803495
0.0792825
0.0785807
0.0778502
0.0770513
0.0764136
0.0758732
0.0752119
0.0746994
0.0741636
0.073555
0.0730563
0.0724505
0.0718955
0.0711794
0.0707908
0.0704323
0.0700218
0.0695919
0.0691318
0.0686901
0.0683897
0.0679189
0.0674801
0.0669667
0.0665661
0.0662258
0.0658188
0.0654536
0.065073
0.0646117
0.064204
0.0638448
0.0633842
0.0628914
0.0623425
0.0619112
0.0616122
0.0613714
0.0610225
0.0606065
0.0603674
0.0600074
0.0595942
0.0591742
0.0588179
0.0584581
0.0581208
0.0578246
0.0574326
0.0570586
0.0567294
0.0564676
0.0561958
0.0559511
0.0556553
0.0553862
0.0551627
0.0549374
0.054788
)
;

boundaryField
{
    inlet
    {
        type            fixedValue;
        value           uniform 0.2;
    }
    outlet
    {
        type            zeroGradient;
    }
    yzfaces
    {
        type            empty;
    }
}


// ************************************************************************* //
