/*--------------------------------*- C++ -*----------------------------------*\
| =========                 |                                                 |
| \\      /  F ield         | foam-extend: Open Source CFD                    |
|  \\    /   O peration     | Version:     5.0                                |
|   \\  /    A nd           | Web:         http://www.foam-extend.org         |
|    \\/     M anipulation  |                                                 |
\*---------------------------------------------------------------------------*/
FoamFile
{
    version     2.0;
    format      ascii;
    class       volScalarField;
    location    "10";
    object      alpha.gas;
}
// * * * * * * * * * * * * * * * * * * * * * * * * * * * * * * * * * * * * * //

dimensions      [0 0 0 0 0 0 0];

internalField   nonuniform List<scalar> 
100
(
0.169759
0.157929
0.150341
0.142101
0.136364
0.134835
0.134808
0.133941
0.130518
0.126907
0.121909
0.117852
0.115212
0.112578
0.110163
0.107631
0.105027
0.103063
0.101389
0.0996079
0.0976757
0.0962462
0.0949668
0.0939007
0.0923822
0.0915326
0.0903872
0.0889196
0.0876474
0.0867215
0.0864152
0.0861615
0.0858295
0.0857006
0.0852902
0.0845188
0.0836416
0.0827836
0.0819378
0.0810131
0.0799832
0.0792757
0.0785554
0.0777733
0.0770375
0.0764134
0.0758628
0.075355
0.0748957
0.0743514
0.0739502
0.0732662
0.0728231
0.0722509
0.0717106
0.0710635
0.0704801
0.070017
0.0695917
0.0691364
0.0687019
0.0682942
0.0677599
0.0673285
0.0667877
0.066413
0.0659294
0.0656125
0.0652351
0.0649049
0.0646082
0.0642053
0.0637837
0.0633927
0.0629798
0.0626105
0.0621368
0.061727
0.061404
0.0611132
0.0607251
0.0603198
0.0600154
0.0596129
0.0592724
0.0589018
0.0585898
0.0582286
0.0579959
0.0576908
0.057434
0.0571337
0.0568641
0.0566072
0.0562591
0.0559801
0.0557323
0.0554323
0.05514
0.0548924
)
;

boundaryField
{
    inlet
    {
        type            fixedValue;
        value           uniform 0.2;
    }
    outlet
    {
        type            zeroGradient;
    }
    yzfaces
    {
        type            empty;
    }
}


// ************************************************************************* //
