/*--------------------------------*- C++ -*----------------------------------*\
| =========                 |                                                 |
| \\      /  F ield         | foam-extend: Open Source CFD                    |
|  \\    /   O peration     | Version:     5.0                                |
|   \\  /    A nd           | Web:         http://www.foam-extend.org         |
|    \\/     M anipulation  |                                                 |
\*---------------------------------------------------------------------------*/
FoamFile
{
    version     2.0;
    format      ascii;
    class       volScalarField;
    location    "10";
    object      Cl.water;
}
// * * * * * * * * * * * * * * * * * * * * * * * * * * * * * * * * * * * * * //

dimensions      [0 0 0 0 0 0 0];

internalField   nonuniform List<scalar> 
100
(
0.00350521
0.00484756
0.00574498
0.00665028
0.00730536
0.00746461
0.00746121
0.0075883
0.00791523
0.00836608
0.0089139
0.00939355
0.00977086
0.010009
0.0102528
0.0104694
0.0107914
0.0110306
0.0112482
0.0114828
0.0116831
0.0118381
0.0119691
0.0121943
0.0123448
0.012512
0.0126532
0.0128339
0.0129404
0.013002
0.0130168
0.0130434
0.0130719
0.013119
0.0131728
0.0132321
0.0133516
0.013418
0.0135224
0.0136311
0.0137338
0.0138535
0.013938
0.0140215
0.0141159
0.0141923
0.0142561
0.0143351
0.0143946
0.014458
0.014517
0.0145782
0.014649
0.0147163
0.0147958
0.0148401
0.0148863
0.0149319
0.0149784
0.0150337
0.0150857
0.0151228
0.0151739
0.015224
0.0152835
0.0153356
0.0153691
0.0154173
0.0154636
0.0155039
0.0155543
0.0156004
0.0156406
0.0156923
0.0157439
0.0158057
0.0158552
0.0158906
0.015919
0.0159604
0.0160025
0.0160338
0.016072
0.0161232
0.0161721
0.0162119
0.0162538
0.0162945
0.0163261
0.016363
0.0164058
0.0164434
0.0164777
0.0165081
0.0165383
0.0165695
0.0166058
0.0166336
0.0166529
0.0166785
)
;

boundaryField
{
    inlet
    {
        type            fixedValue;
        value           uniform 0;
    }
    outlet
    {
        type            zeroGradient;
    }
    yzfaces
    {
        type            empty;
    }
}


// ************************************************************************* //
