/*--------------------------------*- C++ -*----------------------------------*\
| =========                 |                                                 |
| \\      /  F ield         | foam-extend: Open Source CFD                    |
|  \\    /   O peration     | Version:     5.0                                |
|   \\  /    A nd           | Web:         http://www.foam-extend.org         |
|    \\/     M anipulation  |                                                 |
\*---------------------------------------------------------------------------*/
FoamFile
{
    version     2.0;
    format      ascii;
    class       volScalarField;
    location    "10";
    object      Cl.water;
}
// * * * * * * * * * * * * * * * * * * * * * * * * * * * * * * * * * * * * * //

dimensions      [0 0 0 0 0 0 0];

internalField   nonuniform List<scalar> 
100
(
0.00347261
0.00483414
0.00569745
0.00664765
0.00729959
0.00748268
0.00749199
0.00758789
0.00798627
0.00840049
0.00896966
0.00943359
0.00973728
0.0100429
0.0103187
0.0106103
0.0109096
0.0111346
0.0113238
0.0115256
0.0117469
0.0119136
0.0120581
0.0121807
0.0123518
0.0124517
0.0125829
0.0127459
0.0129006
0.0130047
0.013042
0.0130721
0.0131108
0.0131293
0.0131725
0.0132618
0.0133656
0.0134656
0.0135607
0.0136673
0.0137865
0.0138712
0.0139515
0.0140423
0.0141275
0.0141984
0.0142631
0.0143217
0.0143687
0.0144285
0.0144783
0.0145529
0.0146066
0.0146694
0.0147317
0.0148096
0.0148773
0.0149301
0.014975
0.0150302
0.0150793
0.0151281
0.0151935
0.0152411
0.0152992
0.0153452
0.015398
0.0154334
0.0154784
0.0155147
0.0155526
0.0156006
0.0156468
0.0156953
0.0157389
0.0157786
0.0158341
0.01588
0.0159187
0.0159499
0.0159918
0.0160319
0.0160685
0.0161117
0.0161487
0.0161932
0.0162287
0.0162734
0.0163054
0.0163378
0.0163708
0.0164088
0.0164338
0.0164624
0.0164995
0.0165348
0.0165636
0.0166003
0.0166357
0.0166625
)
;

boundaryField
{
    inlet
    {
        type            fixedValue;
        value           uniform 0;
    }
    outlet
    {
        type            zeroGradient;
    }
    yzfaces
    {
        type            empty;
    }
}


// ************************************************************************* //
