/*--------------------------------*- C++ -*----------------------------------*\
| =========                 |                                                 |
| \\      /  F ield         | foam-extend: Open Source CFD                    |
|  \\    /   O peration     | Version:     5.0                                |
|   \\  /    A nd           | Web:         http://www.foam-extend.org         |
|    \\/     M anipulation  |                                                 |
\*---------------------------------------------------------------------------*/
FoamFile
{
    version     2.0;
    format      ascii;
    class       volScalarField;
    location    "10";
    object      Cl.water;
}
// * * * * * * * * * * * * * * * * * * * * * * * * * * * * * * * * * * * * * //

dimensions      [0 0 0 0 0 0 0];

internalField   nonuniform List<scalar> 
100
(
0.00342475
0.00484403
0.00568114
0.00651656
0.00721888
0.00739912
0.00744642
0.00768286
0.00803941
0.00848741
0.00896867
0.00938691
0.00975514
0.0100521
0.0102805
0.0105426
0.010821
0.0110305
0.0112604
0.0115164
0.0117013
0.0118549
0.0119943
0.0121824
0.0123355
0.0124686
0.0126143
0.0127787
0.0129058
0.0129614
0.0129745
0.0129688
0.0130021
0.0130628
0.0131687
0.0132669
0.0133658
0.0134727
0.0135908
0.0136847
0.0137915
0.013907
0.0140108
0.0140856
0.0141572
0.0142088
0.0142637
0.0143212
0.0143917
0.0144508
0.0145112
0.0145725
0.0146426
0.01471
0.0147837
0.0148357
0.0148677
0.0149141
0.0149605
0.0150145
0.0150699
0.0151291
0.0151869
0.0152377
0.0152898
0.015341
0.0153762
0.0154295
0.0154736
0.0155259
0.0155752
0.0156255
0.0156743
0.015717
0.0157491
0.0157958
0.0158307
0.0158679
0.0159139
0.0159657
0.0160069
0.0160555
0.0160912
0.016134
0.0161726
0.0162184
0.0162531
0.0162908
0.0163294
0.0163611
0.0163937
0.0164259
0.0164615
0.0164901
0.0165148
0.0165495
0.0165807
0.0166129
0.0166481
0.0166857
)
;

boundaryField
{
    inlet
    {
        type            fixedValue;
        value           uniform 0;
    }
    outlet
    {
        type            zeroGradient;
    }
    yzfaces
    {
        type            empty;
    }
}


// ************************************************************************* //
