/*--------------------------------*- C++ -*----------------------------------*\
| =========                 |                                                 |
| \\      /  F ield         | foam-extend: Open Source CFD                    |
|  \\    /   O peration     | Version:     5.0                                |
|   \\  /    A nd           | Web:         http://www.foam-extend.org         |
|    \\/     M anipulation  |                                                 |
\*---------------------------------------------------------------------------*/
FoamFile
{
    version     2.0;
    format      ascii;
    class       volScalarField;
    location    "10";
    object      CO2.gas;
}
// * * * * * * * * * * * * * * * * * * * * * * * * * * * * * * * * * * * * * //

dimensions      [0 0 0 0 0 0 0];

internalField   nonuniform List<scalar> 
100
(
0.169136
0.157483
0.149677
0.141803
0.13608
0.134722
0.134711
0.133686
0.130833
0.126957
0.122201
0.117973
0.114636
0.112603
0.1105
0.108597
0.105792
0.103703
0.101857
0.0998303
0.0980363
0.0966641
0.0956293
0.0936133
0.0922931
0.0908008
0.0896359
0.0880334
0.0871649
0.0865681
0.0864143
0.0862488
0.0859514
0.0856338
0.0851016
0.084617
0.0835259
0.083
0.0820091
0.0811066
0.080193
0.0791281
0.0784276
0.0776985
0.0769012
0.0762648
0.0757254
0.0750654
0.0745539
0.0740192
0.0734118
0.072914
0.0723094
0.0717554
0.0710408
0.0706529
0.0702952
0.0698854
0.0694564
0.0689972
0.0685563
0.0682566
0.0677866
0.0673487
0.0668363
0.0664365
0.0660968
0.0656906
0.0653261
0.0649463
0.0644859
0.064079
0.0637204
0.0632608
0.0627689
0.0622211
0.0617907
0.0614923
0.0612519
0.0609037
0.0604885
0.0602498
0.0598906
0.0594781
0.059059
0.0587033
0.0583443
0.0580077
0.057712
0.0573208
0.0569475
0.0566189
0.0563576
0.0560864
0.0558421
0.0555469
0.0552783
0.0550553
0.0548304
0.0546813
)
;

boundaryField
{
    inlet
    {
        type            fixedValue;
        value           uniform 0.2;
    }
    outlet
    {
        type            zeroGradient;
    }
    yzfaces
    {
        type            empty;
    }
}


// ************************************************************************* //
