/*--------------------------------*- C++ -*----------------------------------*\
| =========                 |                                                 |
| \\      /  F ield         | foam-extend: Open Source CFD                    |
|  \\    /   O peration     | Version:     5.0                                |
|   \\  /    A nd           | Web:         http://www.foam-extend.org         |
|    \\/     M anipulation  |                                                 |
\*---------------------------------------------------------------------------*/
FoamFile
{
    version     2.0;
    format      ascii;
    class       volScalarField;
    location    "10";
    object      CO2.water;
}
// * * * * * * * * * * * * * * * * * * * * * * * * * * * * * * * * * * * * * //

dimensions      [0 0 0 0 0 0 0];

internalField   nonuniform List<scalar> 
100
(
0.00078386
0.00110748
0.00129938
0.00149052
0.00165021
0.0016924
0.00170233
0.00175608
0.00183839
0.00194109
0.00205096
0.00214728
0.00223187
0.00229985
0.00235129
0.00241149
0.00247549
0.00252362
0.00257659
0.00263633
0.002677
0.00271178
0.00274335
0.00278609
0.00282245
0.00285184
0.00288371
0.00292287
0.00295116
0.0029626
0.00296802
0.00296585
0.00297297
0.00298735
0.00301289
0.00303436
0.00305732
0.0030833
0.0031103
0.00313021
0.0031535
0.00318041
0.00320337
0.00322034
0.00323754
0.00324853
0.00326133
0.00327435
0.00329156
0.00330512
0.00331859
0.00333372
0.00334934
0.00336501
0.00338227
0.00339405
0.00340086
0.00341262
0.0034216
0.00343391
0.00344687
0.00346011
0.00347257
0.00348445
0.00349619
0.00350842
0.00351696
0.0035289
0.0035397
0.00355237
0.00356441
0.00357465
0.00358786
0.00359618
0.00360439
0.00361547
0.00362297
0.00363117
0.00364102
0.00365348
0.00366081
0.0036728
0.00368168
0.00369227
0.00370069
0.00370899
0.00371761
0.00372603
0.0037354
0.0037423
0.00375031
0.00375714
0.00376515
0.00377197
0.00377739
0.00378508
0.00379304
0.00380036
0.00380825
0.00381654
)
;

boundaryField
{
    inlet
    {
        type            fixedValue;
        value           uniform 0;
    }
    outlet
    {
        type            zeroGradient;
    }
    yzfaces
    {
        type            empty;
    }
}


// ************************************************************************* //
