/*--------------------------------*- C++ -*----------------------------------*\
| =========                 |                                                 |
| \\      /  F ield         | foam-extend: Open Source CFD                    |
|  \\    /   O peration     | Version:     5.0                                |
|   \\  /    A nd           | Web:         http://www.foam-extend.org         |
|    \\/     M anipulation  |                                                 |
\*---------------------------------------------------------------------------*/
FoamFile
{
    version     2.0;
    format      ascii;
    class       volScalarField;
    location    "10";
    object      CO2.water;
}
// * * * * * * * * * * * * * * * * * * * * * * * * * * * * * * * * * * * * * //

dimensions      [0 0 0 0 0 0 0];

internalField   nonuniform List<scalar> 
100
(
0.000794269
0.00110498
0.00130427
0.00152069
0.00167137
0.00171153
0.00171224
0.00173502
0.00182491
0.00191975
0.00205103
0.00215759
0.00222692
0.00229609
0.00235952
0.00242604
0.00249443
0.002546
0.00258998
0.00263675
0.0026875
0.00272505
0.00275865
0.00278665
0.00282653
0.00284885
0.00287893
0.00291748
0.00295089
0.00297521
0.00298325
0.00298992
0.00299864
0.00300202
0.0030128
0.00303306
0.0030561
0.00307864
0.00310085
0.00312514
0.00315219
0.00317077
0.00318969
0.00321023
0.00322955
0.00324595
0.00326041
0.00327374
0.00328581
0.0033001
0.00331064
0.00332861
0.00334024
0.00335527
0.00336946
0.00338646
0.00340178
0.00341394
0.00342511
0.00343707
0.00344848
0.00345919
0.00347323
0.00348455
0.00349876
0.0035086
0.0035213
0.00352963
0.00353954
0.00354821
0.003556
0.00356659
0.00357766
0.00358793
0.00359877
0.00360847
0.00362091
0.00363168
0.00364016
0.0036478
0.00365799
0.00366864
0.00367663
0.0036872
0.00369614
0.00370588
0.00371407
0.00372356
0.00372967
0.00373769
0.00374443
0.00375232
0.0037594
0.00376614
0.00377529
0.00378262
0.00378912
0.003797
0.00380468
0.00381119
)
;

boundaryField
{
    inlet
    {
        type            fixedValue;
        value           uniform 0;
    }
    outlet
    {
        type            zeroGradient;
    }
    yzfaces
    {
        type            empty;
    }
}


// ************************************************************************* //
