/*--------------------------------*- C++ -*----------------------------------*\
| =========                 |                                                 |
| \\      /  F ield         | foam-extend: Open Source CFD                    |
|  \\    /   O peration     | Version:     5.0                                |
|   \\  /    A nd           | Web:         http://www.foam-extend.org         |
|    \\/     M anipulation  |                                                 |
\*---------------------------------------------------------------------------*/
FoamFile
{
    version     2.0;
    format      ascii;
    class       volScalarField;
    location    "10";
    object      CO2.gas;
}
// * * * * * * * * * * * * * * * * * * * * * * * * * * * * * * * * * * * * * //

dimensions      [0 0 0 0 0 0 0];

internalField   nonuniform List<scalar> 
100
(
0.169824
0.157526
0.150234
0.142971
0.136902
0.135299
0.134922
0.132879
0.129752
0.125849
0.121674
0.118014
0.1148
0.112216
0.110262
0.107974
0.105542
0.103713
0.1017
0.0994299
0.0978846
0.096563
0.0953633
0.093739
0.0923573
0.0912407
0.0900296
0.0885413
0.0874663
0.0870317
0.0868256
0.0869082
0.0866377
0.086091
0.0851207
0.0843049
0.0834324
0.0824452
0.081419
0.0806627
0.0797774
0.078755
0.0778823
0.0772375
0.076584
0.0761665
0.07568
0.0751852
0.0745313
0.0740161
0.0735041
0.0729292
0.0723355
0.0717403
0.0710841
0.0706366
0.0703779
0.069931
0.0695897
0.0691219
0.0686296
0.0681264
0.0676527
0.0672013
0.0667552
0.0662904
0.065966
0.0655122
0.0651021
0.0646203
0.0641629
0.063774
0.0632717
0.0629557
0.0626438
0.0622227
0.0619375
0.0616262
0.0612517
0.0607783
0.0604999
0.0600442
0.0597066
0.0593043
0.0589841
0.0586689
0.0583413
0.0580215
0.0576654
0.0574032
0.0570987
0.0568391
0.0565349
0.0562755
0.0560697
0.0557776
0.0554748
0.0551968
0.054897
0.054582
)
;

boundaryField
{
    inlet
    {
        type            fixedValue;
        value           uniform 0.2;
    }
    outlet
    {
        type            zeroGradient;
    }
    yzfaces
    {
        type            empty;
    }
}


// ************************************************************************* //
