/*--------------------------------*- C++ -*----------------------------------*\
| =========                 |                                                 |
| \\      /  F ield         | foam-extend: Open Source CFD                    |
|  \\    /   O peration     | Version:     5.0                                |
|   \\  /    A nd           | Web:         http://www.foam-extend.org         |
|    \\/     M anipulation  |                                                 |
\*---------------------------------------------------------------------------*/
FoamFile
{
    version     2.0;
    format      ascii;
    class       volScalarField;
    location    "10";
    object      CO2.gas;
}
// * * * * * * * * * * * * * * * * * * * * * * * * * * * * * * * * * * * * * //

dimensions      [0 0 0 0 0 0 0];

internalField   nonuniform List<scalar> 
100
(
0.169428
0.157621
0.150048
0.141824
0.136098
0.134572
0.134545
0.13368
0.130264
0.12666
0.121671
0.117622
0.114987
0.112359
0.109949
0.107421
0.104822
0.102863
0.101191
0.0994139
0.0974855
0.0960587
0.0947818
0.0937178
0.0922023
0.0913543
0.0902112
0.0887464
0.0874767
0.0865526
0.0862469
0.0859937
0.0856624
0.0855337
0.0851241
0.0843542
0.0834788
0.0826223
0.0817782
0.0808553
0.0798275
0.0791213
0.0784024
0.0776218
0.0768875
0.0762646
0.0757151
0.0752083
0.0747499
0.0742066
0.0738062
0.0731235
0.0726813
0.0721102
0.0715709
0.0709251
0.0703428
0.0698806
0.0694562
0.0690018
0.0685681
0.0681612
0.0676279
0.0671974
0.0666576
0.0662837
0.065801
0.0654847
0.065108
0.0647785
0.0644824
0.0640803
0.0636595
0.0632693
0.0628572
0.0624885
0.0620157
0.0616068
0.0612844
0.0609942
0.0606068
0.0602023
0.0598985
0.0594968
0.059157
0.0587871
0.0584757
0.0581152
0.0578829
0.0575784
0.0573222
0.0570224
0.0567533
0.056497
0.0561495
0.055871
0.0556238
0.0553244
0.0550326
0.0547855
)
;

boundaryField
{
    inlet
    {
        type            fixedValue;
        value           uniform 0.2;
    }
    outlet
    {
        type            zeroGradient;
    }
    yzfaces
    {
        type            empty;
    }
}


// ************************************************************************* //
