/*--------------------------------*- C++ -*----------------------------------*\
| =========                 |                                                 |
| \\      /  F ield         | foam-extend: Open Source CFD                    |
|  \\    /   O peration     | Version:     5.0                                |
|   \\  /    A nd           | Web:         http://www.foam-extend.org         |
|    \\/     M anipulation  |                                                 |
\*---------------------------------------------------------------------------*/
FoamFile
{
    version     2.0;
    format      ascii;
    class       volScalarField;
    location    "10";
    object      CO2.water;
}
// * * * * * * * * * * * * * * * * * * * * * * * * * * * * * * * * * * * * * //

dimensions      [0 0 0 0 0 0 0];

internalField   nonuniform List<scalar> 
100
(
0.00080197
0.00110861
0.00131405
0.00152125
0.00167184
0.00170759
0.00170789
0.00173485
0.00180994
0.00191195
0.00203711
0.00214836
0.00223616
0.00228968
0.00234502
0.00239509
0.00246891
0.00252388
0.00257245
0.0026258
0.002673
0.00270912
0.00273635
0.0027894
0.00282414
0.00286341
0.00289407
0.00293624
0.00295909
0.0029748
0.00297885
0.0029832
0.00299103
0.00299939
0.00301339
0.00302614
0.00305486
0.0030687
0.00309477
0.00311852
0.00314256
0.00317059
0.00318902
0.00320821
0.00322919
0.00324594
0.00326013
0.0032775
0.00329096
0.00330503
0.00332102
0.00333412
0.00335003
0.00336461
0.00338341
0.00339362
0.00340304
0.00341382
0.00342511
0.00343719
0.00344879
0.00345668
0.00346905
0.00348057
0.00349406
0.00350458
0.00351352
0.00352421
0.0035338
0.0035438
0.00355591
0.00356662
0.00357605
0.00358815
0.0036011
0.00361551
0.00362684
0.00363469
0.00364102
0.00365018
0.00366111
0.00366739
0.00367684
0.00368769
0.00369872
0.00370808
0.00371753
0.00372639
0.00373417
0.00374447
0.00375429
0.00376294
0.00376981
0.00377695
0.00378338
0.00379115
0.00379822
0.00380408
0.00381
0.00381393
)
;

boundaryField
{
    inlet
    {
        type            fixedValue;
        value           uniform 0;
    }
    outlet
    {
        type            zeroGradient;
    }
    yzfaces
    {
        type            empty;
    }
}


// ************************************************************************* //
