/*--------------------------------*- C++ -*----------------------------------*\
| =========                 |                                                 |
| \\      /  F ield         | foam-extend: Open Source CFD                    |
|  \\    /   O peration     | Version:     5.0                                |
|   \\  /    A nd           | Web:         http://www.foam-extend.org         |
|    \\/     M anipulation  |                                                 |
\*---------------------------------------------------------------------------*/
FoamFile
{
    version     2.0;
    format      ascii;
    class       volScalarField;
    location    "10";
    object      H2O.gas;
}
// * * * * * * * * * * * * * * * * * * * * * * * * * * * * * * * * * * * * * //

dimensions      [0 0 0 0 0 0 0];

internalField   nonuniform List<scalar> 
100
(
0.000330601
0.000307562
0.000292785
0.000276738
0.000265565
0.000262587
0.000262534
0.000260845
0.00025418
0.000247148
0.000237414
0.000229513
0.000224372
0.000219243
0.00021454
0.000209607
0.000204536
0.000200713
0.000197452
0.000193983
0.000190221
0.000187437
0.000184945
0.000182869
0.000179912
0.000178257
0.000176026
0.000173168
0.000170691
0.000168888
0.000168291
0.000167797
0.00016715
0.000166899
0.0001661
0.000164598
0.00016289
0.000161219
0.000159571
0.000157771
0.000155765
0.000154387
0.000152984
0.000151461
0.000150028
0.000148813
0.000147741
0.000146752
0.000145857
0.000144797
0.000144016
0.000142684
0.000141821
0.000140706
0.000139654
0.000138394
0.000137258
0.000136356
0.000135528
0.000134641
0.000133795
0.000133001
0.00013196
0.00013112
0.000130067
0.000129337
0.000128396
0.000127778
0.000127043
0.0001264
0.000125823
0.000125038
0.000124217
0.000123455
0.000122651
0.000121932
0.00012101
0.000120212
0.000119582
0.000119016
0.00011826
0.000117471
0.000116878
0.000116094
0.000115431
0.00011471
0.000114102
0.000113399
0.000112945
0.000112351
0.000111851
0.000111266
0.000110741
0.000110241
0.000109563
0.00010902
0.000108537
0.000107953
0.000107383
0.000106901
)
;

boundaryField
{
    inlet
    {
        type            fixedValue;
        value           uniform 0;
    }
    outlet
    {
        type            zeroGradient;
    }
    yzfaces
    {
        type            empty;
    }
}


// ************************************************************************* //
