/*--------------------------------*- C++ -*----------------------------------*\
| =========                 |                                                 |
| \\      /  F ield         | foam-extend: Open Source CFD                    |
|  \\    /   O peration     | Version:     5.0                                |
|   \\  /    A nd           | Web:         http://www.foam-extend.org         |
|    \\/     M anipulation  |                                                 |
\*---------------------------------------------------------------------------*/
FoamFile
{
    version     2.0;
    format      ascii;
    class       volScalarField;
    location    "10";
    object      H2O.water;
}
// * * * * * * * * * * * * * * * * * * * * * * * * * * * * * * * * * * * * * //

dimensions      [0 0 0 0 0 0 0];

internalField   nonuniform List<scalar> 
100
(
0.0222122
0.0313734
0.0368181
0.0422313
0.046742
0.0479459
0.0482218
0.0497387
0.0520768
0.0549853
0.0580926
0.0608258
0.0632255
0.0651547
0.0666097
0.0683127
0.0701394
0.0714965
0.0729937
0.0746978
0.0758364
0.0768251
0.0777173
0.0789282
0.0799659
0.0807923
0.0816913
0.0828131
0.083607
0.0839203
0.0840864
0.0840219
0.0842152
0.0846304
0.0853562
0.0859545
0.0866065
0.087357
0.0881206
0.0886792
0.0893357
0.0901044
0.0907516
0.091232
0.0917239
0.0920305
0.0923894
0.0927589
0.0932548
0.0936388
0.0940183
0.0944483
0.0948883
0.0953335
0.095828
0.096159
0.096343
0.096685
0.0969317
0.0972826
0.0976577
0.098027
0.0983802
0.098712
0.0990469
0.0993918
0.0996313
0.0999723
0.100277
0.100642
0.100984
0.101269
0.101652
0.101876
0.102109
0.102428
0.102635
0.102867
0.103147
0.103509
0.103705
0.104054
0.104307
0.104607
0.104843
0.105074
0.10532
0.105557
0.105829
0.106018
0.106248
0.106441
0.106669
0.106861
0.107006
0.107228
0.107457
0.107662
0.107889
0.108126
)
;

boundaryField
{
    inlet
    {
        type            fixedValue;
        value           uniform 0;
    }
    outlet
    {
        type            zeroGradient;
    }
    yzfaces
    {
        type            empty;
    }
}


// ************************************************************************* //
