/*--------------------------------*- C++ -*----------------------------------*\
| =========                 |                                                 |
| \\      /  F ield         | foam-extend: Open Source CFD                    |
|  \\    /   O peration     | Version:     5.0                                |
|   \\  /    A nd           | Web:         http://www.foam-extend.org         |
|    \\/     M anipulation  |                                                 |
\*---------------------------------------------------------------------------*/
FoamFile
{
    version     2.0;
    format      ascii;
    class       volScalarField;
    location    "10";
    object      H2O.gas;
}
// * * * * * * * * * * * * * * * * * * * * * * * * * * * * * * * * * * * * * //

dimensions      [0 0 0 0 0 0 0];

internalField   nonuniform List<scalar> 
100
(
0.000331372
0.000307377
0.000293148
0.000278975
0.000267134
0.000264006
0.000263269
0.000259284
0.000253181
0.000245565
0.000237419
0.000230277
0.000224005
0.000218964
0.00021515
0.000210686
0.000205941
0.000202372
0.000198444
0.000194015
0.000190999
0.00018842
0.00018608
0.00018291
0.000180214
0.000178035
0.000175672
0.000172768
0.000170671
0.000169822
0.00016942
0.000169581
0.000169054
0.000167987
0.000166093
0.000164502
0.000162799
0.000160873
0.00015887
0.000157395
0.000155667
0.000153672
0.000151969
0.000150711
0.000149436
0.000148622
0.000147672
0.000146707
0.000145431
0.000144425
0.000143426
0.000142305
0.000141146
0.000139985
0.000138704
0.000137831
0.000137326
0.000136454
0.000135788
0.000134876
0.000133915
0.000132933
0.000132009
0.000131128
0.000130257
0.000129351
0.000128718
0.000127832
0.000127032
0.000126092
0.000125199
0.00012444
0.00012346
0.000122844
0.000122235
0.000121413
0.000120857
0.000120249
0.000119519
0.000118595
0.000118052
0.000117162
0.000116504
0.000115719
0.000115094
0.000114479
0.00011384
0.000113216
0.000112521
0.000112009
0.000111415
0.000110909
0.000110315
0.000109809
0.000109407
0.000108837
0.000108246
0.000107704
0.000107119
0.000106504
)
;

boundaryField
{
    inlet
    {
        type            fixedValue;
        value           uniform 0;
    }
    outlet
    {
        type            zeroGradient;
    }
    yzfaces
    {
        type            empty;
    }
}


// ************************************************************************* //
