/*--------------------------------*- C++ -*----------------------------------*\
| =========                 |                                                 |
| \\      /  F ield         | foam-extend: Open Source CFD                    |
|  \\    /   O peration     | Version:     5.0                                |
|   \\  /    A nd           | Web:         http://www.foam-extend.org         |
|    \\/     M anipulation  |                                                 |
\*---------------------------------------------------------------------------*/
FoamFile
{
    version     2.0;
    format      ascii;
    class       volScalarField;
    location    "10";
    object      H2O.water;
}
// * * * * * * * * * * * * * * * * * * * * * * * * * * * * * * * * * * * * * //

dimensions      [0 0 0 0 0 0 0];

internalField   nonuniform List<scalar> 
100
(
0.0225025
0.031298
0.0369549
0.0430778
0.0473568
0.0484855
0.0484995
0.0491472
0.0516858
0.0543735
0.0580996
0.0611253
0.0630908
0.0650475
0.066847
0.0687304
0.070666
0.0721252
0.0733744
0.074698
0.0761399
0.0772044
0.0781571
0.0789496
0.0800846
0.0807067
0.0815605
0.0826611
0.0835914
0.0842892
0.0845119
0.084703
0.084949
0.0850445
0.0853518
0.0859294
0.0865806
0.087218
0.0878496
0.088536
0.0893035
0.0898241
0.0903673
0.0909487
0.0914928
0.0919616
0.0923682
0.092743
0.0930878
0.0934943
0.0937884
0.0943027
0.0946272
0.0950555
0.0954577
0.0959422
0.096373
0.0967169
0.0970347
0.0973737
0.0976976
0.0979953
0.0983966
0.0987182
0.0991217
0.0993945
0.0997586
0.0999934
0.100277
0.100523
0.10074
0.101041
0.101358
0.101644
0.101956
0.102226
0.10258
0.102885
0.103127
0.103342
0.103633
0.103935
0.104159
0.104461
0.104714
0.104991
0.105218
0.10549
0.105659
0.10589
0.10608
0.106304
0.106506
0.106693
0.106955
0.107163
0.107344
0.10757
0.107787
0.107973
)
;

boundaryField
{
    inlet
    {
        type            fixedValue;
        value           uniform 0;
    }
    outlet
    {
        type            zeroGradient;
    }
    yzfaces
    {
        type            empty;
    }
}


// ************************************************************************* //
