/*--------------------------------*- C++ -*----------------------------------*\
| =========                 |                                                 |
| \\      /  F ield         | foam-extend: Open Source CFD                    |
|  \\    /   O peration     | Version:     5.0                                |
|   \\  /    A nd           | Web:         http://www.foam-extend.org         |
|    \\/     M anipulation  |                                                 |
\*---------------------------------------------------------------------------*/
FoamFile
{
    version     2.0;
    format      ascii;
    class       volScalarField;
    location    "10";
    object      H2O.gas;
}
// * * * * * * * * * * * * * * * * * * * * * * * * * * * * * * * * * * * * * //

dimensions      [0 0 0 0 0 0 0];

internalField   nonuniform List<scalar> 
100
(
0.000330029
0.000307293
0.000292059
0.000276696
0.00026553
0.000262879
0.000262857
0.000260858
0.00025529
0.000247727
0.000238446
0.000230197
0.000223687
0.000219718
0.000215615
0.000211902
0.000206429
0.000202353
0.000198751
0.000194796
0.000191295
0.000188618
0.000186599
0.000182665
0.000180089
0.000177177
0.000174904
0.000171777
0.000170082
0.000168918
0.000168618
0.000168295
0.000167714
0.000167095
0.000166056
0.000165111
0.000162982
0.000161955
0.000160022
0.000158261
0.000156478
0.0001544
0.000153034
0.000151611
0.000150055
0.000148813
0.000147761
0.000146473
0.000145475
0.000144431
0.000143246
0.000142275
0.000141095
0.000140014
0.00013862
0.000137863
0.000137165
0.000136365
0.000135528
0.000134632
0.000133772
0.000133187
0.00013227
0.000131416
0.000130416
0.000129636
0.000128973
0.00012818
0.000127469
0.000126728
0.000125829
0.000125035
0.000124336
0.000123439
0.000122479
0.00012141
0.00012057
0.000119988
0.000119519
0.00011884
0.000118029
0.000117564
0.000116863
0.000116058
0.00011524
0.000114546
0.000113846
0.000113189
0.000112612
0.000111848
0.00011112
0.000110479
0.000109969
0.00010944
0.000108963
0.000108387
0.000107863
0.000107428
0.000106989
0.000106698
)
;

boundaryField
{
    inlet
    {
        type            fixedValue;
        value           uniform 0;
    }
    outlet
    {
        type            zeroGradient;
    }
    yzfaces
    {
        type            empty;
    }
}


// ************************************************************************* //
