/*--------------------------------*- C++ -*----------------------------------*\
| =========                 |                                                 |
| \\      /  F ield         | foam-extend: Open Source CFD                    |
|  \\    /   O peration     | Version:     5.0                                |
|   \\  /    A nd           | Web:         http://www.foam-extend.org         |
|    \\/     M anipulation  |                                                 |
\*---------------------------------------------------------------------------*/
FoamFile
{
    version     2.0;
    format      ascii;
    class       volScalarField;
    location    "10";
    object      H2O.water;
}
// * * * * * * * * * * * * * * * * * * * * * * * * * * * * * * * * * * * * * //

dimensions      [0 0 0 0 0 0 0];

internalField   nonuniform List<scalar> 
100
(
0.0227211
0.0314074
0.0372256
0.0430946
0.047367
0.0483755
0.0483884
0.0491307
0.0512689
0.0541495
0.0576925
0.060858
0.0633568
0.0648617
0.0664302
0.0678481
0.069943
0.0715076
0.0728766
0.0743844
0.0757287
0.0767577
0.077515
0.0790281
0.0800098
0.0811355
0.0819905
0.0831951
0.0838384
0.0842885
0.0844032
0.0845136
0.08475
0.0849646
0.0853725
0.0857254
0.0865454
0.0869222
0.0876792
0.0883419
0.0890297
0.0898313
0.090342
0.0908871
0.0914855
0.0919587
0.0923625
0.0928519
0.0932347
0.0936298
0.0940897
0.0944481
0.0949031
0.0953133
0.0958581
0.0961446
0.096407
0.0967153
0.0970333
0.0973786
0.0977093
0.0979236
0.0982775
0.0986023
0.0989897
0.0992835
0.0995373
0.0998435
0.100111
0.100396
0.100742
0.101042
0.101306
0.101648
0.102015
0.102427
0.102754
0.102975
0.10315
0.10341
0.103724
0.103892
0.104165
0.104475
0.104786
0.105048
0.10532
0.10557
0.105788
0.106087
0.106364
0.106611
0.1068
0.107003
0.107178
0.107403
0.107608
0.107773
0.10794
0.108044
)
;

boundaryField
{
    inlet
    {
        type            fixedValue;
        value           uniform 0;
    }
    outlet
    {
        type            zeroGradient;
    }
    yzfaces
    {
        type            empty;
    }
}


// ************************************************************************* //
