/*--------------------------------*- C++ -*----------------------------------*\
| =========                 |                                                 |
| \\      /  F ield         | foam-extend: Open Source CFD                    |
|  \\    /   O peration     | Version:     5.0                                |
|   \\  /    A nd           | Web:         http://www.foam-extend.org         |
|    \\/     M anipulation  |                                                 |
\*---------------------------------------------------------------------------*/
FoamFile
{
    version     2.0;
    format      ascii;
    class       volScalarField;
    location    "10";
    object      Na.water;
}
// * * * * * * * * * * * * * * * * * * * * * * * * * * * * * * * * * * * * * //

dimensions      [0 0 0 0 0 0 0];

internalField   nonuniform List<scalar> 
100
(
0.00342401
0.00484129
0.005674
0.00651186
0.00721933
0.00739933
0.00744443
0.00768374
0.00804056
0.00849171
0.00897615
0.00939603
0.00976393
0.0100581
0.0102818
0.0105487
0.0108164
0.011034
0.0112708
0.0115255
0.0117097
0.0118568
0.0119957
0.0121814
0.0123386
0.0124685
0.0126054
0.0127713
0.012899
0.0129542
0.0129761
0.0129657
0.013003
0.0130605
0.0131755
0.0132749
0.0133751
0.0134809
0.0136005
0.0136858
0.0137862
0.0138994
0.014
0.014074
0.0141479
0.014197
0.0142579
0.0143136
0.0143853
0.0144448
0.0145043
0.014574
0.0146432
0.0147113
0.0147832
0.0148368
0.0148732
0.0149208
0.0149608
0.0150122
0.015062
0.0151245
0.0151756
0.0152334
0.0152817
0.015339
0.0153808
0.0154292
0.0154802
0.0155333
0.0155882
0.0156329
0.0156911
0.0157319
0.0157717
0.0158169
0.0158534
0.0158877
0.0159272
0.0159747
0.0160096
0.0160567
0.0160973
0.0161466
0.0161845
0.0162149
0.016254
0.0162917
0.0163287
0.0163632
0.0163981
0.0164258
0.016459
0.0164916
0.0165223
0.0165508
0.0165861
0.0166201
0.0166507
0.0166834
)
;

boundaryField
{
    inlet
    {
        type            fixedValue;
        value           uniform 0;
    }
    outlet
    {
        type            zeroGradient;
    }
    yzfaces
    {
        type            empty;
    }
}


// ************************************************************************* //
