/*--------------------------------*- C++ -*----------------------------------*\
| =========                 |                                                 |
| \\      /  F ield         | foam-extend: Open Source CFD                    |
|  \\    /   O peration     | Version:     5.0                                |
|   \\  /    A nd           | Web:         http://www.foam-extend.org         |
|    \\/     M anipulation  |                                                 |
\*---------------------------------------------------------------------------*/
FoamFile
{
    version     2.0;
    format      ascii;
    class       volScalarField;
    location    "10";
    object      Na.water;
}
// * * * * * * * * * * * * * * * * * * * * * * * * * * * * * * * * * * * * * //

dimensions      [0 0 0 0 0 0 0];

internalField   nonuniform List<scalar> 
100
(
0.00350608
0.0048458
0.00574681
0.00665401
0.00730982
0.00746748
0.00746882
0.00759899
0.00791781
0.00836827
0.00891749
0.00939689
0.00977602
0.0100173
0.0102566
0.0104785
0.0107982
0.0110325
0.0112467
0.0114819
0.0116875
0.0118423
0.0119637
0.0121922
0.012348
0.0125112
0.0126515
0.0128296
0.0129271
0.0129977
0.0130182
0.0130427
0.013068
0.0131161
0.0131736
0.0132343
0.0133593
0.0134291
0.0135346
0.0136437
0.0137445
0.013862
0.0139504
0.014033
0.0141181
0.0141894
0.0142481
0.0143236
0.0143803
0.0144435
0.0145172
0.0145833
0.0146474
0.0147104
0.0147832
0.0148309
0.0148714
0.0149173
0.0149713
0.0150187
0.0150661
0.0151071
0.0151607
0.0152131
0.015266
0.0153102
0.0153543
0.0153962
0.0154378
0.0154831
0.0155365
0.0155866
0.0156325
0.0156878
0.0157484
0.0158089
0.0158528
0.0158876
0.0159185
0.0159569
0.0160061
0.0160393
0.0160786
0.01612
0.0161689
0.0162139
0.0162508
0.0162881
0.0163269
0.016373
0.0164173
0.0164536
0.016485
0.0165157
0.0165489
0.0165812
0.0166017
0.0166266
0.0166594
0.0166757
)
;

boundaryField
{
    inlet
    {
        type            fixedValue;
        value           uniform 0;
    }
    outlet
    {
        type            zeroGradient;
    }
    yzfaces
    {
        type            empty;
    }
}


// ************************************************************************* //
