/*--------------------------------*- C++ -*----------------------------------*\
| =========                 |                                                 |
| \\      /  F ield         | foam-extend: Open Source CFD                    |
|  \\    /   O peration     | Version:     5.0                                |
|   \\  /    A nd           | Web:         http://www.foam-extend.org         |
|    \\/     M anipulation  |                                                 |
\*---------------------------------------------------------------------------*/
FoamFile
{
    version     2.0;
    format      ascii;
    class       volScalarField;
    location    "10";
    object      Na.water;
}
// * * * * * * * * * * * * * * * * * * * * * * * * * * * * * * * * * * * * * //

dimensions      [0 0 0 0 0 0 0];

internalField   nonuniform List<scalar> 
100
(
0.00347174
0.00483417
0.00570231
0.00665273
0.00730835
0.00748547
0.00748851
0.00758933
0.00798495
0.00839897
0.00897091
0.00943178
0.00973323
0.0100352
0.0103116
0.0106027
0.0109034
0.0111309
0.0113231
0.0115318
0.01175
0.0119108
0.0120594
0.0121824
0.0123549
0.0124602
0.0125905
0.0127559
0.0129098
0.0130095
0.0130476
0.0130735
0.0131121
0.0131236
0.0131728
0.013257
0.0133561
0.0134543
0.0135511
0.0136585
0.0137746
0.0138582
0.0139361
0.0140255
0.0141127
0.0141807
0.0142455
0.0143065
0.014362
0.0144257
0.0144725
0.0145496
0.0146028
0.014669
0.0147306
0.0147981
0.0148678
0.014922
0.0149734
0.0150226
0.0150728
0.0151232
0.0151768
0.0152276
0.0152927
0.0153386
0.0153927
0.015431
0.0154697
0.0155096
0.0155434
0.015586
0.015634
0.0156801
0.0157268
0.0157763
0.0158286
0.0158762
0.0159104
0.0159473
0.0159917
0.0160445
0.0160808
0.0161275
0.0161686
0.0162078
0.0162491
0.0162842
0.0163105
0.0163437
0.016371
0.0164013
0.0164372
0.0164711
0.0165114
0.0165396
0.0165704
0.0166007
0.0166325
0.0166609
)
;

boundaryField
{
    inlet
    {
        type            fixedValue;
        value           uniform 0;
    }
    outlet
    {
        type            zeroGradient;
    }
    yzfaces
    {
        type            empty;
    }
}


// ************************************************************************* //
