/*--------------------------------*- C++ -*----------------------------------*\
| =========                 |                                                 |
| \\      /  F ield         | foam-extend: Open Source CFD                    |
|  \\    /   O peration     | Version:     5.0                                |
|   \\  /    A nd           | Web:         http://www.foam-extend.org         |
|    \\/     M anipulation  |                                                 |
\*---------------------------------------------------------------------------*/
FoamFile
{
    version     2.0;
    format      ascii;
    class       volScalarField;
    location    "10";
    object      Ns;
}
// * * * * * * * * * * * * * * * * * * * * * * * * * * * * * * * * * * * * * //

dimensions      [0 -3 0 0 1 0 0];

internalField   nonuniform List<scalar> 
100
(
50.6158
60.6852
86.0119
85.6329
122.837
218.85
246.157
202.519
135.739
157.958
96.214
98.2556
59.7197
68.9343
18.0275
2.0435
40.435
19.1522
3.96523
37.9812
17.7966
59.8163
49.7524
41.6448
45.3365
56.4808
33.7913
24.8124
44.8108
53.8085
37.7267
40.0094
36.964
53.2433
54.2288
43.9348
65.7941
44.2234
69.3292
56.4387
45.828
46.9528
45.5862
19.5623
51.4073
58.5005
48.9803
59.1481
27.6285
61.0437
44.4377
34.0983
50.683
50.0091
49.3388
39.1241
78.1379
33.3628
62.9322
39.2724
60.5424
52.872
51.9811
56.0447
34.7136
51.9088
35.3035
57.8555
75.6317
54.6002
67.4805
28.499
68.6339
60.1421
64.8768
64.7576
52.1364
53.7818
51.3012
57.849
68.8384
55.2344
57.6494
57.6059
72.2817
65.3074
56.6182
65.561
48.8416
61.9769
53.7222
69.2468
62.0726
63.7316
79.1884
65.5008
72.4417
61.2273
64.7416
69.4417
)
;

boundaryField
{
    inlet
    {
        type            fixedValue;
        value           uniform 0;
    }
    outlet
    {
        type            zeroGradient;
    }
    yzfaces
    {
        type            empty;
    }
}


// ************************************************************************* //
