/*--------------------------------*- C++ -*----------------------------------*\
| =========                 |                                                 |
| \\      /  F ield         | foam-extend: Open Source CFD                    |
|  \\    /   O peration     | Version:     5.0                                |
|   \\  /    A nd           | Web:         http://www.foam-extend.org         |
|    \\/     M anipulation  |                                                 |
\*---------------------------------------------------------------------------*/
FoamFile
{
    version     2.0;
    format      ascii;
    class       volScalarField;
    location    "10";
    object      Ns;
}
// * * * * * * * * * * * * * * * * * * * * * * * * * * * * * * * * * * * * * //

dimensions      [0 -3 0 0 1 0 0];

internalField   nonuniform List<scalar> 
100
(
54.8031
91.5078
77.9469
135.566
136.006
240.706
217.802
173.33
221.559
129.778
58.6022
145.528
40.4924
68.1031
79.5476
58.3179
32.3312
47.842
21.4838
0.164854
26.1211
35.451
12.6333
7.09919
39.3891
26.379
58.5154
48.7265
83.0204
39.63
52.4813
86.0502
65.4587
70.0049
32.9481
39.2394
16.3204
53.1762
15.1748
30.265
37.1993
31.9968
44.6462
68.0183
42.9185
60.3944
66.1275
50.3661
61.3708
58.9903
48.6933
47.5455
37.5946
59.6909
36.1204
64.5264
46.8259
76.3072
67.816
55.473
51.2789
55.114
36.6484
57.7427
40.1812
46.7753
51.6276
51.961
69.8195
68.1215
58.1493
53.8343
56.1004
70.6946
67.4367
54.9335
66.946
70.4446
63.0711
61.2497
72.4399
71.9339
73.2601
47.6454
57.9313
64.7182
53.8184
73.7493
65.3175
78.507
67.0058
64.0274
49.8151
70.6593
55.5941
67.4983
77.6045
60.9968
56.7726
60.9387
)
;

boundaryField
{
    inlet
    {
        type            fixedValue;
        value           uniform 0;
    }
    outlet
    {
        type            zeroGradient;
    }
    yzfaces
    {
        type            empty;
    }
}


// ************************************************************************* //
