/*--------------------------------*- C++ -*----------------------------------*\
| =========                 |                                                 |
| \\      /  F ield         | foam-extend: Open Source CFD                    |
|  \\    /   O peration     | Version:     5.0                                |
|   \\  /    A nd           | Web:         http://www.foam-extend.org         |
|    \\/     M anipulation  |                                                 |
\*---------------------------------------------------------------------------*/
FoamFile
{
    version     2.0;
    format      ascii;
    class       volScalarField;
    location    "10";
    object      Ns;
}
// * * * * * * * * * * * * * * * * * * * * * * * * * * * * * * * * * * * * * //

dimensions      [0 -3 0 0 1 0 0];

internalField   nonuniform List<scalar> 
100
(
29.7446
47.7027
97.8352
94.0612
131.089
246.277
241.449
205.326
175.858
109.514
100.885
122.258
73.4323
78.2089
67.9126
25.1128
43.7153
22.2542
53.4432
18.2575
18.9038
59.1039
6.17112
9.13856
31.1578
59.6586
0.563396
23.139
60.3831
62.8373
57.317
70.3132
76.902
79.0063
48.7161
58.9597
60.2912
59.6925
60.0921
54.1529
38.8764
17.1294
39.8758
56.1393
44.7565
33.6077
41.7134
51.5688
47.4899
33.2047
19.2798
38.0991
51.6103
68.1233
57.6941
63.4591
37.4273
42.3514
59.4811
43.2095
65.7447
46.4939
43.4834
65.1404
36.0262
47.0794
62.8494
38.9209
39.024
36.5828
58.1977
44.372
34.9317
50.7361
64.9916
54.5137
41.7553
57.534
52.6652
65.0156
54.4835
50.7393
50.6129
53.0353
71.3129
49.5255
57.4048
55.7403
55.6211
42.9081
61.1877
54.4551
67.2423
61.4272
60.4905
54.8889
77.2729
69.0696
58.5727
80.053
)
;

boundaryField
{
    inlet
    {
        type            fixedValue;
        value           uniform 0;
    }
    outlet
    {
        type            zeroGradient;
    }
    yzfaces
    {
        type            empty;
    }
}


// ************************************************************************* //
