/*--------------------------------*- C++ -*----------------------------------*\
| =========                 |                                                 |
| \\      /  F ield         | foam-extend: Open Source CFD                    |
|  \\    /   O peration     | Version:     5.0                                |
|   \\  /    A nd           | Web:         http://www.foam-extend.org         |
|    \\/     M anipulation  |                                                 |
\*---------------------------------------------------------------------------*/
FoamFile
{
    version     2.0;
    format      ascii;
    class       surfaceScalarField;
    location    "10";
    object      phi;
}
// * * * * * * * * * * * * * * * * * * * * * * * * * * * * * * * * * * * * * //

dimensions      [0 3 -1 0 0 0 0];

internalField   nonuniform List<scalar> 
99
(
1.21817e-06
1.21919e-06
1.21164e-06
1.2111e-06
1.21783e-06
1.20934e-06
1.2134e-06
1.20148e-06
1.19348e-06
1.18004e-06
1.17124e-06
1.16106e-06
1.16856e-06
1.16223e-06
1.15894e-06
1.14952e-06
1.1505e-06
1.14364e-06
1.14727e-06
1.14244e-06
1.1442e-06
1.1491e-06
1.14324e-06
1.14547e-06
1.14587e-06
1.15375e-06
1.15131e-06
1.15899e-06
1.16347e-06
1.16988e-06
1.17592e-06
1.17743e-06
1.18569e-06
1.17704e-06
1.17316e-06
1.17208e-06
1.17271e-06
1.16617e-06
1.17046e-06
1.16627e-06
1.16609e-06
1.17121e-06
1.17067e-06
1.17203e-06
1.17204e-06
1.1711e-06
1.17295e-06
1.17122e-06
1.17452e-06
1.17131e-06
1.17259e-06
1.16947e-06
1.16884e-06
1.16309e-06
1.16622e-06
1.16674e-06
1.1671e-06
1.16665e-06
1.17021e-06
1.1684e-06
1.17198e-06
1.1676e-06
1.16591e-06
1.16238e-06
1.16259e-06
1.16259e-06
1.16154e-06
1.16328e-06
1.16096e-06
1.16493e-06
1.16537e-06
1.16333e-06
1.16371e-06
1.15981e-06
1.15854e-06
1.15823e-06
1.16181e-06
1.16266e-06
1.1625e-06
1.1652e-06
1.16605e-06
1.16213e-06
1.16308e-06
1.16339e-06
1.16309e-06
1.16402e-06
1.16333e-06
1.16264e-06
1.16281e-06
1.16658e-06
1.16763e-06
1.17214e-06
1.17194e-06
1.17251e-06
1.17017e-06
1.16798e-06
1.1719e-06
1.17196e-06
1.17222e-06
)
;

boundaryField
{
    inlet
    {
        type            calculated;
        value           uniform -1.225e-06;
    }
    outlet
    {
        type            calculated;
        value           uniform 1.16727e-06;
    }
    yzfaces
    {
        type            empty;
    }
}


// ************************************************************************* //
