/*--------------------------------*- C++ -*----------------------------------*\
| =========                 |                                                 |
| \\      /  F ield         | foam-extend: Open Source CFD                    |
|  \\    /   O peration     | Version:     5.0                                |
|   \\  /    A nd           | Web:         http://www.foam-extend.org         |
|    \\/     M anipulation  |                                                 |
\*---------------------------------------------------------------------------*/
FoamFile
{
    version     2.0;
    format      ascii;
    class       surfaceScalarField;
    location    "10";
    object      phi;
}
// * * * * * * * * * * * * * * * * * * * * * * * * * * * * * * * * * * * * * //

dimensions      [0 3 -1 0 0 0 0];

internalField   nonuniform List<scalar> 
99
(
1.22597e-06
1.22505e-06
1.24322e-06
1.23711e-06
1.23554e-06
1.24222e-06
1.24246e-06
1.2259e-06
1.22386e-06
1.21344e-06
1.21818e-06
1.20581e-06
1.19976e-06
1.19433e-06
1.19134e-06
1.19084e-06
1.19555e-06
1.19594e-06
1.18773e-06
1.19521e-06
1.19002e-06
1.19137e-06
1.18856e-06
1.19063e-06
1.19029e-06
1.19124e-06
1.18463e-06
1.19056e-06
1.18885e-06
1.1823e-06
1.18187e-06
1.18104e-06
1.17559e-06
1.17285e-06
1.17462e-06
1.16864e-06
1.16433e-06
1.16455e-06
1.16489e-06
1.16638e-06
1.16443e-06
1.16621e-06
1.16884e-06
1.16526e-06
1.16816e-06
1.16972e-06
1.16527e-06
1.16313e-06
1.16402e-06
1.16751e-06
1.16777e-06
1.17186e-06
1.1705e-06
1.17234e-06
1.17625e-06
1.17592e-06
1.17264e-06
1.17644e-06
1.17567e-06
1.17456e-06
1.17636e-06
1.17682e-06
1.17545e-06
1.17538e-06
1.17506e-06
1.17532e-06
1.17275e-06
1.171e-06
1.17293e-06
1.17538e-06
1.17255e-06
1.17235e-06
1.17575e-06
1.17557e-06
1.17265e-06
1.17337e-06
1.17266e-06
1.16891e-06
1.16775e-06
1.17072e-06
1.16831e-06
1.16818e-06
1.17291e-06
1.17341e-06
1.17676e-06
1.17551e-06
1.17385e-06
1.17406e-06
1.175e-06
1.17454e-06
1.17554e-06
1.17605e-06
1.17833e-06
1.17978e-06
1.1765e-06
1.17414e-06
1.17548e-06
1.17388e-06
1.17605e-06
)
;

boundaryField
{
    inlet
    {
        type            calculated;
        value           uniform -1.225e-06;
    }
    outlet
    {
        type            calculated;
        value           uniform 1.17764e-06;
    }
    yzfaces
    {
        type            empty;
    }
}


// ************************************************************************* //
