/*--------------------------------*- C++ -*----------------------------------*\
| =========                 |                                                 |
| \\      /  F ield         | foam-extend: Open Source CFD                    |
|  \\    /   O peration     | Version:     5.0                                |
|   \\  /    A nd           | Web:         http://www.foam-extend.org         |
|    \\/     M anipulation  |                                                 |
\*---------------------------------------------------------------------------*/
FoamFile
{
    version     2.0;
    format      ascii;
    class       surfaceScalarField;
    location    "10";
    object      phi;
}
// * * * * * * * * * * * * * * * * * * * * * * * * * * * * * * * * * * * * * //

dimensions      [0 3 -1 0 0 0 0];

internalField   nonuniform List<scalar> 
99
(
1.22803e-06
1.22412e-06
1.21578e-06
1.21302e-06
1.23003e-06
1.20915e-06
1.19787e-06
1.1995e-06
1.17754e-06
1.16582e-06
1.15577e-06
1.14594e-06
1.15162e-06
1.14959e-06
1.15197e-06
1.14435e-06
1.14157e-06
1.13307e-06
1.13332e-06
1.12804e-06
1.13359e-06
1.13869e-06
1.1419e-06
1.14199e-06
1.15299e-06
1.14921e-06
1.14708e-06
1.15586e-06
1.13882e-06
1.13761e-06
1.13503e-06
1.13168e-06
1.12865e-06
1.12184e-06
1.12279e-06
1.12228e-06
1.12041e-06
1.11661e-06
1.11638e-06
1.11877e-06
1.11811e-06
1.1116e-06
1.11436e-06
1.11976e-06
1.11645e-06
1.11986e-06
1.11825e-06
1.11277e-06
1.11304e-06
1.11536e-06
1.11115e-06
1.11389e-06
1.10986e-06
1.10947e-06
1.11164e-06
1.11319e-06
1.11445e-06
1.11021e-06
1.11215e-06
1.11172e-06
1.11168e-06
1.10841e-06
1.10685e-06
1.10781e-06
1.11118e-06
1.10437e-06
1.10572e-06
1.10388e-06
1.10574e-06
1.10565e-06
1.10547e-06
1.1028e-06
1.1088e-06
1.1045e-06
1.10754e-06
1.10818e-06
1.10598e-06
1.10504e-06
1.10558e-06
1.10604e-06
1.109e-06
1.11139e-06
1.10939e-06
1.11129e-06
1.11397e-06
1.11917e-06
1.11635e-06
1.11826e-06
1.11466e-06
1.11453e-06
1.11528e-06
1.11653e-06
1.11767e-06
1.11571e-06
1.11556e-06
1.1197e-06
1.11663e-06
1.11715e-06
1.11715e-06
)
;

boundaryField
{
    inlet
    {
        type            calculated;
        value           uniform -1.225e-06;
    }
    outlet
    {
        type            calculated;
        value           uniform 1.11688e-06;
    }
    yzfaces
    {
        type            empty;
    }
}


// ************************************************************************* //
