/*--------------------------------*- C++ -*----------------------------------*\
| =========                 |                                                 |
| \\      /  F ield         | foam-extend: Open Source CFD                    |
|  \\    /   O peration     | Version:     5.0                                |
|   \\  /    A nd           | Web:         http://www.foam-extend.org         |
|    \\/     M anipulation  |                                                 |
\*---------------------------------------------------------------------------*/
FoamFile
{
    version     2.0;
    format      ascii;
    class       surfaceScalarField;
    location    "10";
    object      phi.water;
}
// * * * * * * * * * * * * * * * * * * * * * * * * * * * * * * * * * * * * * //

dimensions      [0 3 -1 0 0 0 0];

internalField   nonuniform List<scalar> 
99
(
6.10827e-08
1.07432e-07
1.39373e-07
1.86669e-07
2.33067e-07
2.42844e-07
2.38891e-07
2.4103e-07
2.61344e-07
2.85193e-07
3.28985e-07
3.69423e-07
3.99662e-07
4.29274e-07
4.60301e-07
4.90042e-07
5.27986e-07
5.53809e-07
5.80795e-07
6.07389e-07
6.4686e-07
6.76088e-07
7.03798e-07
7.23765e-07
7.64133e-07
7.77975e-07
8.00089e-07
8.41668e-07
8.61394e-07
8.86587e-07
8.90291e-07
8.94835e-07
9.03298e-07
9.00114e-07
9.08158e-07
9.29756e-07
9.49795e-07
9.71305e-07
9.94004e-07
1.02231e-06
1.05274e-06
1.06866e-06
1.09411e-06
1.12406e-06
1.14531e-06
1.17072e-06
1.18722e-06
1.19842e-06
1.21552e-06
1.23693e-06
1.24564e-06
1.27542e-06
1.28551e-06
1.30733e-06
1.33005e-06
1.35724e-06
1.38313e-06
1.39658e-06
1.41594e-06
1.43516e-06
1.45246e-06
1.46476e-06
1.48597e-06
1.50742e-06
1.53472e-06
1.54132e-06
1.56761e-06
1.57891e-06
1.59911e-06
1.61444e-06
1.62728e-06
1.64461e-06
1.67272e-06
1.68466e-06
1.71143e-06
1.72792e-06
1.75083e-06
1.77072e-06
1.78938e-06
1.80341e-06
1.82991e-06
1.85571e-06
1.86887e-06
1.89553e-06
1.9191e-06
1.94843e-06
1.96027e-06
1.98532e-06
1.99194e-06
2.01183e-06
2.0263e-06
2.04767e-06
2.06511e-06
2.0771e-06
2.09848e-06
2.12268e-06
2.13243e-06
2.15217e-06
2.17126e-06
)
;

boundaryField
{
    inlet
    {
        type            fixedValue;
        value           uniform 0;
    }
    outlet
    {
        type            calculated;
        value           uniform 2.18777e-06;
    }
    yzfaces
    {
        type            empty;
    }
}


// ************************************************************************* //
