/*--------------------------------*- C++ -*----------------------------------*\
| =========                 |                                                 |
| \\      /  F ield         | foam-extend: Open Source CFD                    |
|  \\    /   O peration     | Version:     5.0                                |
|   \\  /    A nd           | Web:         http://www.foam-extend.org         |
|    \\/     M anipulation  |                                                 |
\*---------------------------------------------------------------------------*/
FoamFile
{
    version     2.0;
    format      ascii;
    class       surfaceScalarField;
    location    "10";
    object      phi.water;
}
// * * * * * * * * * * * * * * * * * * * * * * * * * * * * * * * * * * * * * //

dimensions      [0 3 -1 0 0 0 0];

internalField   nonuniform List<scalar> 
99
(
5.92471e-08
1.08511e-07
1.42593e-07
1.82526e-07
2.28447e-07
2.437e-07
2.42629e-07
2.53007e-07
2.74876e-07
3.05628e-07
3.46384e-07
3.82878e-07
4.18077e-07
4.49337e-07
4.71806e-07
5.03745e-07
5.42123e-07
5.69951e-07
5.99407e-07
6.44251e-07
6.70985e-07
6.96479e-07
7.17771e-07
7.53173e-07
7.85335e-07
8.09511e-07
8.33773e-07
8.73225e-07
9.00615e-07
9.07471e-07
9.14292e-07
9.10386e-07
9.11495e-07
9.23132e-07
9.50591e-07
9.67404e-07
9.87938e-07
1.0174e-06
1.04966e-06
1.07245e-06
1.09713e-06
1.13243e-06
1.16463e-06
1.18391e-06
1.21006e-06
1.22465e-06
1.23863e-06
1.25244e-06
1.27951e-06
1.30193e-06
1.32092e-06
1.34801e-06
1.37068e-06
1.3964e-06
1.42978e-06
1.44806e-06
1.45334e-06
1.47768e-06
1.49063e-06
1.5106e-06
1.53527e-06
1.55804e-06
1.57669e-06
1.59748e-06
1.61731e-06
1.64055e-06
1.6527e-06
1.67287e-06
1.69502e-06
1.72342e-06
1.74376e-06
1.76201e-06
1.79532e-06
1.80986e-06
1.82289e-06
1.84633e-06
1.86006e-06
1.87172e-06
1.89087e-06
1.92258e-06
1.93221e-06
1.96142e-06
1.98699e-06
2.01242e-06
2.03688e-06
2.05193e-06
2.06999e-06
2.08955e-06
2.11438e-06
2.12922e-06
2.15011e-06
2.16766e-06
2.19138e-06
2.21067e-06
2.21607e-06
2.2322e-06
2.25501e-06
2.26973e-06
2.29431e-06
)
;

boundaryField
{
    inlet
    {
        type            fixedValue;
        value           uniform 0;
    }
    outlet
    {
        type            calculated;
        value           uniform 2.31807e-06;
    }
    yzfaces
    {
        type            empty;
    }
}


// ************************************************************************* //
