/*--------------------------------*- C++ -*----------------------------------*\
| =========                 |                                                 |
| \\      /  F ield         | foam-extend: Open Source CFD                    |
|  \\    /   O peration     | Version:     5.0                                |
|   \\  /    A nd           | Web:         http://www.foam-extend.org         |
|    \\/     M anipulation  |                                                 |
\*---------------------------------------------------------------------------*/
FoamFile
{
    version     2.0;
    format      ascii;
    class       volVectorField;
    location    "10";
    object      U.gas;
}
// * * * * * * * * * * * * * * * * * * * * * * * * * * * * * * * * * * * * * //

dimensions      [0 1 -1 0 0 0 0];

internalField   nonuniform List<vector> 
100
(
(0.00589269 0 0)
(0.00631909 0 0)
(0.00659039 0 0)
(0.00692223 0 0)
(0.00723362 0 0)
(0.00729029 0 0)
(0.00719236 0 0)
(0.00720797 0 0)
(0.00732412 0 0)
(0.00740737 0 0)
(0.00761237 0 0)
(0.00777353 0 0)
(0.00790847 0 0)
(0.00808057 0 0)
(0.00823114 0 0)
(0.00837507 0 0)
(0.00850831 0 0)
(0.00859309 0 0)
(0.00867316 0 0)
(0.00877726 0 0)
(0.00891511 0 0)
(0.00905456 0 0)
(0.00917938 0 0)
(0.00926862 0 0)
(0.00943349 0 0)
(0.00951961 0 0)
(0.00958776 0 0)
(0.00973433 0 0)
(0.00979533 0 0)
(0.00978317 0 0)
(0.00978089 0 0)
(0.00977473 0 0)
(0.00977288 0 0)
(0.00973571 0 0)
(0.0097483 0 0)
(0.00981682 0 0)
(0.00987689 0 0)
(0.00991926 0 0)
(0.0099673 0 0)
(0.0100522 0 0)
(0.0101448 0 0)
(0.0101611 0 0)
(0.0102009 0 0)
(0.0103023 0 0)
(0.0103698 0 0)
(0.0104167 0 0)
(0.0104668 0 0)
(0.0104736 0 0)
(0.0104839 0 0)
(0.010542 0 0)
(0.0105608 0 0)
(0.0106165 0 0)
(0.0106378 0 0)
(0.0106663 0 0)
(0.010716 0 0)
(0.0107889 0 0)
(0.0108456 0 0)
(0.0108623 0 0)
(0.0108831 0 0)
(0.0109267 0 0)
(0.010957 0 0)
(0.0109712 0 0)
(0.0109937 0 0)
(0.0110178 0 0)
(0.011085 0 0)
(0.0110899 0 0)
(0.0111022 0 0)
(0.0111145 0 0)
(0.0111458 0 0)
(0.0111767 0 0)
(0.0111951 0 0)
(0.0112136 0 0)
(0.0112611 0 0)
(0.0112976 0 0)
(0.0113205 0 0)
(0.0113632 0 0)
(0.0113937 0 0)
(0.0114005 0 0)
(0.0114147 0 0)
(0.0114378 0 0)
(0.0114874 0 0)
(0.0115421 0 0)
(0.011557 0 0)
(0.0115871 0 0)
(0.0116276 0 0)
(0.0116941 0 0)
(0.0117227 0 0)
(0.0117434 0 0)
(0.0117389 0 0)
(0.0117405 0 0)
(0.0117551 0 0)
(0.0117866 0 0)
(0.0118115 0 0)
(0.0118199 0 0)
(0.0118341 0 0)
(0.0118658 0 0)
(0.0118819 0 0)
(0.011887 0 0)
(0.0119035 0 0)
(0.0119105 0 0)
)
;

boundaryField
{
    inlet
    {
        type            fixedValue;
        value           uniform (0.005 0 0);
    }
    outlet
    {
        type            zeroGradient;
    }
    yzfaces
    {
        type            empty;
    }
}


// ************************************************************************* //
