/*--------------------------------*- C++ -*----------------------------------*\
| =========                 |                                                 |
| \\      /  F ield         | foam-extend: Open Source CFD                    |
|  \\    /   O peration     | Version:     5.0                                |
|   \\  /    A nd           | Web:         http://www.foam-extend.org         |
|    \\/     M anipulation  |                                                 |
\*---------------------------------------------------------------------------*/
FoamFile
{
    version     2.0;
    format      ascii;
    class       volVectorField;
    location    "10";
    object      U.gas;
}
// * * * * * * * * * * * * * * * * * * * * * * * * * * * * * * * * * * * * * //

dimensions      [0 1 -1 0 0 0 0];

internalField   nonuniform List<vector> 
100
(
(0.00587419 0 0)
(0.00632005 0 0)
(0.00665885 0 0)
(0.00701453 0 0)
(0.00728184 0 0)
(0.00736896 0 0)
(0.00740611 0 0)
(0.00746508 0 0)
(0.00757472 0 0)
(0.00775015 0 0)
(0.00797054 0 0)
(0.00816143 0 0)
(0.00829483 0 0)
(0.00841555 0 0)
(0.00850883 0 0)
(0.00864933 0 0)
(0.00883109 0 0)
(0.00897355 0 0)
(0.00908815 0 0)
(0.00925245 0 0)
(0.00936894 0 0)
(0.00945067 0 0)
(0.00953467 0 0)
(0.00966158 0 0)
(0.00977303 0 0)
(0.0098596 0 0)
(0.00993335 0 0)
(0.0100548 0 0)
(0.0101547 0 0)
(0.010144 0 0)
(0.0101269 0 0)
(0.0101091 0 0)
(0.0101101 0 0)
(0.0101237 0 0)
(0.0102057 0 0)
(0.0102512 0 0)
(0.0102789 0 0)
(0.0103442 0 0)
(0.0104313 0 0)
(0.0104959 0 0)
(0.0105711 0 0)
(0.0106594 0 0)
(0.0107489 0 0)
(0.0107918 0 0)
(0.0108432 0 0)
(0.010893 0 0)
(0.0109217 0 0)
(0.0109321 0 0)
(0.010986 0 0)
(0.0110449 0 0)
(0.011106 0 0)
(0.0111769 0 0)
(0.0112392 0 0)
(0.0112908 0 0)
(0.0113755 0 0)
(0.0114218 0 0)
(0.0114188 0 0)
(0.0114662 0 0)
(0.0115047 0 0)
(0.0115385 0 0)
(0.0115826 0 0)
(0.011635 0 0)
(0.0116685 0 0)
(0.0116974 0 0)
(0.0117311 0 0)
(0.011769 0 0)
(0.0117754 0 0)
(0.0117951 0 0)
(0.0118261 0 0)
(0.0118898 0 0)
(0.0119204 0 0)
(0.0119303 0 0)
(0.0119907 0 0)
(0.0120201 0 0)
(0.0120267 0 0)
(0.0120527 0 0)
(0.0120662 0 0)
(0.0120662 0 0)
(0.0120702 0 0)
(0.0121197 0 0)
(0.0121305 0 0)
(0.012159 0 0)
(0.0121977 0 0)
(0.012257 0 0)
(0.0122913 0 0)
(0.0123232 0 0)
(0.01233 0 0)
(0.0123413 0 0)
(0.0123721 0 0)
(0.0123828 0 0)
(0.0124076 0 0)
(0.0124275 0 0)
(0.0124632 0 0)
(0.0124938 0 0)
(0.0124914 0 0)
(0.0124844 0 0)
(0.012495 0 0)
(0.0125067 0 0)
(0.0125275 0 0)
(0.0125682 0 0)
)
;

boundaryField
{
    inlet
    {
        type            fixedValue;
        value           uniform (0.005 0 0);
    }
    outlet
    {
        type            zeroGradient;
    }
    yzfaces
    {
        type            empty;
    }
}


// ************************************************************************* //
