/*--------------------------------*- C++ -*----------------------------------*\
| =========                 |                                                 |
| \\      /  F ield         | foam-extend: Open Source CFD                    |
|  \\    /   O peration     | Version:     5.0                                |
|   \\  /    A nd           | Web:         http://www.foam-extend.org         |
|    \\/     M anipulation  |                                                 |
\*---------------------------------------------------------------------------*/
FoamFile
{
    version     2.0;
    format      ascii;
    class       volVectorField;
    location    "10";
    object      U.gas;
}
// * * * * * * * * * * * * * * * * * * * * * * * * * * * * * * * * * * * * * //

dimensions      [0 1 -1 0 0 0 0];

internalField   nonuniform List<vector> 
100
(
(0.00587904 0 0)
(0.00628622 0 0)
(0.0065817 0 0)
(0.00690559 0 0)
(0.00719285 0 0)
(0.00724662 0 0)
(0.00723098 0 0)
(0.00726062 0 0)
(0.00734876 0 0)
(0.00748775 0 0)
(0.00767958 0 0)
(0.00785733 0 0)
(0.00804351 0 0)
(0.00816647 0 0)
(0.00826465 0 0)
(0.00833921 0 0)
(0.00849722 0 0)
(0.00861029 0 0)
(0.00872187 0 0)
(0.00886012 0 0)
(0.00897354 0 0)
(0.00909436 0 0)
(0.00916202 0 0)
(0.00930748 0 0)
(0.00940922 0 0)
(0.00955969 0 0)
(0.00966794 0 0)
(0.00982295 0 0)
(0.00993169 0 0)
(0.0100208 0 0)
(0.0100781 0 0)
(0.0101233 0 0)
(0.0101931 0 0)
(0.0102181 0 0)
(0.0102104 0 0)
(0.0102273 0 0)
(0.0103267 0 0)
(0.0103336 0 0)
(0.0104152 0 0)
(0.0104874 0 0)
(0.0105441 0 0)
(0.0106588 0 0)
(0.0107293 0 0)
(0.0107955 0 0)
(0.0108705 0 0)
(0.0109148 0 0)
(0.0109615 0 0)
(0.0110211 0 0)
(0.0110665 0 0)
(0.0111122 0 0)
(0.0111566 0 0)
(0.0111864 0 0)
(0.0112224 0 0)
(0.0112365 0 0)
(0.0112888 0 0)
(0.0113257 0 0)
(0.0113582 0 0)
(0.0113937 0 0)
(0.0114449 0 0)
(0.0114914 0 0)
(0.011535 0 0)
(0.0115486 0 0)
(0.0115631 0 0)
(0.0115711 0 0)
(0.0115986 0 0)
(0.0116256 0 0)
(0.0116444 0 0)
(0.0116843 0 0)
(0.0117077 0 0)
(0.0117452 0 0)
(0.0118066 0 0)
(0.0118258 0 0)
(0.0118423 0 0)
(0.0118643 0 0)
(0.0118749 0 0)
(0.0119099 0 0)
(0.0119508 0 0)
(0.0119862 0 0)
(0.0120021 0 0)
(0.0120475 0 0)
(0.0121013 0 0)
(0.0120888 0 0)
(0.012104 0 0)
(0.0121425 0 0)
(0.0121699 0 0)
(0.0121925 0 0)
(0.012217 0 0)
(0.0122281 0 0)
(0.0122408 0 0)
(0.0122928 0 0)
(0.0123392 0 0)
(0.0123831 0 0)
(0.0124156 0 0)
(0.012433 0 0)
(0.0124335 0 0)
(0.012431 0 0)
(0.012452 0 0)
(0.0124794 0 0)
(0.0124943 0 0)
(0.0124659 0 0)
)
;

boundaryField
{
    inlet
    {
        type            fixedValue;
        value           uniform (0.005 0 0);
    }
    outlet
    {
        type            zeroGradient;
    }
    yzfaces
    {
        type            empty;
    }
}


// ************************************************************************* //
