/*--------------------------------*- C++ -*----------------------------------*\
| =========                 |                                                 |
| \\      /  F ield         | foam-extend: Open Source CFD                    |
|  \\    /   O peration     | Version:     5.0                                |
|   \\  /    A nd           | Web:         http://www.foam-extend.org         |
|    \\/     M anipulation  |                                                 |
\*---------------------------------------------------------------------------*/
FoamFile
{
    version     2.0;
    format      ascii;
    class       volVectorField;
    location    "10";
    object      U.water;
}
// * * * * * * * * * * * * * * * * * * * * * * * * * * * * * * * * * * * * * //

dimensions      [0 1 -1 0 0 0 0];

internalField   nonuniform List<vector> 
100
(
(3.00651e-05 0 0)
(6.95849e-05 0 0)
(0.000102563 0 0)
(0.000133444 0 0)
(0.000167832 0 0)
(0.000192199 0 0)
(0.000198052 0 0)
(0.000198694 0 0)
(0.000206045 0 0)
(0.000224074 0 0)
(0.000250476 0 0)
(0.000283615 0 0)
(0.00031698 0 0)
(0.000343934 0 0)
(0.000362809 0 0)
(0.000382161 0 0)
(0.00040523 0 0)
(0.000434247 0 0)
(0.000458913 0 0)
(0.00048357 0 0)
(0.000509715 0 0)
(0.000535427 0 0)
(0.00055462 0 0)
(0.000575901 0 0)
(0.000605791 0 0)
(0.000631998 0 0)
(0.000658488 0 0)
(0.000684698 0 0)
(0.000715044 0 0)
(0.00073471 0 0)
(0.00074841 0 0)
(0.000754717 0 0)
(0.000761506 0 0)
(0.000767541 0 0)
(0.000772624 0 0)
(0.000782461 0 0)
(0.000798136 0 0)
(0.000815547 0 0)
(0.000831024 0 0)
(0.000854959 0 0)
(0.000875632 0 0)
(0.000902483 0 0)
(0.000928658 0 0)
(0.000947808 0 0)
(0.000969319 0 0)
(0.000989949 0 0)
(0.00100765 0 0)
(0.00102486 0 0)
(0.00104377 0 0)
(0.00105979 0 0)
(0.00107608 0 0)
(0.00109263 0 0)
(0.00110814 0 0)
(0.00112376 0 0)
(0.00114273 0 0)
(0.00116459 0 0)
(0.0011778 0 0)
(0.00119052 0 0)
(0.00120657 0 0)
(0.00122348 0 0)
(0.00124069 0 0)
(0.00125465 0 0)
(0.00126514 0 0)
(0.00127911 0 0)
(0.00129479 0 0)
(0.00131289 0 0)
(0.00132658 0 0)
(0.00134041 0 0)
(0.00135536 0 0)
(0.00137146 0 0)
(0.00139081 0 0)
(0.00140821 0 0)
(0.00142297 0 0)
(0.00143738 0 0)
(0.00145458 0 0)
(0.00147558 0 0)
(0.0014995 0 0)
(0.00151941 0 0)
(0.00153258 0 0)
(0.00154639 0 0)
(0.00156475 0 0)
(0.0015792 0 0)
(0.00159103 0 0)
(0.0016093 0 0)
(0.00162925 0 0)
(0.00164823 0 0)
(0.00166564 0 0)
(0.00168223 0 0)
(0.00169751 0 0)
(0.00171682 0 0)
(0.00173972 0 0)
(0.00176252 0 0)
(0.00178141 0 0)
(0.00179577 0 0)
(0.0018086 0 0)
(0.00181852 0 0)
(0.00183514 0 0)
(0.00185231 0 0)
(0.00186406 0 0)
(0.00187253 0 0)
)
;

boundaryField
{
    inlet
    {
        type            fixedValue;
        value           uniform (0 0 0);
    }
    outlet
    {
        type            zeroGradient;
    }
    yzfaces
    {
        type            empty;
    }
}


// ************************************************************************* //
