/*--------------------------------*- C++ -*----------------------------------*\
| =========                 |                                                 |
| \\      /  F ield         | foam-extend: Open Source CFD                    |
|  \\    /   O peration     | Version:     5.0                                |
|   \\  /    A nd           | Web:         http://www.foam-extend.org         |
|    \\/     M anipulation  |                                                 |
\*---------------------------------------------------------------------------*/
FoamFile
{
    version     2.0;
    format      ascii;
    class       volVectorField;
    location    "10";
    object      U.water;
}
// * * * * * * * * * * * * * * * * * * * * * * * * * * * * * * * * * * * * * //

dimensions      [0 1 -1 0 0 0 0];

internalField   nonuniform List<vector> 
100
(
(2.91621e-05 0 0)
(6.87428e-05 0 0)
(0.000103443 0 0)
(0.000132991 0 0)
(0.000165468 0 0)
(0.000191964 0 0)
(0.000199943 0 0)
(0.00020344 0 0)
(0.00021646 0 0)
(0.000237656 0 0)
(0.000266307 0 0)
(0.000297774 0 0)
(0.000326738 0 0)
(0.000353734 0 0)
(0.000376602 0 0)
(0.000398565 0 0)
(0.000426194 0 0)
(0.00045409 0 0)
(0.000477646 0 0)
(0.000506733 0 0)
(0.000536659 0 0)
(0.000558165 0 0)
(0.000577965 0 0)
(0.000600152 0 0)
(0.000627493 0 0)
(0.000651106 0 0)
(0.000671242 0 0)
(0.000696051 0 0)
(0.000723155 0 0)
(0.000737973 0 0)
(0.00074314 0 0)
(0.000745422 0 0)
(0.000744453 0 0)
(0.00074983 0 0)
(0.000764872 0 0)
(0.000783513 0 0)
(0.000798617 0 0)
(0.000818396 0 0)
(0.000842984 0 0)
(0.000866465 0 0)
(0.000885972 0 0)
(0.000909767 0 0)
(0.00093715 0 0)
(0.000958606 0 0)
(0.000976563 0 0)
(0.000993957 0 0)
(0.00100577 0 0)
(0.00101733 0 0)
(0.00103302 0 0)
(0.0010533 0 0)
(0.00107036 0 0)
(0.00108911 0 0)
(0.00110949 0 0)
(0.00112925 0 0)
(0.00115249 0 0)
(0.00117389 0 0)
(0.00118466 0 0)
(0.00119596 0 0)
(0.00121185 0 0)
(0.00122498 0 0)
(0.00124284 0 0)
(0.00126224 0 0)
(0.00127945 0 0)
(0.0012958 0 0)
(0.00131257 0 0)
(0.00132987 0 0)
(0.00134498 0 0)
(0.00135758 0 0)
(0.00137494 0 0)
(0.00139496 0 0)
(0.00141474 0 0)
(0.0014311 0 0)
(0.00145133 0 0)
(0.00147175 0 0)
(0.0014835 0 0)
(0.00149756 0 0)
(0.00151335 0 0)
(0.00152402 0 0)
(0.00153634 0 0)
(0.0015559 0 0)
(0.00157397 0 0)
(0.00158874 0 0)
(0.00161113 0 0)
(0.00163159 0 0)
(0.00165257 0 0)
(0.00166911 0 0)
(0.00168263 0 0)
(0.00169789 0 0)
(0.0017154 0 0)
(0.00173208 0 0)
(0.00174644 0 0)
(0.00176225 0 0)
(0.00177875 0 0)
(0.00179666 0 0)
(0.00180771 0 0)
(0.00181616 0 0)
(0.00183163 0 0)
(0.00184698 0 0)
(0.00186276 0 0)
(0.00188118 0 0)
)
;

boundaryField
{
    inlet
    {
        type            fixedValue;
        value           uniform (0 0 0);
    }
    outlet
    {
        type            zeroGradient;
    }
    yzfaces
    {
        type            empty;
    }
}


// ************************************************************************* //
