/*--------------------------------*- C++ -*----------------------------------*\
| =========                 |                                                 |
| \\      /  F ield         | foam-extend: Open Source CFD                    |
|  \\    /   O peration     | Version:     5.0                                |
|   \\  /    A nd           | Web:         http://www.foam-extend.org         |
|    \\/     M anipulation  |                                                 |
\*---------------------------------------------------------------------------*/
FoamFile
{
    version     2.0;
    format      ascii;
    class       volVectorField;
    location    "10";
    object      U.water;
}
// * * * * * * * * * * * * * * * * * * * * * * * * * * * * * * * * * * * * * //

dimensions      [0 1 -1 0 0 0 0];

internalField   nonuniform List<vector> 
100
(
(2.98263e-05 0 0)
(6.92504e-05 0 0)
(0.00010211 0 0)
(0.000132802 0 0)
(0.000169061 0 0)
(0.0001933 0 0)
(0.000197466 0 0)
(0.000198013 0 0)
(0.000205698 0 0)
(0.00022473 0 0)
(0.000250619 0 0)
(0.0002842 0 0)
(0.000314068 0 0)
(0.000338275 0 0)
(0.000363364 0 0)
(0.000388184 0 0)
(0.000415145 0 0)
(0.00044147 0 0)
(0.000463441 0 0)
(0.000485323 0 0)
(0.000511384 0 0)
(0.000539696 0 0)
(0.000562823 0 0)
(0.000583117 0 0)
(0.000606216 0 0)
(0.000629844 0 0)
(0.000644549 0 0)
(0.000669816 0 0)
(0.000694847 0 0)
(0.000712783 0 0)
(0.000725369 0 0)
(0.000728968 0 0)
(0.000733847 0 0)
(0.000736778 0 0)
(0.000738757 0 0)
(0.000750325 0 0)
(0.000767152 0 0)
(0.00078417 0 0)
(0.000802315 0 0)
(0.000823149 0 0)
(0.000846516 0 0)
(0.000866088 0 0)
(0.000882844 0 0)
(0.00090521 0 0)
(0.000926061 0 0)
(0.00094512 0 0)
(0.000962412 0 0)
(0.000973835 0 0)
(0.000985494 0 0)
(0.00100073 0 0)
(0.00101392 0 0)
(0.00102852 0 0)
(0.00104559 0 0)
(0.00105831 0 0)
(0.00107667 0 0)
(0.00109665 0 0)
(0.00111832 0 0)
(0.0011346 0 0)
(0.00114803 0 0)
(0.00116357 0 0)
(0.00117859 0 0)
(0.00119124 0 0)
(0.00120433 0 0)
(0.00122202 0 0)
(0.00124139 0 0)
(0.00125609 0 0)
(0.00126883 0 0)
(0.00128453 0 0)
(0.00129702 0 0)
(0.0013116 0 0)
(0.00132358 0 0)
(0.00133553 0 0)
(0.00135386 0 0)
(0.00137038 0 0)
(0.00138602 0 0)
(0.0014042 0 0)
(0.00142 0 0)
(0.0014373 0 0)
(0.00145305 0 0)
(0.00146665 0 0)
(0.00148286 0 0)
(0.0015039 0 0)
(0.00152044 0 0)
(0.00153616 0 0)
(0.00155673 0 0)
(0.00157819 0 0)
(0.00159552 0 0)
(0.00161022 0 0)
(0.00162381 0 0)
(0.00163415 0 0)
(0.00164826 0 0)
(0.00166261 0 0)
(0.0016786 0 0)
(0.00169108 0 0)
(0.00170408 0 0)
(0.00172268 0 0)
(0.00173695 0 0)
(0.00174884 0 0)
(0.00176448 0 0)
(0.00177836 0 0)
)
;

boundaryField
{
    inlet
    {
        type            fixedValue;
        value           uniform (0 0 0);
    }
    outlet
    {
        type            zeroGradient;
    }
    yzfaces
    {
        type            empty;
    }
}


// ************************************************************************* //
