/*--------------------------------*- C++ -*----------------------------------*\
| =========                 |                                                 |
| \\      /  F ield         | foam-extend: Open Source CFD                    |
|  \\    /   O peration     | Version:     5.0                                |
|   \\  /    A nd           | Web:         http://www.foam-extend.org         |
|    \\/     M anipulation  |                                                 |
\*---------------------------------------------------------------------------*/
FoamFile
{
    version     2.0;
    format      ascii;
    class       volScalarField;
    location    "1.39933721309";
    object      alpha.gas;
}
// * * * * * * * * * * * * * * * * * * * * * * * * * * * * * * * * * * * * * //

dimensions      [0 0 0 0 0 0 0];

internalField   nonuniform List<scalar> 
100
(
0.123303
0.105352
0.0948734
0.0867141
0.0803726
0.0751672
0.0704297
0.066174
0.0621541
0.0585833
0.0539512
0.049531
0.045955
0.0432196
0.00242712
0.0396425
0.0382967
0.0371
0.0358618
0.0345725
0.033136
0.0315542
0.0298152
0.0278997
0.0258274
0.0236178
0.0213343
0.0190161
0.0168105
0.014854
0.013256
0.012064
0.0112474
0.0107259
0.0104125
0.0102322
0.0101275
0.0100696
0.0100376
0.0100208
0.0100105
0.0100031
0.0100011
0.0100003
0.00999977
0.00999977
0.0100005
0.00999762
0.00999637
0.00999816
0.00999848
0.00999943
0.0100028
0.0100034
0.0100038
0.0100039
0.0100024
0.0100005
0.00999985
0.00999777
0.00999846
0.0099989
0.00999971
0.00999848
0.0100005
0.0100007
0.0100028
0.0100019
0.0100009
0.010003
0.0100032
0.0100022
0.0100023
0.0100003
0.00999861
0.00999995
0.0099995
0.00999975
0.00999948
0.00999922
0.0099994
0.00999966
0.0100008
0.0100025
0.0100038
0.0100027
0.0100003
0.0100027
0.0100015
0.010001
0.00999812
0.00999962
0.00999819
0.00999817
0.00999899
0.00999753
0.00999835
0.00999848
0.00999795
0.00999736
)
;

boundaryField
{
    inlet
    {
        type            fixedValue;
        value           uniform 0.2;
    }
    outlet
    {
        type            zeroGradient;
    }
    yzfaces
    {
        type            empty;
    }
}


// ************************************************************************* //
