/*--------------------------------*- C++ -*----------------------------------*\
| =========                 |                                                 |
| \\      /  F ield         | foam-extend: Open Source CFD                    |
|  \\    /   O peration     | Version:     5.0                                |
|   \\  /    A nd           | Web:         http://www.foam-extend.org         |
|    \\/     M anipulation  |                                                 |
\*---------------------------------------------------------------------------*/
FoamFile
{
    version     2.0;
    format      ascii;
    class       volScalarField;
    location    "1.39933721309";
    object      Cl.water;
}
// * * * * * * * * * * * * * * * * * * * * * * * * * * * * * * * * * * * * * //

dimensions      [0 0 0 0 0 0 0];

internalField   nonuniform List<scalar> 
100
(
0
0.00539329
0.00935159
0.00640122
0.00720088
0.0099643
0.00710135
0.00795722
0.010938
0.0137791
0.00645901
0.0102501
0.0147244
0.0173429
9.29812e-16
0.0192311
0.0195101
0.0197059
0.0198567
0.0200045
0.020186
0.0203716
0.020602
0.0208348
0.0210867
0.021349
0.0216261
0.0218923
0.0221434
0.0224071
0.0225742
0.0227316
0.0228379
0.0229102
0.0229507
0.022949
0.0230015
0.0229759
0.0229966
0.0229903
0.0229989
0.0229957
0.022991
0.022996
0.0229847
0.0230138
0.022999
0.0230123
0.0229932
0.0229679
0.0229978
0.0229708
0.0229934
0.0229818
0.0230018
0.0230044
0.0230115
0.0230036
0.0230065
0.022987
0.0229728
0.0229764
0.0229765
0.0229805
0.0229918
0.0229962
0.0229845
0.0229978
0.0229969
0.022984
0.0229931
0.023017
0.02302
0.0230314
0.0229958
0.0230078
0.0230108
0.023004
0.0230195
0.0230275
0.0230068
0.0230178
0.0230025
0.0229949
0.0229893
0.0229946
0.0230215
0.0230075
0.0229924
0.0229978
0.0229948
0.0229728
0.0229718
0.022959
0.0229628
0.0229618
0.0229655
0.0229804
0.0229826
0.0230042
)
;

boundaryField
{
    inlet
    {
        type            fixedValue;
        value           uniform 0;
    }
    outlet
    {
        type            zeroGradient;
    }
    yzfaces
    {
        type            empty;
    }
}


// ************************************************************************* //
