/*--------------------------------*- C++ -*----------------------------------*\
| =========                 |                                                 |
| \\      /  F ield         | foam-extend: Open Source CFD                    |
|  \\    /   O peration     | Version:     5.0                                |
|   \\  /    A nd           | Web:         http://www.foam-extend.org         |
|    \\/     M anipulation  |                                                 |
\*---------------------------------------------------------------------------*/
FoamFile
{
    version     2.0;
    format      ascii;
    class       volScalarField;
    location    "1.39933721309";
    object      CO2.water;
}
// * * * * * * * * * * * * * * * * * * * * * * * * * * * * * * * * * * * * * //

dimensions      [0 0 0 0 0 0 0];

internalField   nonuniform List<scalar> 
100
(
0.00201386
0.00131385
0.000743511
0.00158416
0.00157009
0.00111234
0.00185139
0.00177783
0.00123292
0.000714375
0.00242513
0.00171542
0.000846519
0.000349447
0.00515722
4.44797e-05
1.45777e-05
4.67842e-06
1.49075e-06
4.77087e-07
1.52285e-07
4.69104e-08
1.26622e-08
2.64973e-09
5.65901e-10
1.23721e-10
2.72766e-11
8.25576e-12
3.28769e-12
1.33009e-12
5.47571e-13
2.27369e-13
9.51733e-14
3.98679e-14
1.67818e-14
7.10542e-15
2.99212e-15
1.26748e-15
5.35021e-16
2.26405e-16
9.58946e-17
4.05315e-17
1.71412e-17
7.24168e-18
3.06269e-18
1.29703e-18
5.49254e-19
2.32335e-19
9.83555e-20
4.16577e-20
1.76055e-20
7.46299e-21
3.15916e-21
1.3361e-21
5.65456e-22
2.40029e-22
1.0145e-22
4.28852e-23
1.81187e-23
7.65424e-24
3.24058e-24
1.36897e-24
5.77701e-25
2.44169e-25
1.03148e-25
4.36555e-26
1.84472e-26
7.79241e-27
3.29098e-27
1.39432e-27
5.89684e-28
2.49373e-28
1.05392e-28
4.44651e-29
1.88408e-29
7.9481e-30
3.36899e-30
1.42548e-30
6.03205e-31
2.54697e-31
1.07922e-31
4.55888e-32
1.92827e-32
8.14222e-33
3.44499e-33
1.45399e-33
6.13984e-34
2.59681e-34
1.09939e-34
4.64192e-35
1.96084e-35
8.29093e-36
3.50077e-36
1.48239e-36
6.27298e-37
2.65134e-37
1.12082e-37
4.73461e-38
2.00259e-38
1.07225e-38
)
;

boundaryField
{
    inlet
    {
        type            fixedValue;
        value           uniform 0;
    }
    outlet
    {
        type            zeroGradient;
    }
    yzfaces
    {
        type            empty;
    }
}


// ************************************************************************* //
