/*--------------------------------*- C++ -*----------------------------------*\
| =========                 |                                                 |
| \\      /  F ield         | foam-extend: Open Source CFD                    |
|  \\    /   O peration     | Version:     5.0                                |
|   \\  /    A nd           | Web:         http://www.foam-extend.org         |
|    \\/     M anipulation  |                                                 |
\*---------------------------------------------------------------------------*/
FoamFile
{
    version     2.0;
    format      ascii;
    class       volScalarField;
    location    "1.39933721309";
    object      H2O.gas;
}
// * * * * * * * * * * * * * * * * * * * * * * * * * * * * * * * * * * * * * //

dimensions      [0 0 0 0 0 0 0];

internalField   nonuniform List<scalar> 
100
(
1.67451e-09
2.13992e-07
1.37719e-06
4.62933e-06
1.19089e-05
2.71135e-05
5.32309e-05
9.65109e-05
0.000171231
0.000304174
0.000422756
0.000658859
0.00113323
0.00190446
4.72674e-06
0.00438224
0.0060037
0.00782184
0.00975029
0.0117123
0.0136189
0.0153403
0.0168112
0.017868
0.0184474
0.0184883
0.0179983
0.0170041
0.0156957
0.0143158
0.0130048
0.0119616
0.0112064
0.0107131
0.0104094
0.0102231
0.010137
0.0100647
0.010039
0.0100189
0.010011
0.0100031
0.00999716
0.0100001
0.00999571
0.0100065
0.0100017
0.0100066
0.00999569
0.00998648
0.00999676
0.00998363
0.00999556
0.00999245
0.00999883
0.00999929
0.0100016
0.0099968
0.0100007
0.00999029
0.00998687
0.00998936
0.0099908
0.00999173
0.00999885
0.0100011
0.0099962
0.0100023
0.0100012
0.00999953
0.0100021
0.0100099
0.0100109
0.0100173
0.00999967
0.0100055
0.0100077
0.0100013
0.0100059
0.0100107
0.0100027
0.0100077
0.0100016
0.00999804
0.00999596
0.00999487
0.010007
0.0100009
0.00999366
0.00999843
0.00999689
0.00999037
0.00998985
0.00998305
0.00998302
0.00998279
0.00998315
0.00999165
0.00999081
0.00999869
)
;

boundaryField
{
    inlet
    {
        type            fixedValue;
        value           uniform 0;
    }
    outlet
    {
        type            zeroGradient;
    }
    yzfaces
    {
        type            empty;
    }
}


// ************************************************************************* //
