/*--------------------------------*- C++ -*----------------------------------*\
| =========                 |                                                 |
| \\      /  F ield         | foam-extend: Open Source CFD                    |
|  \\    /   O peration     | Version:     5.0                                |
|   \\  /    A nd           | Web:         http://www.foam-extend.org         |
|    \\/     M anipulation  |                                                 |
\*---------------------------------------------------------------------------*/
FoamFile
{
    version     2.0;
    format      ascii;
    class       volScalarField;
    location    "1.39933721309";
    object      Na.water;
}
// * * * * * * * * * * * * * * * * * * * * * * * * * * * * * * * * * * * * * //

dimensions      [0 0 0 0 0 0 0];

internalField   nonuniform List<scalar> 
100
(
0
0.00539444
0.00935255
0.00640057
0.00720368
0.00997117
0.00710184
0.00795392
0.0109378
0.0137818
0.00645759
0.0102486
0.0147222
0.0173446
9.29812e-16
0.019227
0.0195155
0.019709
0.0198629
0.0200099
0.0201851
0.0203678
0.0205968
0.0208269
0.0210846
0.0213557
0.0216332
0.021898
0.0221457
0.0224166
0.0225836
0.0227336
0.0228305
0.0229018
0.0229444
0.0229494
0.0229946
0.0229674
0.022982
0.02298
0.0229885
0.0229884
0.0229821
0.0229902
0.0229825
0.0230073
0.0229952
0.0230081
0.0229866
0.0229725
0.0230019
0.0229704
0.0229956
0.0229886
0.0230005
0.0230002
0.0230095
0.0230032
0.0230062
0.0229842
0.0229826
0.0229838
0.0229803
0.0229796
0.0229893
0.0229995
0.022985
0.0229957
0.0230013
0.0229859
0.0229874
0.0230132
0.023012
0.0230242
0.0229891
0.023004
0.0230086
0.0229974
0.0230108
0.0230276
0.0230114
0.0230287
0.0230195
0.0230086
0.0229963
0.0229938
0.0230156
0.0229948
0.0229837
0.0229951
0.0230043
0.0229809
0.0229815
0.0229659
0.0229671
0.0229679
0.0229644
0.0229893
0.0229867
0.0230146
)
;

boundaryField
{
    inlet
    {
        type            fixedValue;
        value           uniform 0;
    }
    outlet
    {
        type            zeroGradient;
    }
    yzfaces
    {
        type            empty;
    }
}


// ************************************************************************* //
