/*--------------------------------*- C++ -*----------------------------------*\
| =========                 |                                                 |
| \\      /  F ield         | foam-extend: Open Source CFD                    |
|  \\    /   O peration     | Version:     5.0                                |
|   \\  /    A nd           | Web:         http://www.foam-extend.org         |
|    \\/     M anipulation  |                                                 |
\*---------------------------------------------------------------------------*/
FoamFile
{
    version     2.0;
    format      ascii;
    class       surfaceScalarField;
    location    "1.39933721309";
    object      phi;
}
// * * * * * * * * * * * * * * * * * * * * * * * * * * * * * * * * * * * * * //

dimensions      [0 3 -1 0 0 0 0];

internalField   nonuniform List<scalar> 
99
(
1.22208e-06
1.22406e-06
1.21799e-06
1.22007e-06
1.22605e-06
1.22177e-06
1.21812e-06
1.21713e-06
1.21928e-06
1.22382e-06
1.22691e-06
1.22858e-06
1.22741e-06
1.22745e-06
1.22877e-06
1.22923e-06
1.23188e-06
1.23179e-06
1.23424e-06
1.2336e-06
1.23452e-06
1.23441e-06
1.23364e-06
1.23475e-06
1.23404e-06
1.23386e-06
1.23185e-06
1.2316e-06
1.23337e-06
1.23241e-06
1.23407e-06
1.23356e-06
1.23439e-06
1.2344e-06
1.23334e-06
1.23484e-06
1.23308e-06
1.23542e-06
1.23476e-06
1.23553e-06
1.23362e-06
1.23337e-06
1.23456e-06
1.23348e-06
1.23566e-06
1.23555e-06
1.23713e-06
1.23534e-06
1.23568e-06
1.23631e-06
1.23555e-06
1.23625e-06
1.23761e-06
1.23752e-06
1.2374e-06
1.24009e-06
1.23851e-06
1.23907e-06
1.23891e-06
1.23989e-06
1.24192e-06
1.2399e-06
1.24252e-06
1.24358e-06
1.2453e-06
1.24652e-06
1.24695e-06
1.24536e-06
1.24595e-06
1.24656e-06
1.24573e-06
1.24554e-06
1.24653e-06
1.24487e-06
1.24429e-06
1.2416e-06
1.24321e-06
1.24387e-06
1.24379e-06
1.24226e-06
1.24185e-06
1.24305e-06
1.24216e-06
1.24192e-06
1.2441e-06
1.24396e-06
1.24461e-06
1.24449e-06
1.24603e-06
1.24673e-06
1.24551e-06
1.2465e-06
1.24625e-06
1.24722e-06
1.24772e-06
1.25025e-06
1.24948e-06
1.25003e-06
1.25176e-06
)
;

boundaryField
{
    inlet
    {
        type            calculated;
        value           uniform -1.225e-06;
    }
    outlet
    {
        type            calculated;
        value           uniform 1.25287e-06;
    }
    yzfaces
    {
        type            empty;
    }
}


// ************************************************************************* //
