/*--------------------------------*- C++ -*----------------------------------*\
| =========                 |                                                 |
| \\      /  F ield         | foam-extend: Open Source CFD                    |
|  \\    /   O peration     | Version:     5.0                                |
|   \\  /    A nd           | Web:         http://www.foam-extend.org         |
|    \\/     M anipulation  |                                                 |
\*---------------------------------------------------------------------------*/
FoamFile
{
    version     2.0;
    format      ascii;
    class       surfaceScalarField;
    location    "1.39933721309";
    object      phi.water;
}
// * * * * * * * * * * * * * * * * * * * * * * * * * * * * * * * * * * * * * //

dimensions      [0 3 -1 0 0 0 0];

internalField   nonuniform List<scalar> 
99
(
3.07315e-07
5.37392e-07
7.25825e-07
9.27941e-07
1.12348e-06
1.30347e-06
1.49608e-06
1.69526e-06
1.91379e-06
2.12284e-06
2.43999e-06
2.78114e-06
3.08126e-06
3.3296e-06
3.5238e-06
3.67418e-06
3.81781e-06
3.93827e-06
4.07245e-06
4.20147e-06
4.35109e-06
4.50971e-06
4.68034e-06
4.87612e-06
5.07517e-06
5.28153e-06
5.4762e-06
5.66803e-06
5.83644e-06
5.95675e-06
6.05605e-06
6.11059e-06
6.14891e-06
6.16814e-06
6.17685e-06
6.18811e-06
6.18215e-06
6.19859e-06
6.19545e-06
6.20015e-06
6.19035e-06
6.19073e-06
6.19686e-06
6.19154e-06
6.20029e-06
6.1981e-06
6.20527e-06
6.19696e-06
6.20516e-06
6.20864e-06
6.20609e-06
6.21131e-06
6.21646e-06
6.21534e-06
6.21271e-06
6.22488e-06
6.21675e-06
6.21919e-06
6.21956e-06
6.22839e-06
6.23923e-06
6.2282e-06
6.24047e-06
6.24364e-06
6.24992e-06
6.25763e-06
6.25967e-06
6.2495e-06
6.2538e-06
6.25718e-06
6.24955e-06
6.24562e-06
6.24758e-06
6.24169e-06
6.2425e-06
6.22664e-06
6.23602e-06
6.23986e-06
6.23641e-06
6.2297e-06
6.22872e-06
6.2356e-06
6.23496e-06
6.23638e-06
6.24828e-06
6.24303e-06
6.24455e-06
6.24835e-06
6.25632e-06
6.25784e-06
6.25393e-06
6.26106e-06
6.26162e-06
6.26901e-06
6.2713e-06
6.28381e-06
6.27739e-06
6.2777e-06
6.28384e-06
)
;

boundaryField
{
    inlet
    {
        type            fixedValue;
        value           uniform 0;
    }
    outlet
    {
        type            calculated;
        value           uniform 6.2866e-06;
    }
    yzfaces
    {
        type            empty;
    }
}


// ************************************************************************* //
