/*--------------------------------*- C++ -*----------------------------------*\
| =========                 |                                                 |
| \\      /  F ield         | foam-extend: Open Source CFD                    |
|  \\    /   O peration     | Version:     5.0                                |
|   \\  /    A nd           | Web:         http://www.foam-extend.org         |
|    \\/     M anipulation  |                                                 |
\*---------------------------------------------------------------------------*/
FoamFile
{
    version     2.0;
    format      ascii;
    class       volScalarField;
    location    "1.39933721309";
    object      S.gas;
}
// * * * * * * * * * * * * * * * * * * * * * * * * * * * * * * * * * * * * * //

dimensions      [0 0 0 0 0 0 0];

internalField   nonuniform List<scalar> 
100
(
0.616514
0.52676
0.474367
0.43357
0.401863
0.375836
0.352148
0.33087
0.31077
0.292917
0.269756
0.247655
0.229775
0.216098
0.205922
0.198212
0.191483
0.1855
0.179309
0.172862
0.16568
0.157771
0.149076
0.139498
0.129137
0.118089
0.106671
0.0950806
0.0840523
0.0742702
0.0662799
0.0603199
0.0562372
0.0536296
0.0520624
0.0511611
0.0506373
0.0503478
0.0501878
0.0501041
0.0500524
0.0500156
0.0500053
0.0500014
0.0499988
0.0499989
0.0500023
0.0499881
0.0499819
0.0499908
0.0499924
0.0499971
0.0500139
0.0500168
0.0500188
0.0500195
0.0500118
0.0500025
0.0499992
0.0499888
0.0499923
0.0499945
0.0499985
0.0499924
0.0500025
0.0500036
0.0500141
0.0500094
0.0500046
0.0500152
0.050016
0.0500112
0.0500115
0.0500015
0.049993
0.0499998
0.0499975
0.0499987
0.0499974
0.0499961
0.049997
0.0499983
0.0500041
0.0500127
0.0500191
0.0500135
0.0500014
0.0500133
0.0500074
0.0500048
0.0499906
0.0499981
0.0499909
0.0499909
0.0499949
0.0499876
0.0499918
0.0499924
0.0499897
0.0499868
)
;

boundaryField
{
    inlet
    {
        type            calculated;
        value           uniform 1;
    }
    outlet
    {
        type            calculated;
        value           uniform 0.0499868;
    }
    yzfaces
    {
        type            empty;
    }
}


// ************************************************************************* //
