/*--------------------------------*- C++ -*----------------------------------*\
| =========                 |                                                 |
| \\      /  F ield         | foam-extend: Open Source CFD                    |
|  \\    /   O peration     | Version:     5.0                                |
|   \\  /    A nd           | Web:         http://www.foam-extend.org         |
|    \\/     M anipulation  |                                                 |
\*---------------------------------------------------------------------------*/
FoamFile
{
    version     2.0;
    format      ascii;
    class       volVectorField;
    location    "1.39933721309";
    object      U.gas;
}
// * * * * * * * * * * * * * * * * * * * * * * * * * * * * * * * * * * * * * //

dimensions      [0 1 -1 0 0 0 0];

internalField   nonuniform List<vector> 
100
(
(0.00801334 0 0)
(0.00916677 0 0)
(0.00993335 0 0)
(0.0105948 0 0)
(0.0111789 0 0)
(0.0116495 0 0)
(0.0120432 0 0)
(0.012394 0 0)
(0.0127437 0 0)
(0.0130452 0 0)
(0.0135085 0 0)
(0.0137782 0 0)
(0.0138106 0 0)
(0.0137063 0 0)
(0.013561 0 0)
(0.0134164 0 0)
(0.0133124 0 0)
(0.0132 0 0)
(0.0131044 0 0)
(0.0129832 0 0)
(0.0128338 0 0)
(0.0126385 0 0)
(0.0123748 0 0)
(0.0120421 0 0)
(0.0116118 0 0)
(0.0110649 0 0)
(0.0103908 0 0)
(0.00960669 0 0)
(0.00873144 0 0)
(0.00781955 0 0)
(0.00695555 0 0)
(0.0062223 0 0)
(0.00566092 0 0)
(0.0052754 0 0)
(0.00502616 0 0)
(0.00487859 0 0)
(0.0047923 0 0)
(0.00474301 0 0)
(0.00471914 0 0)
(0.00470486 0 0)
(0.0046945 0 0)
(0.0046859 0 0)
(0.00468441 0 0)
(0.0046832 0 0)
(0.00468538 0 0)
(0.00468916 0 0)
(0.00469164 0 0)
(0.004692 0 0)
(0.00468849 0 0)
(0.00468911 0 0)
(0.00468917 0 0)
(0.00468938 0 0)
(0.00469388 0 0)
(0.00469789 0 0)
(0.00469773 0 0)
(0.00470303 0 0)
(0.004705 0 0)
(0.0047016 0 0)
(0.00470118 0 0)
(0.00470292 0 0)
(0.00470791 0 0)
(0.00470865 0 0)
(0.00471005 0 0)
(0.00471684 0 0)
(0.00472153 0 0)
(0.00472824 0 0)
(0.00473121 0 0)
(0.00473025 0 0)
(0.00472812 0 0)
(0.00472997 0 0)
(0.00473044 0 0)
(0.00472813 0 0)
(0.00472922 0 0)
(0.00472814 0 0)
(0.00472285 0 0)
(0.00471629 0 0)
(0.00471498 0 0)
(0.00471859 0 0)
(0.00471953 0 0)
(0.00471631 0 0)
(0.00471264 0 0)
(0.004714 0 0)
(0.00471493 0 0)
(0.00471378 0 0)
(0.00471818 0 0)
(0.00472244 0 0)
(0.00472272 0 0)
(0.00472274 0 0)
(0.00472719 0 0)
(0.0047305 0 0)
(0.00472903 0 0)
(0.0047275 0 0)
(0.00472982 0 0)
(0.00473041 0 0)
(0.00473297 0 0)
(0.00473964 0 0)
(0.00474265 0 0)
(0.00474233 0 0)
(0.00474613 0 0)
(0.00475233 0 0)
)
;

boundaryField
{
    inlet
    {
        type            fixedValue;
        value           uniform (0.005 0 0);
    }
    outlet
    {
        type            zeroGradient;
    }
    yzfaces
    {
        type            empty;
    }
}


// ************************************************************************* //
