/*--------------------------------*- C++ -*----------------------------------*\
| =========                 |                                                 |
| \\      /  F ield         | foam-extend: Open Source CFD                    |
|  \\    /   O peration     | Version:     5.0                                |
|   \\  /    A nd           | Web:         http://www.foam-extend.org         |
|    \\/     M anipulation  |                                                 |
\*---------------------------------------------------------------------------*/
FoamFile
{
    version     2.0;
    format      ascii;
    class       volVectorField;
    location    "1.39933721309";
    object      U.water;
}
// * * * * * * * * * * * * * * * * * * * * * * * * * * * * * * * * * * * * * //

dimensions      [0 1 -1 0 0 0 0];

internalField   nonuniform List<vector> 
100
(
(0.00014001 0 0)
(0.000345315 0 0)
(0.00051691 0 0)
(0.000674483 0 0)
(0.000835427 0 0)
(0.000988897 0 0)
(0.00113977 0 0)
(0.00129885 0 0)
(0.00146819 0 0)
(0.00164727 0 0)
(0.00185895 0 0)
(0.0021253 0 0)
(0.00238751 0 0)
(0.00261259 0 0)
(0.00279593 0 0)
(0.00293971 0 0)
(0.00305938 0 0)
(0.00316674 0 0)
(0.00326918 0 0)
(0.00337562 0 0)
(0.00348867 0 0)
(0.003615 0 0)
(0.00375129 0 0)
(0.00390199 0 0)
(0.00406358 0 0)
(0.00422932 0 0)
(0.00439219 0 0)
(0.00454631 0 0)
(0.00469094 0 0)
(0.00480859 0 0)
(0.00489721 0 0)
(0.00495983 0 0)
(0.00499945 0 0)
(0.00502493 0 0)
(0.00503675 0 0)
(0.00504563 0 0)
(0.00504959 0 0)
(0.00505338 0 0)
(0.00505822 0 0)
(0.00505916 0 0)
(0.00505722 0 0)
(0.00505304 0 0)
(0.00505513 0 0)
(0.00505543 0 0)
(0.00505769 0 0)
(0.00506192 0 0)
(0.00506494 0 0)
(0.00506448 0 0)
(0.00506156 0 0)
(0.00506361 0 0)
(0.00506332 0 0)
(0.00506317 0 0)
(0.00506736 0 0)
(0.00506989 0 0)
(0.00506945 0 0)
(0.00507469 0 0)
(0.00507698 0 0)
(0.00507495 0 0)
(0.00507584 0 0)
(0.00507751 0 0)
(0.00508371 0 0)
(0.0050837 0 0)
(0.00508492 0 0)
(0.00509247 0 0)
(0.00509819 0 0)
(0.00510415 0 0)
(0.00510753 0 0)
(0.00510508 0 0)
(0.00510304 0 0)
(0.00510554 0 0)
(0.00510505 0 0)
(0.00510298 0 0)
(0.00510463 0 0)
(0.00510323 0 0)
(0.00509871 0 0)
(0.00509204 0 0)
(0.00508979 0 0)
(0.00509446 0 0)
(0.00509565 0 0)
(0.00509237 0 0)
(0.00508839 0 0)
(0.00509002 0 0)
(0.00509066 0 0)
(0.00508829 0 0)
(0.00509222 0 0)
(0.00509636 0 0)
(0.00509743 0 0)
(0.00509858 0 0)
(0.00510141 0 0)
(0.00510604 0 0)
(0.005105 0 0)
(0.00510459 0 0)
(0.00510604 0 0)
(0.00510756 0 0)
(0.0051106 0 0)
(0.00511675 0 0)
(0.00512036 0 0)
(0.00511992 0 0)
(0.00512463 0 0)
(0.00513038 0 0)
)
;

boundaryField
{
    inlet
    {
        type            fixedValue;
        value           uniform (0 0 0);
    }
    outlet
    {
        type            zeroGradient;
    }
    yzfaces
    {
        type            empty;
    }
}


// ************************************************************************* //
