/*--------------------------------*- C++ -*----------------------------------*\
| =========                 |                                                 |
| \\      /  F ield         | foam-extend: Open Source CFD                    |
|  \\    /   O peration     | Version:     5.0                                |
|   \\  /    A nd           | Web:         http://www.foam-extend.org         |
|    \\/     M anipulation  |                                                 |
\*---------------------------------------------------------------------------*/
FoamFile
{
    version     2.0;
    format      ascii;
    class       volScalarField;
    location    "6";
    object      alpha.gas;
}
// * * * * * * * * * * * * * * * * * * * * * * * * * * * * * * * * * * * * * //

dimensions      [0 0 0 0 0 0 0];

internalField   nonuniform List<scalar> 
100
(
0.159898
0.145984
0.136565
0.128745
0.122203
0.11722
0.113308
0.110124
0.107366
0.104516
0.101865
0.0991928
0.0967162
0.0940731
0.091909
0.0902912
0.0886242
0.0869635
0.0854227
0.0844971
0.0834906
0.0823659
0.0813728
0.080547
0.0799934
0.0793163
0.0782434
0.0772681
0.0761999
0.0749699
0.0739805
0.0729883
0.0717864
0.0707762
0.069772
0.0686811
0.0676263
0.0666815
0.0658551
0.0650698
0.0641888
0.06333
0.0624098
0.0616105
0.0608996
0.0601896
0.059366
0.0585276
0.0577528
0.0568862
0.0560807
0.0552445
0.0543085
0.0532604
0.0520952
0.0507326
0.0491022
0.0472923
0.0454105
0.0391113
0.0347571
0.0329654
0.0327782
0.0332681
0.0338384
0.0342752
0.0345484
0.034693
0.0347944
0.034841
0.0348889
0.0349071
0.0349261
0.034941
0.0349393
0.0349304
0.034907
0.0348673
0.034821
0.0347525
0.0346552
0.0345096
0.0343387
0.0341313
0.0338973
0.033633
0.033307
0.032954
0.0325289
0.0320562
0.0315155
0.0308951
0.0301893
0.0293716
0.0284291
0.0273571
0.026146
0.0247836
0.0232472
0.0215196
)
;

boundaryField
{
    inlet
    {
        type            fixedValue;
        value           uniform 0.2;
    }
    outlet
    {
        type            zeroGradient;
    }
    yzfaces
    {
        type            empty;
    }
}


// ************************************************************************* //
