/*--------------------------------*- C++ -*----------------------------------*\
| =========                 |                                                 |
| \\      /  F ield         | foam-extend: Open Source CFD                    |
|  \\    /   O peration     | Version:     5.0                                |
|   \\  /    A nd           | Web:         http://www.foam-extend.org         |
|    \\/     M anipulation  |                                                 |
\*---------------------------------------------------------------------------*/
FoamFile
{
    version     2.0;
    format      ascii;
    class       volScalarField;
    location    "6";
    object      Cl.water;
}
// * * * * * * * * * * * * * * * * * * * * * * * * * * * * * * * * * * * * * //

dimensions      [0 0 0 0 0 0 0];

internalField   nonuniform List<scalar> 
100
(
9.78649e-16
0.00183214
0.00382421
0.00471385
0.00504071
0.00538764
0.00604422
0.00666466
0.00699678
0.00711226
0.00729887
0.00755959
0.00770555
0.00778279
0.00793393
0.00814716
0.00830736
0.00842389
0.00853116
0.00868022
0.00874182
0.00876196
0.00878981
0.00889872
0.00897701
0.00894988
0.00899765
0.00924297
0.00963693
0.00992652
0.0100237
0.0100521
0.0100667
0.00993296
0.00972853
0.00974537
0.00986519
0.00983254
0.00974658
0.00993905
0.0100756
0.0099479
0.00985841
0.0102253
0.0111724
0.0114179
0.0108907
0.0107195
0.0114491
0.0109712
0.0101732
0.0105064
0.0120293
0.0139311
0.0110624
0.0102199
0.0121214
0.0146823
0.016695
0.00565162
0.0124998
0.0174733
0.0194143
0.0199751
0.020057
0.0200508
0.0200163
0.020013
0.0200017
0.0199918
0.0199849
0.0199767
0.019995
0.0199884
0.019979
0.0199962
0.0199935
0.0199961
0.0199989
0.0200007
0.0200093
0.0200355
0.0200582
0.0200976
0.0201367
0.0201901
0.0202319
0.0202653
0.0203222
0.0203735
0.020431
0.0205079
0.0205873
0.0206779
0.0207791
0.0209233
0.0210744
0.0212389
0.0214379
0.021621
)
;

boundaryField
{
    inlet
    {
        type            fixedValue;
        value           uniform 0;
    }
    outlet
    {
        type            zeroGradient;
    }
    yzfaces
    {
        type            empty;
    }
}


// ************************************************************************* //
