/*--------------------------------*- C++ -*----------------------------------*\
| =========                 |                                                 |
| \\      /  F ield         | foam-extend: Open Source CFD                    |
|  \\    /   O peration     | Version:     5.0                                |
|   \\  /    A nd           | Web:         http://www.foam-extend.org         |
|    \\/     M anipulation  |                                                 |
\*---------------------------------------------------------------------------*/
FoamFile
{
    version     2.0;
    format      ascii;
    class       volScalarField;
    location    "6";
    object      CO2.water;
}
// * * * * * * * * * * * * * * * * * * * * * * * * * * * * * * * * * * * * * //

dimensions      [0 0 0 0 0 0 0];

internalField   nonuniform List<scalar> 
100
(
0.0010517
0.0010215
0.000837448
0.00082849
0.000923739
0.000984941
0.000957109
0.000910409
0.00091398
0.000953964
0.000982089
0.00099569
0.00101802
0.0010627
0.00109971
0.00111184
0.00112135
0.00114942
0.00117117
0.00118038
0.00118875
0.00121783
0.0012352
0.00123725
0.00124176
0.00125719
0.00126823
0.00123182
0.00116823
0.00113067
0.00114006
0.00115579
0.00117874
0.0012299
0.00129363
0.0013181
0.00132303
0.00135745
0.00140208
0.00138606
0.00137097
0.00142058
0.00146676
0.00140798
0.00122095
0.00119304
0.00132248
0.00138254
0.001248
0.00137424
0.00157626
0.0015235
0.00122015
0.000836927
0.00148851
0.00170338
0.00132866
0.000822651
0.000438893
0.0029862
0.00162059
0.000595817
0.000177452
4.61102e-05
1.10255e-05
2.54652e-06
5.89528e-07
1.39957e-07
3.41307e-08
8.38569e-09
2.01678e-09
4.53561e-10
8.68329e-11
1.3113e-11
1.23406e-12
4.67177e-14
0
0
0
0
0
0
0
0
0
0
0
0
0
0
0
0
3.65743e-21
1.07548e-20
1.13334e-20
8.62584e-21
5.64203e-21
3.39726e-21
1.94516e-21
1.05305e-21
)
;

boundaryField
{
    inlet
    {
        type            fixedValue;
        value           uniform 0;
    }
    outlet
    {
        type            zeroGradient;
    }
    yzfaces
    {
        type            empty;
    }
}


// ************************************************************************* //
