/*--------------------------------*- C++ -*----------------------------------*\
| =========                 |                                                 |
| \\      /  F ield         | foam-extend: Open Source CFD                    |
|  \\    /   O peration     | Version:     5.0                                |
|   \\  /    A nd           | Web:         http://www.foam-extend.org         |
|    \\/     M anipulation  |                                                 |
\*---------------------------------------------------------------------------*/
FoamFile
{
    version     2.0;
    format      ascii;
    class       volScalarField;
    location    "6";
    object      CO2.gas;
}
// * * * * * * * * * * * * * * * * * * * * * * * * * * * * * * * * * * * * * //

dimensions      [0 0 0 0 0 0 0];

internalField   nonuniform List<scalar> 
100
(
0.159643
0.145943
0.136664
0.127333
0.120709
0.116145
0.112895
0.109959
0.107322
0.104103
0.101376
0.0987559
0.0959197
0.0930031
0.091329
0.0902471
0.0885689
0.0871679
0.0857795
0.0853516
0.0841993
0.0831703
0.0820708
0.0813778
0.0810029
0.0800937
0.078806
0.077602
0.0764006
0.0750069
0.0740999
0.0729828
0.0716975
0.0705673
0.0694437
0.0683631
0.0673617
0.0664829
0.0657157
0.0650192
0.0639952
0.0631103
0.062255
0.061463
0.0607616
0.0601663
0.059229
0.0584138
0.0576581
0.056794
0.0560851
0.0551871
0.0542675
0.0532179
0.0519962
0.0505496
0.0488083
0.0469307
0.044985
0.038561
0.0341031
0.0320489
0.0314303
0.0314442
0.0314458
0.0312746
0.0308382
0.0302218
0.0294711
0.0285955
0.0276471
0.0265958
0.0255093
0.024343
0.0231099
0.0218575
0.0205416
0.0191899
0.0178393
0.0164802
0.0151255
0.0137783
0.0124527
0.0111699
0.00993659
0.00876181
0.0076402
0.00659441
0.00562933
0.00474111
0.00393812
0.00322184
0.00259034
0.00204063
0.00157108
0.00117974
0.000858087
0.000601148
0.00040243
0.000252187
)
;

boundaryField
{
    inlet
    {
        type            fixedValue;
        value           uniform 0.2;
    }
    outlet
    {
        type            zeroGradient;
    }
    yzfaces
    {
        type            empty;
    }
}


// ************************************************************************* //
