/*--------------------------------*- C++ -*----------------------------------*\
| =========                 |                                                 |
| \\      /  F ield         | foam-extend: Open Source CFD                    |
|  \\    /   O peration     | Version:     5.0                                |
|   \\  /    A nd           | Web:         http://www.foam-extend.org         |
|    \\/     M anipulation  |                                                 |
\*---------------------------------------------------------------------------*/
FoamFile
{
    version     2.0;
    format      ascii;
    class       volScalarField;
    location    "6";
    object      H2O.gas;
}
// * * * * * * * * * * * * * * * * * * * * * * * * * * * * * * * * * * * * * //

dimensions      [0 0 0 0 0 0 0];

internalField   nonuniform List<scalar> 
100
(
4.57119e-21
1.10975e-19
1.08405e-18
6.70506e-18
3.46521e-17
1.55052e-16
6.12855e-16
2.15059e-15
6.7999e-15
1.94564e-14
5.21613e-14
1.32951e-13
3.17837e-13
7.27203e-13
1.64563e-12
3.64762e-12
7.79695e-12
1.63548e-11
3.36448e-11
6.85982e-11
1.34884e-10
2.61004e-10
4.92715e-10
9.1719e-10
1.67453e-09
2.95974e-09
5.08373e-09
8.53348e-09
1.40357e-08
2.26227e-08
3.61426e-08
5.67216e-08
8.78493e-08
1.3437e-07
2.02636e-07
3.02754e-07
4.4802e-07
6.56796e-07
9.54613e-07
1.37591e-06
1.95868e-06
2.76781e-06
3.88355e-06
5.41343e-06
7.48788e-06
1.03027e-05
1.39961e-05
1.89164e-05
2.54108e-05
3.38755e-05
4.50266e-05
5.92469e-05
7.77156e-05
0.000101944
0.000132814
0.000171578
0.000221917
0.000293987
0.000400786
0.000411742
0.00057878
0.000895964
0.0013095
0.00179818
0.0023545
0.00298571
0.00368676
0.00446335
0.00531696
0.00623904
0.00723425
0.00829044
0.00942257
0.0106008
0.0118182
0.0130921
0.0143681
0.0156627
0.0169733
0.0182566
0.0195087
0.0207209
0.0218736
0.0229649
0.0239812
0.024916
0.0257146
0.0263948
0.0269387
0.0273445
0.0276057
0.0276942
0.0276157
0.0273396
0.0268564
0.0261991
0.0253161
0.0242078
0.0228875
0.021283
)
;

boundaryField
{
    inlet
    {
        type            fixedValue;
        value           uniform 0;
    }
    outlet
    {
        type            zeroGradient;
    }
    yzfaces
    {
        type            empty;
    }
}


// ************************************************************************* //
