/*--------------------------------*- C++ -*----------------------------------*\
| =========                 |                                                 |
| \\      /  F ield         | foam-extend: Open Source CFD                    |
|  \\    /   O peration     | Version:     5.0                                |
|   \\  /    A nd           | Web:         http://www.foam-extend.org         |
|    \\/     M anipulation  |                                                 |
\*---------------------------------------------------------------------------*/
FoamFile
{
    version     2.0;
    format      ascii;
    class       volScalarField;
    location    "6";
    object      Na.water;
}
// * * * * * * * * * * * * * * * * * * * * * * * * * * * * * * * * * * * * * //

dimensions      [0 0 0 0 0 0 0];

internalField   nonuniform List<scalar> 
100
(
9.78606e-16
0.00183187
0.00382383
0.00471203
0.00503854
0.00538554
0.006046
0.00666624
0.00699092
0.00710562
0.0072969
0.00756136
0.00771138
0.00779238
0.00794333
0.00815342
0.00831813
0.00843303
0.00853637
0.0086839
0.00874289
0.00876927
0.00879224
0.0089008
0.00897619
0.00895135
0.00899652
0.00923782
0.00963689
0.00993006
0.0100255
0.0100514
0.0100714
0.0099369
0.00972999
0.00974881
0.00986746
0.00983526
0.00974752
0.0099385
0.0100698
0.00994141
0.00985125
0.0102187
0.0111674
0.0114151
0.0108892
0.0107193
0.0114446
0.0109697
0.0101698
0.0105039
0.0120257
0.013924
0.0110534
0.010215
0.0121112
0.0146636
0.016678
0.0056423
0.0124881
0.0174613
0.0194021
0.0199595
0.0200446
0.0200456
0.0200139
0.0200094
0.0200024
0.0199937
0.0199882
0.0199807
0.0199928
0.01999
0.0199807
0.0199993
0.0199921
0.0199868
0.0199942
0.0199952
0.0200027
0.020024
0.0200406
0.0200767
0.0201154
0.020171
0.0202147
0.0202532
0.0203055
0.0203597
0.0204191
0.0204945
0.0205779
0.0206714
0.0207751
0.0209183
0.0210711
0.0212346
0.0214369
0.0216215
)
;

boundaryField
{
    inlet
    {
        type            fixedValue;
        value           uniform 0;
    }
    outlet
    {
        type            zeroGradient;
    }
    yzfaces
    {
        type            empty;
    }
}


// ************************************************************************* //
