/*--------------------------------*- C++ -*----------------------------------*\
| =========                 |                                                 |
| \\      /  F ield         | foam-extend: Open Source CFD                    |
|  \\    /   O peration     | Version:     5.0                                |
|   \\  /    A nd           | Web:         http://www.foam-extend.org         |
|    \\/     M anipulation  |                                                 |
\*---------------------------------------------------------------------------*/
FoamFile
{
    version     2.0;
    format      ascii;
    class       surfaceScalarField;
    location    "6";
    object      phi;
}
// * * * * * * * * * * * * * * * * * * * * * * * * * * * * * * * * * * * * * //

dimensions      [0 3 -1 0 0 0 0];

internalField   nonuniform List<scalar> 
99
(
1.22379e-06
1.22183e-06
1.22327e-06
1.21752e-06
1.21165e-06
1.21347e-06
1.22565e-06
1.229e-06
1.23486e-06
1.23127e-06
1.23133e-06
1.2307e-06
1.22743e-06
1.22894e-06
1.23472e-06
1.23569e-06
1.2406e-06
1.2434e-06
1.24881e-06
1.25171e-06
1.24729e-06
1.24584e-06
1.24508e-06
1.24076e-06
1.23775e-06
1.23147e-06
1.23772e-06
1.23327e-06
1.22689e-06
1.22604e-06
1.22613e-06
1.21874e-06
1.21363e-06
1.21241e-06
1.21502e-06
1.21381e-06
1.21449e-06
1.21521e-06
1.21266e-06
1.21277e-06
1.21234e-06
1.21076e-06
1.21007e-06
1.21273e-06
1.21394e-06
1.21031e-06
1.20847e-06
1.20709e-06
1.2068e-06
1.20803e-06
1.20692e-06
1.20905e-06
1.2089e-06
1.20752e-06
1.2085e-06
1.20952e-06
1.20897e-06
1.20763e-06
1.20749e-06
1.20366e-06
1.20462e-06
1.20643e-06
1.20721e-06
1.20789e-06
1.2085e-06
1.20752e-06
1.20767e-06
1.21015e-06
1.20851e-06
1.20975e-06
1.20852e-06
1.20813e-06
1.20654e-06
1.20642e-06
1.20642e-06
1.20646e-06
1.20699e-06
1.20726e-06
1.20748e-06
1.20771e-06
1.20734e-06
1.20722e-06
1.20812e-06
1.21018e-06
1.21094e-06
1.20973e-06
1.21206e-06
1.21102e-06
1.21125e-06
1.21023e-06
1.21027e-06
1.21011e-06
1.20865e-06
1.20801e-06
1.20913e-06
1.20938e-06
1.20977e-06
1.20829e-06
1.2075e-06
)
;

boundaryField
{
    inlet
    {
        type            calculated;
        value           uniform -1.225e-06;
    }
    outlet
    {
        type            calculated;
        value           uniform 1.21085e-06;
    }
    yzfaces
    {
        type            empty;
    }
}


// ************************************************************************* //
