/*--------------------------------*- C++ -*----------------------------------*\
| =========                 |                                                 |
| \\      /  F ield         | foam-extend: Open Source CFD                    |
|  \\    /   O peration     | Version:     5.0                                |
|   \\  /    A nd           | Web:         http://www.foam-extend.org         |
|    \\/     M anipulation  |                                                 |
\*---------------------------------------------------------------------------*/
FoamFile
{
    version     2.0;
    format      ascii;
    class       surfaceScalarField;
    location    "6";
    object      phi.water;
}
// * * * * * * * * * * * * * * * * * * * * * * * * * * * * * * * * * * * * * //

dimensions      [0 3 -1 0 0 0 0];

internalField   nonuniform List<scalar> 
99
(
9.28097e-08
1.60628e-07
2.21225e-07
2.82977e-07
3.42347e-07
3.97052e-07
4.47634e-07
4.91145e-07
5.3368e-07
5.79353e-07
6.22666e-07
6.72681e-07
7.2142e-07
7.779e-07
8.28485e-07
8.65485e-07
9.09816e-07
9.55662e-07
9.99752e-07
1.02527e-06
1.05171e-06
1.08591e-06
1.11633e-06
1.13886e-06
1.15223e-06
1.17179e-06
1.21672e-06
1.24858e-06
1.28262e-06
1.33169e-06
1.36985e-06
1.40183e-06
1.44981e-06
1.49336e-06
1.54223e-06
1.58965e-06
1.64061e-06
1.6865e-06
1.72167e-06
1.76366e-06
1.81101e-06
1.85216e-06
1.9021e-06
1.9523e-06
1.99242e-06
2.02687e-06
2.07607e-06
2.1233e-06
2.16986e-06
2.22694e-06
2.27452e-06
2.33602e-06
2.39612e-06
2.46675e-06
2.55354e-06
2.65952e-06
2.78543e-06
2.92661e-06
3.04515e-06
3.6291e-06
4.08229e-06
4.28634e-06
4.31779e-06
4.27126e-06
4.2133e-06
4.16303e-06
4.13428e-06
4.12559e-06
4.10985e-06
4.10928e-06
4.10007e-06
4.09727e-06
4.08824e-06
4.08635e-06
4.08597e-06
4.08554e-06
4.09211e-06
4.09743e-06
4.102e-06
4.11007e-06
4.11812e-06
4.13157e-06
4.15011e-06
4.17611e-06
4.19973e-06
4.21893e-06
4.2607e-06
4.2925e-06
4.33597e-06
4.37969e-06
4.43454e-06
4.49581e-06
4.56054e-06
4.63959e-06
4.73504e-06
4.83701e-06
4.95275e-06
5.07107e-06
5.20529e-06
)
;

boundaryField
{
    inlet
    {
        type            fixedValue;
        value           uniform 0;
    }
    outlet
    {
        type            calculated;
        value           uniform 5.39487e-06;
    }
    yzfaces
    {
        type            empty;
    }
}


// ************************************************************************* //
