/*--------------------------------*- C++ -*----------------------------------*\
| =========                 |                                                 |
| \\      /  F ield         | foam-extend: Open Source CFD                    |
|  \\    /   O peration     | Version:     5.0                                |
|   \\  /    A nd           | Web:         http://www.foam-extend.org         |
|    \\/     M anipulation  |                                                 |
\*---------------------------------------------------------------------------*/
FoamFile
{
    version     2.0;
    format      ascii;
    class       volVectorField;
    location    "6";
    object      U.gas;
}
// * * * * * * * * * * * * * * * * * * * * * * * * * * * * * * * * * * * * * //

dimensions      [0 1 -1 0 0 0 0];

internalField   nonuniform List<vector> 
100
(
(0.00623976 0 0)
(0.00679925 0 0)
(0.00723539 0 0)
(0.00762504 0 0)
(0.00795306 0 0)
(0.00823323 0 0)
(0.0085239 0 0)
(0.00878585 0 0)
(0.00900596 0 0)
(0.00921717 0 0)
(0.00939656 0 0)
(0.00959652 0 0)
(0.00977063 0 0)
(0.00997545 0 0)
(0.0101752 0 0)
(0.0103288 0 0)
(0.0104937 0 0)
(0.010667 0 0)
(0.0108333 0 0)
(0.0109394 0 0)
(0.0110227 0 0)
(0.0110975 0 0)
(0.0111722 0 0)
(0.0112181 0 0)
(0.0112273 0 0)
(0.0112479 0 0)
(0.0113531 0 0)
(0.0114468 0 0)
(0.0114944 0 0)
(0.0115734 0 0)
(0.011649 0 0)
(0.0117025 0 0)
(0.0117546 0 0)
(0.011804 0 0)
(0.0118971 0 0)
(0.012001 0 0)
(0.0120856 0 0)
(0.0121659 0 0)
(0.0122198 0 0)
(0.0122683 0 0)
(0.0123415 0 0)
(0.0123997 0 0)
(0.0124636 0 0)
(0.0125256 0 0)
(0.0125927 0 0)
(0.0126324 0 0)
(0.0126686 0 0)
(0.0127098 0 0)
(0.0127486 0 0)
(0.0128147 0 0)
(0.0128599 0 0)
(0.0129159 0 0)
(0.0129864 0 0)
(0.0130435 0 0)
(0.0131062 0 0)
(0.0131921 0 0)
(0.0132789 0 0)
(0.0133357 0 0)
(0.0133616 0 0)
(0.014002 0 0)
(0.0133979 0 0)
(0.012605 0 0)
(0.012174 0 0)
(0.0120795 0 0)
(0.0121526 0 0)
(0.012247 0 0)
(0.01232 0 0)
(0.0123858 0 0)
(0.0124143 0 0)
(0.0124304 0 0)
(0.0124379 0 0)
(0.0124383 0 0)
(0.0124288 0 0)
(0.0124249 0 0)
(0.0124286 0 0)
(0.0124292 0 0)
(0.0124324 0 0)
(0.0124345 0 0)
(0.0124341 0 0)
(0.0124343 0 0)
(0.0124271 0 0)
(0.0124165 0 0)
(0.0124049 0 0)
(0.0124015 0 0)
(0.012389 0 0)
(0.0123579 0 0)
(0.0123327 0 0)
(0.0122921 0 0)
(0.0122409 0 0)
(0.0121743 0 0)
(0.0120963 0 0)
(0.0120083 0 0)
(0.0118953 0 0)
(0.011758 0 0)
(0.0116004 0 0)
(0.011406 0 0)
(0.0111623 0 0)
(0.0108534 0 0)
(0.0104704 0 0)
(0.0100344 0 0)
)
;

boundaryField
{
    inlet
    {
        type            fixedValue;
        value           uniform (0.005 0 0);
    }
    outlet
    {
        type            zeroGradient;
    }
    yzfaces
    {
        type            empty;
    }
}


// ************************************************************************* //
