/*--------------------------------*- C++ -*----------------------------------*\
| =========                 |                                                 |
| \\      /  F ield         | foam-extend: Open Source CFD                    |
|  \\    /   O peration     | Version:     5.0                                |
|   \\  /    A nd           | Web:         http://www.foam-extend.org         |
|    \\/     M anipulation  |                                                 |
\*---------------------------------------------------------------------------*/
FoamFile
{
    version     2.0;
    format      ascii;
    class       volVectorField;
    location    "6";
    object      U.water;
}
// * * * * * * * * * * * * * * * * * * * * * * * * * * * * * * * * * * * * * //

dimensions      [0 1 -1 0 0 0 0];

internalField   nonuniform List<vector> 
100
(
(4.44161e-05 0 0)
(0.000104272 0 0)
(0.000156049 0 0)
(0.000204274 0 0)
(0.000252032 0 0)
(0.000298924 0 0)
(0.00034299 0 0)
(0.000382365 0 0)
(0.000417988 0 0)
(0.000452807 0 0)
(0.000488678 0 0)
(0.0005258 0 0)
(0.000564846 0 0)
(0.000605852 0 0)
(0.000651098 0 0)
(0.000690275 0 0)
(0.00072487 0 0)
(0.000762957 0 0)
(0.000801353 0 0)
(0.000833547 0 0)
(0.000855826 0 0)
(0.000880298 0 0)
(0.000906971 0 0)
(0.000929624 0 0)
(0.000945999 0 0)
(0.000958721 0 0)
(0.000981695 0 0)
(0.00101111 0 0)
(0.00103613 0 0)
(0.00106803 0 0)
(0.00110374 0 0)
(0.00113187 0 0)
(0.00116197 0 0)
(0.00119777 0 0)
(0.00123403 0 0)
(0.00127261 0 0)
(0.00131321 0 0)
(0.00135372 0 0)
(0.00138828 0 0)
(0.00142053 0 0)
(0.00145533 0 0)
(0.00149082 0 0)
(0.00152804 0 0)
(0.00156942 0 0)
(0.0016074 0 0)
(0.00163899 0 0)
(0.00167226 0 0)
(0.0017111 0 0)
(0.00175044 0 0)
(0.00179344 0 0)
(0.00183785 0 0)
(0.00188302 0 0)
(0.00193316 0 0)
(0.00198712 0 0)
(0.00205104 0 0)
(0.00212824 0 0)
(0.00222081 0 0)
(0.00232925 0 0)
(0.00245171 0 0)
(0.0027131 0 0)
(0.00313054 0 0)
(0.00340393 0 0)
(0.00350504 0 0)
(0.00350197 0 0)
(0.00346082 0 0)
(0.00341749 0 0)
(0.00338562 0 0)
(0.00337049 0 0)
(0.00336103 0 0)
(0.00335409 0 0)
(0.00334989 0 0)
(0.0033448 0 0)
(0.00334088 0 0)
(0.00333665 0 0)
(0.00333567 0 0)
(0.0033361 0 0)
(0.00333814 0 0)
(0.00334186 0 0)
(0.00334569 0 0)
(0.00335054 0 0)
(0.00335704 0 0)
(0.00336603 0 0)
(0.00337969 0 0)
(0.00339899 0 0)
(0.00342114 0 0)
(0.00344056 0 0)
(0.00346579 0 0)
(0.00349566 0 0)
(0.00352596 0 0)
(0.0035613 0 0)
(0.00360115 0 0)
(0.0036481 0 0)
(0.00369905 0 0)
(0.00375693 0 0)
(0.00382815 0 0)
(0.00391045 0 0)
(0.00400084 0 0)
(0.00409766 0 0)
(0.0042015 0 0)
(0.0043206 0 0)
)
;

boundaryField
{
    inlet
    {
        type            fixedValue;
        value           uniform (0 0 0);
    }
    outlet
    {
        type            zeroGradient;
    }
    yzfaces
    {
        type            empty;
    }
}


// ************************************************************************* //
