/*--------------------------------*- C++ -*----------------------------------*\
| =========                 |                                                 |
| \\      /  F ield         | foam-extend: Open Source CFD                    |
|  \\    /   O peration     | Version:     5.0                                |
|   \\  /    A nd           | Web:         http://www.foam-extend.org         |
|    \\/     M anipulation  |                                                 |
\*---------------------------------------------------------------------------*/
FoamFile
{
    version     2.0;
    format      ascii;
    class       volScalarField;
    location    "3";
    object      alpha.gas;
}
// * * * * * * * * * * * * * * * * * * * * * * * * * * * * * * * * * * * * * //

dimensions      [0 0 0 0 0 0 0];

internalField   nonuniform List<scalar> 
100
(
0.144854
0.128738
0.117596
0.110084
0.103939
0.0988148
0.0948204
0.090725
0.087849
0.0852173
0.08271
0.0801209
0.0777331
0.0757687
0.0736513
0.0719725
0.0702569
0.0687844
0.0671809
0.0658577
0.0645201
0.0630397
0.0619273
0.0605695
0.0592887
0.0582214
0.0570807
0.0559965
0.0549956
0.0538897
0.0529819
0.0518971
0.0508381
0.0497862
0.0487663
0.0477535
0.046741
0.0457113
0.0446496
0.0436221
0.0425444
0.0414663
0.0403658
0.0392425
0.0380679
0.036831
0.0355224
0.0341723
0.0327395
0.0312435
0.0296327
0.027894
0.0260426
0.0240565
0.021992
0.0198763
0.0177835
0.0158412
0.0141495
0.0127911
0.0117873
0.0111007
0.0106577
0.0103859
0.0102244
0.0101293
0.0100733
0.0100438
0.0100249
0.0100136
0.0100083
0.0100048
0.0100019
0.010004
0.0100051
0.0100031
0.0100019
0.0100032
0.010001
0.0100026
0.0100043
0.0100043
0.0100024
0.0100005
0.00999947
0.0100006
0.0100008
0.0100015
0.0100014
0.0100028
0.0100008
0.0100006
0.00999963
0.0099993
0.00999902
0.00999767
0.0099978
0.00999849
0.00999775
0.0099992
)
;

boundaryField
{
    inlet
    {
        type            fixedValue;
        value           uniform 0.2;
    }
    outlet
    {
        type            zeroGradient;
    }
    yzfaces
    {
        type            empty;
    }
}


// ************************************************************************* //
