/*--------------------------------*- C++ -*----------------------------------*\
| =========                 |                                                 |
| \\      /  F ield         | foam-extend: Open Source CFD                    |
|  \\    /   O peration     | Version:     5.0                                |
|   \\  /    A nd           | Web:         http://www.foam-extend.org         |
|    \\/     M anipulation  |                                                 |
\*---------------------------------------------------------------------------*/
FoamFile
{
    version     2.0;
    format      ascii;
    class       volScalarField;
    location    "3";
    object      alpha.gas;
}
// * * * * * * * * * * * * * * * * * * * * * * * * * * * * * * * * * * * * * //

dimensions      [0 0 0 0 0 0 0];

internalField   nonuniform List<scalar> 
100
(
0.145029
0.129455
0.118161
0.11081
0.104626
0.0987398
0.0947639
0.0911745
0.0878319
0.085012
0.0821959
0.0796084
0.0775923
0.0756071
0.0735353
0.0718185
0.0701795
0.0685441
0.0670109
0.0656702
0.0642617
0.0629806
0.061732
0.0605547
0.0594783
0.058197
0.057048
0.0560152
0.0549135
0.0538201
0.0527509
0.0518057
0.0508002
0.0498283
0.0488048
0.0477847
0.0467908
0.0457486
0.0447106
0.0436278
0.0425876
0.0415004
0.040392
0.0392543
0.038085
0.0368672
0.0355897
0.0342695
0.0328389
0.0313352
0.0297111
0.0279888
0.0261348
0.0241679
0.0221011
0.0199821
0.017892
0.0159379
0.0142325
0.0128564
0.0118328
0.0111298
0.0106783
0.0103977
0.0102305
0.0101317
0.0100742
0.0100403
0.0100233
0.0100136
0.0100087
0.0100055
0.0100025
0.010003
0.00999916
0.00999952
0.00999735
0.00999601
0.00999503
0.00999604
0.00999698
0.0100002
0.00999904
0.00999814
0.00999841
0.00999885
0.00999873
0.00999985
0.00999891
0.00999905
0.00999891
0.0099986
0.0100002
0.0100006
0.0100014
0.0099991
0.009997
0.00999781
0.00999746
0.00999525
)
;

boundaryField
{
    inlet
    {
        type            fixedValue;
        value           uniform 0.2;
    }
    outlet
    {
        type            zeroGradient;
    }
    yzfaces
    {
        type            empty;
    }
}


// ************************************************************************* //
