/*--------------------------------*- C++ -*----------------------------------*\
| =========                 |                                                 |
| \\      /  F ield         | foam-extend: Open Source CFD                    |
|  \\    /   O peration     | Version:     5.0                                |
|   \\  /    A nd           | Web:         http://www.foam-extend.org         |
|    \\/     M anipulation  |                                                 |
\*---------------------------------------------------------------------------*/
FoamFile
{
    version     2.0;
    format      ascii;
    class       volScalarField;
    location    "3";
    object      Cl.water;
}
// * * * * * * * * * * * * * * * * * * * * * * * * * * * * * * * * * * * * * //

dimensions      [0 0 0 0 0 0 0];

internalField   nonuniform List<scalar> 
100
(
0.00631845
0.00809993
0.00939873
0.0102526
0.0109543
0.0116146
0.0120799
0.0124821
0.0128659
0.0132035
0.013523
0.0138133
0.0140578
0.0142883
0.014522
0.0147211
0.0149053
0.0150908
0.0152735
0.0154262
0.0155776
0.0157246
0.0158702
0.0160011
0.0161393
0.0162798
0.0164158
0.0165406
0.0166632
0.0167896
0.0169127
0.0170325
0.0171435
0.0172523
0.0173648
0.0174817
0.0175972
0.017709
0.0178331
0.017963
0.0181018
0.0183221
0.0189355
0.0213934
0.0220683
0.0341702
0.0345552
0.0348779
0.0351758
0.0354763
0.0358284
0.0362207
0.0365978
0.0370107
0.0374623
0.0378864
0.0383282
0.0387541
0.0390556
0.0393429
0.0395618
0.0397193
0.0398373
0.0398994
0.0399407
0.0399458
0.0400031
0.0400119
0.0399858
0.0399863
0.0400187
0.0399998
0.0399848
0.039965
0.0400364
0.0400161
0.0400195
0.0400635
0.0400532
0.0400241
0.0400293
0.0399846
0.0400442
0.0400787
0.0400677
0.0400628
0.0400514
0.0400038
0.0400096
0.0400244
0.0400662
0.0400403
0.0400326
0.039996
0.0400062
0.0400194
0.0400467
0.0399971
0.0399865
0.039965
)
;

boundaryField
{
    inlet
    {
        type            fixedValue;
        value           uniform 0;
    }
    outlet
    {
        type            zeroGradient;
    }
    yzfaces
    {
        type            empty;
    }
}


// ************************************************************************* //
