/*--------------------------------*- C++ -*----------------------------------*\
| =========                 |                                                 |
| \\      /  F ield         | foam-extend: Open Source CFD                    |
|  \\    /   O peration     | Version:     5.0                                |
|   \\  /    A nd           | Web:         http://www.foam-extend.org         |
|    \\/     M anipulation  |                                                 |
\*---------------------------------------------------------------------------*/
FoamFile
{
    version     2.0;
    format      ascii;
    class       volScalarField;
    location    "3";
    object      Cl.water;
}
// * * * * * * * * * * * * * * * * * * * * * * * * * * * * * * * * * * * * * //

dimensions      [0 0 0 0 0 0 0];

internalField   nonuniform List<scalar> 
100
(
0.00633411
0.00819122
0.00948053
0.0103296
0.0110206
0.0116118
0.0120832
0.0125382
0.0128704
0.0131763
0.0134764
0.0137676
0.0140369
0.0142657
0.0144996
0.0147028
0.0148963
0.0150698
0.0152445
0.0154036
0.0155543
0.0157239
0.0158628
0.016013
0.0161552
0.0162806
0.0164102
0.0165384
0.0166554
0.0167773
0.0168937
0.0170126
0.0171328
0.0172474
0.0173676
0.0174891
0.017606
0.0177217
0.0178401
0.0179583
0.0180774
0.0182062
0.0183309
0.0184652
0.0185977
0.0187317
0.018883
0.0190364
0.0191994
0.0193788
0.0195587
0.0197596
0.0199732
0.0201961
0.0204407
0.0206866
0.0209252
0.0211513
0.0213405
0.0215011
0.0216121
0.0216945
0.021744
0.021772
0.0217893
0.0218086
0.0218122
0.0218166
0.0218147
0.0218246
0.0218308
0.0218252
0.021831
0.021822
0.0218219
0.0218227
0.0218271
0.0218183
0.0218209
0.0218227
0.021819
0.0218157
0.0218159
0.021816
0.0218142
0.0218136
0.02182
0.0218178
0.021816
0.0218101
0.021809
0.0218085
0.0218102
0.021806
0.0218089
0.0218084
0.0218063
0.0218061
0.0218086
0.0218136
)
;

boundaryField
{
    inlet
    {
        type            fixedValue;
        value           uniform 0;
    }
    outlet
    {
        type            zeroGradient;
    }
    yzfaces
    {
        type            empty;
    }
}


// ************************************************************************* //
