/*--------------------------------*- C++ -*----------------------------------*\
| =========                 |                                                 |
| \\      /  F ield         | foam-extend: Open Source CFD                    |
|  \\    /   O peration     | Version:     5.0                                |
|   \\  /    A nd           | Web:         http://www.foam-extend.org         |
|    \\/     M anipulation  |                                                 |
\*---------------------------------------------------------------------------*/
FoamFile
{
    version     2.0;
    format      ascii;
    class       volScalarField;
    location    "3";
    object      CO2.water;
}
// * * * * * * * * * * * * * * * * * * * * * * * * * * * * * * * * * * * * * //

dimensions      [0 0 0 0 0 0 0];

internalField   nonuniform List<scalar> 
100
(
0.0014438
0.00185283
0.00214945
0.00234254
0.00250496
0.00265955
0.00276398
0.00285825
0.00294604
0.00302011
0.00309407
0.00316203
0.00321498
0.00326712
0.00332154
0.00336663
0.00340967
0.00345263
0.0034929
0.00352811
0.0035651
0.00359875
0.00363155
0.00366247
0.00369074
0.00372439
0.00375457
0.0037817
0.00381063
0.00383935
0.00386743
0.00389226
0.00391866
0.00394419
0.00397107
0.00399787
0.00402397
0.00405134
0.0040786
0.00410704
0.00413436
0.00416292
0.00419203
0.00422191
0.00425262
4.17431e-05
9.81878e-06
2.42922e-06
6.32224e-07
1.73727e-07
5.0206e-08
1.52127e-08
4.80581e-09
1.57828e-09
5.37293e-10
1.88569e-10
6.83217e-11
2.57665e-11
9.9959e-12
4.07213e-12
1.78351e-12
8.67314e-13
4.59177e-13
2.63226e-13
1.53161e-13
8.93351e-14
5.25278e-14
3.04886e-14
1.74968e-14
9.79216e-15
5.37512e-15
2.85556e-15
1.49046e-15
7.61414e-16
3.85198e-16
1.90574e-16
9.06196e-17
4.11578e-17
1.76016e-17
7.17575e-18
2.92606e-18
1.19615e-18
4.89301e-19
1.9962e-19
8.16429e-20
3.3402e-20
1.36405e-20
5.58613e-21
2.28501e-21
9.36403e-22
3.82397e-22
1.56655e-22
6.39937e-23
2.62263e-23
1.07448e-23
4.3944e-24
1.79792e-24
7.37997e-25
3.01745e-25
1.55498e-25
)
;

boundaryField
{
    inlet
    {
        type            fixedValue;
        value           uniform 0;
    }
    outlet
    {
        type            zeroGradient;
    }
    yzfaces
    {
        type            empty;
    }
}


// ************************************************************************* //
