/*--------------------------------*- C++ -*----------------------------------*\
| =========                 |                                                 |
| \\      /  F ield         | foam-extend: Open Source CFD                    |
|  \\    /   O peration     | Version:     5.0                                |
|   \\  /    A nd           | Web:         http://www.foam-extend.org         |
|    \\/     M anipulation  |                                                 |
\*---------------------------------------------------------------------------*/
FoamFile
{
    version     2.0;
    format      ascii;
    class       volScalarField;
    location    "3";
    object      CO2.gas;
}
// * * * * * * * * * * * * * * * * * * * * * * * * * * * * * * * * * * * * * //

dimensions      [0 0 0 0 0 0 0];

internalField   nonuniform List<scalar> 
100
(
0.144571
0.128487
0.117367
0.109869
0.103736
0.0986224
0.0946357
0.0905483
0.0876779
0.0850514
0.0825489
0.0799649
0.0775817
0.0756212
0.0735078
0.0718323
0.0701201
0.0686504
0.06705
0.0657295
0.0643944
0.0629169
0.0618067
0.0604515
0.0591732
0.058108
0.0569696
0.0558875
0.0548885
0.0537848
0.0528787
0.051796
0.0507391
0.0496892
0.0486714
0.0476605
0.04665
0.0456223
0.0445626
0.0435372
0.0424615
0.0413855
0.0402872
0.0391661
0.0379938
0.0367593
0.0354532
0.0341057
0.0326758
0.0311827
0.029575
0.0278396
0.0259919
0.0240096
0.0219492
0.0198376
0.0177489
0.0158103
0.0141219
0.0127662
0.0117644
0.0110791
0.010637
0.0103657
0.0102045
0.0101096
0.0100537
0.0100242
0.0100054
0.00999405
0.00998877
0.0099853
0.00998243
0.00998455
0.00998559
0.00998359
0.00998247
0.00998376
0.00998152
0.00998308
0.00998479
0.00998482
0.00998296
0.00998102
0.00997999
0.00998112
0.00998132
0.00998199
0.00998192
0.00998332
0.00998133
0.00998109
0.00998016
0.00997982
0.00997954
0.0099782
0.00997833
0.00997901
0.00997828
0.00997973
)
;

boundaryField
{
    inlet
    {
        type            fixedValue;
        value           uniform 0.2;
    }
    outlet
    {
        type            zeroGradient;
    }
    yzfaces
    {
        type            empty;
    }
}


// ************************************************************************* //
