/*--------------------------------*- C++ -*----------------------------------*\
| =========                 |                                                 |
| \\      /  F ield         | foam-extend: Open Source CFD                    |
|  \\    /   O peration     | Version:     5.0                                |
|   \\  /    A nd           | Web:         http://www.foam-extend.org         |
|    \\/     M anipulation  |                                                 |
\*---------------------------------------------------------------------------*/
FoamFile
{
    version     2.0;
    format      ascii;
    class       volScalarField;
    location    "3";
    object      CO2.water;
}
// * * * * * * * * * * * * * * * * * * * * * * * * * * * * * * * * * * * * * //

dimensions      [0 0 0 0 0 0 0];

internalField   nonuniform List<scalar> 
100
(
0.0014484
0.00187167
0.00216431
0.00236161
0.00252301
0.00265758
0.00276249
0.00287006
0.00294559
0.00301471
0.00308057
0.00314857
0.00321128
0.00326288
0.00331849
0.00336258
0.00340764
0.00344632
0.00348843
0.00352318
0.00355832
0.0035972
0.00362642
0.00366208
0.00369572
0.00372375
0.00375371
0.00378218
0.00380847
0.00383752
0.00386136
0.00388986
0.00391767
0.0039453
0.00397208
0.00399868
0.00402528
0.00405232
0.00408021
0.00410719
0.0041355
0.00416381
0.00419272
0.00422222
0.00425307
0.00428556
0.00431993
0.00435539
0.00439302
0.00443231
0.00447462
0.00452029
0.00456891
0.00462108
0.0046753
0.00473087
0.00478583
0.00483685
0.00488128
0.00491696
0.00494332
0.00496135
0.00497299
0.00498013
0.00498437
0.00498687
0.00498834
0.00498911
0.00498961
0.00498991
0.00499005
0.00499014
0.00499021
0.00499016
0.00499013
0.00499018
0.00499021
0.00499018
0.00499024
0.0049902
0.00499015
0.00499015
0.0049902
0.00499025
0.00499028
0.00499025
0.00499024
0.00499022
0.00499023
0.00499019
0.00499024
0.00499025
0.00499027
0.00499028
0.00499029
0.00499032
0.00499032
0.0049903
0.00499032
0.00499028
)
;

boundaryField
{
    inlet
    {
        type            fixedValue;
        value           uniform 0;
    }
    outlet
    {
        type            zeroGradient;
    }
    yzfaces
    {
        type            empty;
    }
}


// ************************************************************************* //
