/*--------------------------------*- C++ -*----------------------------------*\
| =========                 |                                                 |
| \\      /  F ield         | foam-extend: Open Source CFD                    |
|  \\    /   O peration     | Version:     5.0                                |
|   \\  /    A nd           | Web:         http://www.foam-extend.org         |
|    \\/     M anipulation  |                                                 |
\*---------------------------------------------------------------------------*/
FoamFile
{
    version     2.0;
    format      ascii;
    class       volScalarField;
    location    "3";
    object      H2O.gas;
}
// * * * * * * * * * * * * * * * * * * * * * * * * * * * * * * * * * * * * * //

dimensions      [0 0 0 0 0 0 0];

internalField   nonuniform List<scalar> 
100
(
0.000282098
0.000250713
0.000229014
0.000214385
0.000202418
0.000192439
0.00018466
0.000176684
0.000171083
0.000165958
0.000161075
0.000156033
0.000151383
0.000147557
0.000143434
0.000140164
0.000136823
0.000133956
0.000130833
0.000128256
0.000125651
0.000122768
0.000120602
0.000117957
0.000115463
0.000113384
0.000111163
0.000109052
0.000107102
0.000104949
0.000103181
0.000101068
9.90057e-05
9.69571e-05
9.4971e-05
9.29986e-05
9.10268e-05
8.90214e-05
8.69538e-05
8.49529e-05
8.28539e-05
8.07544e-05
7.86113e-05
7.64236e-05
7.41362e-05
7.17273e-05
6.91789e-05
6.65495e-05
6.37593e-05
6.08458e-05
5.77089e-05
5.43227e-05
5.07172e-05
4.68492e-05
4.28288e-05
3.87086e-05
3.46329e-05
3.08502e-05
2.75557e-05
2.49103e-05
2.29555e-05
2.16184e-05
2.07556e-05
2.02263e-05
1.99117e-05
1.97265e-05
1.96174e-05
1.956e-05
1.95232e-05
1.95011e-05
1.94908e-05
1.9484e-05
1.94784e-05
1.94826e-05
1.94846e-05
1.94807e-05
1.94785e-05
1.9481e-05
1.94766e-05
1.94797e-05
1.9483e-05
1.94831e-05
1.94795e-05
1.94757e-05
1.94737e-05
1.94759e-05
1.94763e-05
1.94776e-05
1.94774e-05
1.94802e-05
1.94763e-05
1.94758e-05
1.9474e-05
1.94733e-05
1.94728e-05
1.94702e-05
1.94704e-05
1.94718e-05
1.94703e-05
1.94732e-05
)
;

boundaryField
{
    inlet
    {
        type            fixedValue;
        value           uniform 0;
    }
    outlet
    {
        type            zeroGradient;
    }
    yzfaces
    {
        type            empty;
    }
}


// ************************************************************************* //
