/*--------------------------------*- C++ -*----------------------------------*\
| =========                 |                                                 |
| \\      /  F ield         | foam-extend: Open Source CFD                    |
|  \\    /   O peration     | Version:     5.0                                |
|   \\  /    A nd           | Web:         http://www.foam-extend.org         |
|    \\/     M anipulation  |                                                 |
\*---------------------------------------------------------------------------*/
FoamFile
{
    version     2.0;
    format      ascii;
    class       volScalarField;
    location    "3";
    object      H2O.gas;
}
// * * * * * * * * * * * * * * * * * * * * * * * * * * * * * * * * * * * * * //

dimensions      [0 0 0 0 0 0 0];

internalField   nonuniform List<scalar> 
100
(
0.000282439
0.00025211
0.000230116
0.000215799
0.000203756
0.000192293
0.00018455
0.00017756
0.00017105
0.000165558
0.000160074
0.000155035
0.000151109
0.000147243
0.000143208
0.000139864
0.000136673
0.000133488
0.000130502
0.000127891
0.000125148
0.000122653
0.000120221
0.000117929
0.000115832
0.000113337
0.000111099
0.000109088
0.000106943
0.000104813
0.000102731
0.00010089
9.8932e-05
9.70392e-05
9.5046e-05
9.30593e-05
9.11238e-05
8.90941e-05
8.70727e-05
8.49638e-05
8.29381e-05
8.08208e-05
7.86622e-05
7.64466e-05
7.41695e-05
0.0110422
0.0138971
0.0163389
0.0182913
0.0197718
0.0207687
0.0212841
0.0212752
0.0207956
0.0198969
0.0186122
0.0171103
0.0155338
0.0140223
0.0127596
0.0117874
0.0111059
0.010669
0.0103892
0.0102212
0.0101198
0.0100715
0.0100382
0.010016
0.010006
0.0100086
0.0100003
0.00999323
0.00999012
0.0100073
0.010001
0.0100008
0.0100116
0.0100107
0.0100045
0.0100056
0.00999731
0.0100117
0.0100187
0.0100152
0.0100131
0.0100082
0.00999906
0.00999839
0.0100031
0.0100121
0.0100043
0.0100043
0.00999959
0.0100031
0.0100073
0.0100109
0.00999771
0.00999756
0.00999178
)
;

boundaryField
{
    inlet
    {
        type            fixedValue;
        value           uniform 0;
    }
    outlet
    {
        type            zeroGradient;
    }
    yzfaces
    {
        type            empty;
    }
}


// ************************************************************************* //
