/*--------------------------------*- C++ -*----------------------------------*\
| =========                 |                                                 |
| \\      /  F ield         | foam-extend: Open Source CFD                    |
|  \\    /   O peration     | Version:     5.0                                |
|   \\  /    A nd           | Web:         http://www.foam-extend.org         |
|    \\/     M anipulation  |                                                 |
\*---------------------------------------------------------------------------*/
FoamFile
{
    version     2.0;
    format      ascii;
    class       volScalarField;
    location    "3";
    object      Na.water;
}
// * * * * * * * * * * * * * * * * * * * * * * * * * * * * * * * * * * * * * //

dimensions      [0 0 0 0 0 0 0];

internalField   nonuniform List<scalar> 
100
(
0.00633185
0.00818544
0.00947616
0.0103278
0.0110287
0.0116201
0.0120857
0.0125424
0.0128803
0.0131784
0.0134777
0.0137642
0.0140373
0.0142746
0.0145046
0.0147013
0.0148922
0.0150737
0.0152535
0.0154121
0.0155609
0.0157132
0.0158583
0.0160019
0.0161487
0.0162838
0.0164116
0.0165381
0.0166558
0.0167715
0.0168904
0.0170001
0.0171228
0.0172461
0.0173634
0.0174755
0.017592
0.0177139
0.0178354
0.0179573
0.0180785
0.0182021
0.0183288
0.0184627
0.0185964
0.0187425
0.0188882
0.0190439
0.0192063
0.0193807
0.0195606
0.0197643
0.0199785
0.0202034
0.0204421
0.0206813
0.0209197
0.0211465
0.0213413
0.0214967
0.021611
0.0216851
0.0217391
0.0217754
0.0217902
0.0218012
0.0218078
0.0218152
0.02181
0.0218083
0.0218083
0.0218126
0.0218106
0.0218091
0.0218181
0.021816
0.02182
0.0218197
0.0218167
0.0218208
0.021818
0.0218189
0.0218161
0.0218148
0.0218193
0.0218196
0.0218217
0.0218186
0.0218237
0.0218219
0.0218277
0.0218262
0.0218315
0.0218238
0.0218233
0.0218257
0.0218293
0.0218324
0.0218294
0.0218261
)
;

boundaryField
{
    inlet
    {
        type            fixedValue;
        value           uniform 0;
    }
    outlet
    {
        type            zeroGradient;
    }
    yzfaces
    {
        type            empty;
    }
}


// ************************************************************************* //
