/*--------------------------------*- C++ -*----------------------------------*\
| =========                 |                                                 |
| \\      /  F ield         | foam-extend: Open Source CFD                    |
|  \\    /   O peration     | Version:     5.0                                |
|   \\  /    A nd           | Web:         http://www.foam-extend.org         |
|    \\/     M anipulation  |                                                 |
\*---------------------------------------------------------------------------*/
FoamFile
{
    version     2.0;
    format      ascii;
    class       volScalarField;
    location    "3";
    object      Na.water;
}
// * * * * * * * * * * * * * * * * * * * * * * * * * * * * * * * * * * * * * //

dimensions      [0 0 0 0 0 0 0];

internalField   nonuniform List<scalar> 
100
(
0.00631538
0.00809234
0.009392
0.0102473
0.0109571
0.0116251
0.0120921
0.012498
0.0128748
0.0132081
0.0135321
0.013828
0.0140632
0.0142915
0.0145258
0.0147232
0.0149092
0.0150884
0.0152676
0.0154261
0.0155877
0.015742
0.0158857
0.0160169
0.0161453
0.0162819
0.016414
0.016538
0.0166563
0.0167832
0.0169011
0.0170156
0.0171299
0.0172424
0.0173601
0.0174748
0.0175929
0.0177133
0.0178372
0.01796
0.0181073
0.0183358
0.0189596
0.0214255
0.0220855
0.0341885
0.0345619
0.034879
0.0351821
0.0354872
0.0358421
0.0362307
0.0366113
0.0370359
0.0374906
0.0379146
0.0383629
0.0387883
0.0390963
0.0393886
0.0395995
0.0397424
0.0398488
0.0398967
0.039925
0.0399228
0.0399759
0.0399783
0.0399577
0.0399482
0.0399889
0.0399708
0.0399557
0.0399436
0.040021
0.0399937
0.0400069
0.0400652
0.0400757
0.0400449
0.0400337
0.0400007
0.0400657
0.0400891
0.0400768
0.0400601
0.0400399
0.039998
0.0399791
0.0399994
0.0400393
0.0400122
0.0399956
0.0399814
0.0399932
0.0400238
0.0400489
0.0399874
0.039981
0.0399602
)
;

boundaryField
{
    inlet
    {
        type            fixedValue;
        value           uniform 0;
    }
    outlet
    {
        type            zeroGradient;
    }
    yzfaces
    {
        type            empty;
    }
}


// ************************************************************************* //
