/*--------------------------------*- C++ -*----------------------------------*\
| =========                 |                                                 |
| \\      /  F ield         | foam-extend: Open Source CFD                    |
|  \\    /   O peration     | Version:     5.0                                |
|   \\  /    A nd           | Web:         http://www.foam-extend.org         |
|    \\/     M anipulation  |                                                 |
\*---------------------------------------------------------------------------*/
FoamFile
{
    version     2.0;
    format      ascii;
    class       volScalarField;
    location    "3";
    object      Ns;
}
// * * * * * * * * * * * * * * * * * * * * * * * * * * * * * * * * * * * * * //

dimensions      [0 -3 0 0 1 0 0];

internalField   nonuniform List<scalar> 
100
(
2112.67
2018.92
1956.62
1925.53
1879.64
1859.15
1874.19
1877.57
1846.33
1830.77
1831.48
1838.23
1835.49
1809.2
1829.01
1793.98
1782.13
1795.53
1784.12
1794.06
1787.86
1776.05
1789.18
1791.87
1780.95
1776.48
2148.24
1871.51
1803.04
1784.85
1781.18
1788.48
1782.02
1784.35
1767.66
1772.67
1775.91
1772.06
1773.53
1771.68
1774.7
1756.45
1699.42
1411.81
1657.91
2
2
2
2
2
2
2
2
2
2
2
2
2
2
2
2
2
2
2
2
2
2
2
2
2
2
2
2
2
2
2
2
2
2
2
2
2
2
2
2
2
2
2
2
2
2
2
2
2
2
2
2
2
2
2
)
;

boundaryField
{
    inlet
    {
        type            fixedValue;
        value           uniform 0;
    }
    outlet
    {
        type            zeroGradient;
    }
    yzfaces
    {
        type            empty;
    }
}


// ************************************************************************* //
