/*--------------------------------*- C++ -*----------------------------------*\
| =========                 |                                                 |
| \\      /  F ield         | foam-extend: Open Source CFD                    |
|  \\    /   O peration     | Version:     5.0                                |
|   \\  /    A nd           | Web:         http://www.foam-extend.org         |
|    \\/     M anipulation  |                                                 |
\*---------------------------------------------------------------------------*/
FoamFile
{
    version     2.0;
    format      ascii;
    class       surfaceScalarField;
    location    "3";
    object      phi;
}
// * * * * * * * * * * * * * * * * * * * * * * * * * * * * * * * * * * * * * //

dimensions      [0 3 -1 0 0 0 0];

internalField   nonuniform List<scalar> 
99
(
1.21794e-06
1.2223e-06
1.20433e-06
1.20089e-06
1.20557e-06
1.2098e-06
1.20587e-06
1.2087e-06
1.20762e-06
1.20787e-06
1.20649e-06
1.20607e-06
1.20625e-06
1.20211e-06
1.20635e-06
1.20639e-06
1.20799e-06
1.20493e-06
1.20864e-06
1.20534e-06
1.20664e-06
1.2118e-06
1.20961e-06
1.20872e-06
1.21224e-06
1.21056e-06
1.211e-06
1.211e-06
1.20812e-06
1.21058e-06
1.20577e-06
1.20465e-06
1.20544e-06
1.20537e-06
1.20622e-06
1.20683e-06
1.20552e-06
1.20409e-06
1.20317e-06
1.20363e-06
1.20435e-06
1.20478e-06
1.20517e-06
1.20292e-06
1.20194e-06
1.20237e-06
1.20239e-06
1.20481e-06
1.20664e-06
1.20605e-06
1.20848e-06
1.20783e-06
1.20785e-06
1.20964e-06
1.20903e-06
1.20851e-06
1.20977e-06
1.20887e-06
1.20916e-06
1.20805e-06
1.20896e-06
1.21012e-06
1.21114e-06
1.21062e-06
1.21176e-06
1.21097e-06
1.21132e-06
1.20984e-06
1.21009e-06
1.21027e-06
1.20925e-06
1.20825e-06
1.20776e-06
1.2094e-06
1.20767e-06
1.20674e-06
1.2043e-06
1.2035e-06
1.20336e-06
1.20106e-06
1.20022e-06
1.20046e-06
1.20119e-06
1.20284e-06
1.20379e-06
1.20395e-06
1.20258e-06
1.20245e-06
1.20193e-06
1.20172e-06
1.20246e-06
1.20175e-06
1.20105e-06
1.20238e-06
1.20275e-06
1.20418e-06
1.20494e-06
1.20434e-06
1.20369e-06
)
;

boundaryField
{
    inlet
    {
        type            calculated;
        value           uniform -1.225e-06;
    }
    outlet
    {
        type            calculated;
        value           uniform 1.20242e-06;
    }
    yzfaces
    {
        type            empty;
    }
}


// ************************************************************************* //
