/*--------------------------------*- C++ -*----------------------------------*\
| =========                 |                                                 |
| \\      /  F ield         | foam-extend: Open Source CFD                    |
|  \\    /   O peration     | Version:     5.0                                |
|   \\  /    A nd           | Web:         http://www.foam-extend.org         |
|    \\/     M anipulation  |                                                 |
\*---------------------------------------------------------------------------*/
FoamFile
{
    version     2.0;
    format      ascii;
    class       surfaceScalarField;
    location    "3";
    object      phi;
}
// * * * * * * * * * * * * * * * * * * * * * * * * * * * * * * * * * * * * * //

dimensions      [0 3 -1 0 0 0 0];

internalField   nonuniform List<scalar> 
99
(
1.21906e-06
1.21738e-06
1.21996e-06
1.21375e-06
1.21225e-06
1.21743e-06
1.2168e-06
1.22169e-06
1.22643e-06
1.2231e-06
1.22022e-06
1.22262e-06
1.22026e-06
1.2182e-06
1.21842e-06
1.21496e-06
1.21726e-06
1.2199e-06
1.21996e-06
1.21857e-06
1.21933e-06
1.22022e-06
1.21938e-06
1.22508e-06
1.22114e-06
1.22203e-06
1.22328e-06
1.21916e-06
1.2196e-06
1.21739e-06
1.21989e-06
1.21467e-06
1.21207e-06
1.21006e-06
1.21067e-06
1.2103e-06
1.20984e-06
1.21051e-06
1.20876e-06
1.20726e-06
1.20602e-06
1.2044e-06
1.20469e-06
1.20394e-06
1.205e-06
1.20544e-06
1.20428e-06
1.20249e-06
1.20404e-06
1.20265e-06
1.20378e-06
1.20354e-06
1.20385e-06
1.20359e-06
1.20399e-06
1.2035e-06
1.20398e-06
1.20338e-06
1.20271e-06
1.20247e-06
1.20362e-06
1.20422e-06
1.20534e-06
1.20618e-06
1.2065e-06
1.20732e-06
1.20642e-06
1.20588e-06
1.20804e-06
1.20789e-06
1.20849e-06
1.20745e-06
1.20674e-06
1.20783e-06
1.20919e-06
1.20807e-06
1.20816e-06
1.20781e-06
1.20698e-06
1.20629e-06
1.20455e-06
1.20612e-06
1.20599e-06
1.20585e-06
1.20472e-06
1.2053e-06
1.2051e-06
1.20526e-06
1.20667e-06
1.20585e-06
1.20527e-06
1.20475e-06
1.20464e-06
1.20308e-06
1.20309e-06
1.20228e-06
1.20298e-06
1.20224e-06
1.20289e-06
)
;

boundaryField
{
    inlet
    {
        type            calculated;
        value           uniform -1.225e-06;
    }
    outlet
    {
        type            calculated;
        value           uniform 1.20339e-06;
    }
    yzfaces
    {
        type            empty;
    }
}


// ************************************************************************* //
