/*--------------------------------*- C++ -*----------------------------------*\
| =========                 |                                                 |
| \\      /  F ield         | foam-extend: Open Source CFD                    |
|  \\    /   O peration     | Version:     5.0                                |
|   \\  /    A nd           | Web:         http://www.foam-extend.org         |
|    \\/     M anipulation  |                                                 |
\*---------------------------------------------------------------------------*/
FoamFile
{
    version     2.0;
    format      ascii;
    class       surfaceScalarField;
    location    "3";
    object      phi.water;
}
// * * * * * * * * * * * * * * * * * * * * * * * * * * * * * * * * * * * * * //

dimensions      [0 3 -1 0 0 0 0];

internalField   nonuniform List<scalar> 
99
(
1.5762e-07
2.65136e-07
3.77579e-07
4.65817e-07
5.56243e-07
6.64481e-07
7.46202e-07
8.28231e-07
9.15778e-07
9.87804e-07
1.07089e-06
1.15779e-06
1.22427e-06
1.29347e-06
1.37699e-06
1.44278e-06
1.51689e-06
1.59544e-06
1.66755e-06
1.73423e-06
1.80893e-06
1.87956e-06
1.94902e-06
2.0263e-06
2.08172e-06
2.16634e-06
2.24034e-06
2.30164e-06
2.37764e-06
2.44916e-06
2.5323e-06
2.58917e-06
2.66282e-06
2.73283e-06
2.81632e-06
2.898e-06
2.98004e-06
3.06835e-06
3.15346e-06
3.24625e-06
3.33496e-06
3.43269e-06
3.53868e-06
3.64361e-06
3.75868e-06
3.87931e-06
3.99937e-06
4.12315e-06
4.27244e-06
4.417e-06
4.5797e-06
4.74685e-06
4.9264e-06
5.10622e-06
5.28998e-06
5.46339e-06
5.62085e-06
5.75191e-06
5.85289e-06
5.92263e-06
5.97534e-06
6.00611e-06
6.028e-06
6.04381e-06
6.0529e-06
6.05862e-06
6.05317e-06
6.05311e-06
6.06637e-06
6.0637e-06
6.06615e-06
6.06378e-06
6.06262e-06
6.06278e-06
6.06537e-06
6.06116e-06
6.05743e-06
6.05204e-06
6.05005e-06
6.04871e-06
6.04345e-06
6.04993e-06
6.04227e-06
6.04033e-06
6.03659e-06
6.04161e-06
6.04529e-06
6.04894e-06
6.05464e-06
6.0463e-06
6.04297e-06
6.04312e-06
6.04458e-06
6.03742e-06
6.03459e-06
6.02698e-06
6.03307e-06
6.03342e-06
6.03777e-06
)
;

boundaryField
{
    inlet
    {
        type            fixedValue;
        value           uniform 0;
    }
    outlet
    {
        type            calculated;
        value           uniform 6.04147e-06;
    }
    yzfaces
    {
        type            empty;
    }
}


// ************************************************************************* //
