/*--------------------------------*- C++ -*----------------------------------*\
| =========                 |                                                 |
| \\      /  F ield         | foam-extend: Open Source CFD                    |
|  \\    /   O peration     | Version:     5.0                                |
|   \\  /    A nd           | Web:         http://www.foam-extend.org         |
|    \\/     M anipulation  |                                                 |
\*---------------------------------------------------------------------------*/
FoamFile
{
    version     2.0;
    format      ascii;
    class       surfaceScalarField;
    location    "3";
    object      phi.water;
}
// * * * * * * * * * * * * * * * * * * * * * * * * * * * * * * * * * * * * * //

dimensions      [0 3 -1 0 0 0 0];

internalField   nonuniform List<scalar> 
99
(
1.57607e-07
2.70956e-07
3.7819e-07
4.72308e-07
5.6669e-07
6.582e-07
7.3372e-07
8.32178e-07
9.01406e-07
9.72593e-07
1.0424e-06
1.12394e-06
1.20587e-06
1.27156e-06
1.35931e-06
1.42742e-06
1.50241e-06
1.5635e-06
1.64451e-06
1.70509e-06
1.77636e-06
1.86284e-06
1.91916e-06
1.99809e-06
2.08111e-06
2.14251e-06
2.21691e-06
2.28757e-06
2.35102e-06
2.43203e-06
2.48588e-06
2.56425e-06
2.64549e-06
2.72778e-06
2.80835e-06
2.89169e-06
2.97252e-06
3.05621e-06
3.14554e-06
3.23763e-06
3.33712e-06
3.43688e-06
3.53923e-06
3.63719e-06
3.74728e-06
3.87014e-06
3.9994e-06
4.14208e-06
4.28978e-06
4.43714e-06
4.60713e-06
4.77318e-06
4.95166e-06
5.14389e-06
5.32169e-06
5.4936e-06
5.65625e-06
5.78115e-06
5.88228e-06
5.94743e-06
6.00006e-06
6.0343e-06
6.05528e-06
6.06318e-06
6.07399e-06
6.07209e-06
6.07533e-06
6.06998e-06
6.07333e-06
6.07265e-06
6.06712e-06
6.06195e-06
6.06119e-06
6.06916e-06
6.05856e-06
6.05232e-06
6.04033e-06
6.03837e-06
6.03632e-06
6.02512e-06
6.02279e-06
6.02498e-06
6.03007e-06
6.03853e-06
6.04246e-06
6.04101e-06
6.03336e-06
6.03336e-06
6.03187e-06
6.03157e-06
6.03508e-06
6.03038e-06
6.02801e-06
6.03694e-06
6.03812e-06
6.04446e-06
6.04651e-06
6.04251e-06
6.03917e-06
)
;

boundaryField
{
    inlet
    {
        type            fixedValue;
        value           uniform 0;
    }
    outlet
    {
        type            calculated;
        value           uniform 6.03245e-06;
    }
    yzfaces
    {
        type            empty;
    }
}


// ************************************************************************* //
