/*--------------------------------*- C++ -*----------------------------------*\
| =========                 |                                                 |
| \\      /  F ield         | foam-extend: Open Source CFD                    |
|  \\    /   O peration     | Version:     5.0                                |
|   \\  /    A nd           | Web:         http://www.foam-extend.org         |
|    \\/     M anipulation  |                                                 |
\*---------------------------------------------------------------------------*/
FoamFile
{
    version     2.0;
    format      ascii;
    class       volVectorField;
    location    "3";
    object      U.gas;
}
// * * * * * * * * * * * * * * * * * * * * * * * * * * * * * * * * * * * * * //

dimensions      [0 1 -1 0 0 0 0];

internalField   nonuniform List<vector> 
100
(
(0.00685064 0 0)
(0.00758714 0 0)
(0.00823798 0 0)
(0.00868697 0 0)
(0.00908304 0 0)
(0.00953404 0 0)
(0.0098453 0 0)
(0.0101501 0 0)
(0.0104691 0 0)
(0.0107095 0 0)
(0.0109286 0 0)
(0.0111505 0 0)
(0.0113157 0 0)
(0.0114709 0 0)
(0.0116494 0 0)
(0.0117743 0 0)
(0.0119112 0 0)
(0.0120779 0 0)
(0.012219 0 0)
(0.0123157 0 0)
(0.0124315 0 0)
(0.0125353 0 0)
(0.0126307 0 0)
(0.0127409 0 0)
(0.012823 0 0)
(0.0129109 0 0)
(0.0129887 0 0)
(0.0130292 0 0)
(0.0130789 0 0)
(0.0131295 0 0)
(0.0131814 0 0)
(0.0131952 0 0)
(0.0131966 0 0)
(0.0131996 0 0)
(0.0132273 0 0)
(0.0132498 0 0)
(0.0132548 0 0)
(0.0132699 0 0)
(0.0132624 0 0)
(0.0132382 0 0)
(0.0131957 0 0)
(0.0131537 0 0)
(0.0131031 0 0)
(0.013048 0 0)
(0.0129782 0 0)
(0.0128974 0 0)
(0.012785 0 0)
(0.0126316 0 0)
(0.0124707 0 0)
(0.0122635 0 0)
(0.012012 0 0)
(0.0117009 0 0)
(0.011321 0 0)
(0.0108544 0 0)
(0.0102946 0 0)
(0.00963433 0 0)
(0.00888132 0 0)
(0.00806976 0 0)
(0.00725206 0 0)
(0.00650236 0 0)
(0.00588279 0 0)
(0.00541589 0 0)
(0.00509365 0 0)
(0.00488927 0 0)
(0.00476117 0 0)
(0.00468609 0 0)
(0.00464087 0 0)
(0.00461169 0 0)
(0.00459823 0 0)
(0.00459358 0 0)
(0.00459056 0 0)
(0.00458759 0 0)
(0.00458325 0 0)
(0.0045829 0 0)
(0.00458794 0 0)
(0.00458675 0 0)
(0.00458464 0 0)
(0.00458274 0 0)
(0.00457998 0 0)
(0.00457686 0 0)
(0.00457207 0 0)
(0.00457204 0 0)
(0.0045764 0 0)
(0.00457516 0 0)
(0.00457224 0 0)
(0.00457192 0 0)
(0.00457272 0 0)
(0.00457263 0 0)
(0.00457665 0 0)
(0.00457724 0 0)
(0.00457445 0 0)
(0.00457227 0 0)
(0.00457054 0 0)
(0.00456826 0 0)
(0.00456643 0 0)
(0.0045649 0 0)
(0.00456303 0 0)
(0.00456252 0 0)
(0.00456285 0 0)
(0.00456388 0 0)
)
;

boundaryField
{
    inlet
    {
        type            fixedValue;
        value           uniform (0.005 0 0);
    }
    outlet
    {
        type            zeroGradient;
    }
    yzfaces
    {
        type            empty;
    }
}


// ************************************************************************* //
