/*--------------------------------*- C++ -*----------------------------------*\
| =========                 |                                                 |
| \\      /  F ield         | foam-extend: Open Source CFD                    |
|  \\    /   O peration     | Version:     5.0                                |
|   \\  /    A nd           | Web:         http://www.foam-extend.org         |
|    \\/     M anipulation  |                                                 |
\*---------------------------------------------------------------------------*/
FoamFile
{
    version     2.0;
    format      ascii;
    class       volVectorField;
    location    "3";
    object      U.gas;
}
// * * * * * * * * * * * * * * * * * * * * * * * * * * * * * * * * * * * * * //

dimensions      [0 1 -1 0 0 0 0];

internalField   nonuniform List<vector> 
100
(
(0.00685553 0 0)
(0.00763895 0 0)
(0.00823675 0 0)
(0.00863405 0 0)
(0.00905838 0 0)
(0.00946562 0 0)
(0.00976729 0 0)
(0.0100947 0 0)
(0.0103239 0 0)
(0.010539 0 0)
(0.0107471 0 0)
(0.0109674 0 0)
(0.0111718 0 0)
(0.0113148 0 0)
(0.011507 0 0)
(0.0116601 0 0)
(0.0118193 0 0)
(0.0119299 0 0)
(0.0120757 0 0)
(0.0121752 0 0)
(0.0122746 0 0)
(0.0124357 0 0)
(0.0125167 0 0)
(0.0126175 0 0)
(0.0127185 0 0)
(0.012787 0 0)
(0.0128604 0 0)
(0.0129245 0 0)
(0.0129594 0 0)
(0.0130263 0 0)
(0.0130397 0 0)
(0.0130739 0 0)
(0.0131129 0 0)
(0.01315 0 0)
(0.0131781 0 0)
(0.0132076 0 0)
(0.013216 0 0)
(0.013208 0 0)
(0.0131981 0 0)
(0.0131797 0 0)
(0.0131723 0 0)
(0.0131457 0 0)
(0.0131079 0 0)
(0.013042 0 0)
(0.0129574 0 0)
(0.0128677 0 0)
(0.0127609 0 0)
(0.0126311 0 0)
(0.012485 0 0)
(0.0122799 0 0)
(0.0120352 0 0)
(0.0117311 0 0)
(0.0113394 0 0)
(0.0108779 0 0)
(0.0103084 0 0)
(0.00963668 0 0)
(0.00888205 0 0)
(0.00806344 0 0)
(0.00724606 0 0)
(0.00649866 0 0)
(0.00588027 0 0)
(0.0054204 0 0)
(0.00510483 0 0)
(0.00489886 0 0)
(0.00477444 0 0)
(0.00470046 0 0)
(0.00465576 0 0)
(0.00462834 0 0)
(0.0046123 0 0)
(0.00460411 0 0)
(0.00459689 0 0)
(0.00459034 0 0)
(0.00458544 0 0)
(0.00458652 0 0)
(0.00458843 0 0)
(0.004584 0 0)
(0.00457646 0 0)
(0.00456961 0 0)
(0.00456811 0 0)
(0.00456232 0 0)
(0.00455718 0 0)
(0.00455666 0 0)
(0.00455843 0 0)
(0.00456184 0 0)
(0.004566 0 0)
(0.00456794 0 0)
(0.00456613 0 0)
(0.00456371 0 0)
(0.00456272 0 0)
(0.00456135 0 0)
(0.00456287 0 0)
(0.00456201 0 0)
(0.00455966 0 0)
(0.00456077 0 0)
(0.00456442 0 0)
(0.00456762 0 0)
(0.00457018 0 0)
(0.00456982 0 0)
(0.00456811 0 0)
(0.00456569 0 0)
)
;

boundaryField
{
    inlet
    {
        type            fixedValue;
        value           uniform (0.005 0 0);
    }
    outlet
    {
        type            zeroGradient;
    }
    yzfaces
    {
        type            empty;
    }
}


// ************************************************************************* //
