/*--------------------------------*- C++ -*----------------------------------*\
| =========                 |                                                 |
| \\      /  F ield         | foam-extend: Open Source CFD                    |
|  \\    /   O peration     | Version:     5.0                                |
|   \\  /    A nd           | Web:         http://www.foam-extend.org         |
|    \\/     M anipulation  |                                                 |
\*---------------------------------------------------------------------------*/
FoamFile
{
    version     2.0;
    format      ascii;
    class       volVectorField;
    location    "3";
    object      U.water;
}
// * * * * * * * * * * * * * * * * * * * * * * * * * * * * * * * * * * * * * //

dimensions      [0 1 -1 0 0 0 0];

internalField   nonuniform List<vector> 
100
(
(7.37907e-05 0 0)
(0.000176711 0 0)
(0.000265205 0 0)
(0.000347564 0 0)
(0.000423818 0 0)
(0.000499332 0 0)
(0.000569021 0 0)
(0.000637828 0 0)
(0.00070719 0 0)
(0.000764959 0 0)
(0.000823233 0 0)
(0.000884249 0 0)
(0.000950389 0 0)
(0.00101179 0 0)
(0.00107277 0 0)
(0.00113717 0 0)
(0.00119524 0 0)
(0.00125194 0 0)
(0.00130909 0 0)
(0.00136767 0 0)
(0.00142104 0 0)
(0.0014835 0 0)
(0.00154416 0 0)
(0.00159823 0 0)
(0.00166357 0 0)
(0.00172396 0 0)
(0.00177943 0 0)
(0.00183914 0 0)
(0.00189434 0 0)
(0.00195223 0 0)
(0.00200924 0 0)
(0.00206174 0 0)
(0.00212572 0 0)
(0.00219232 0 0)
(0.00225925 0 0)
(0.00232653 0 0)
(0.00239398 0 0)
(0.00246133 0 0)
(0.00253148 0 0)
(0.0026055 0 0)
(0.00268294 0 0)
(0.00276417 0 0)
(0.00284738 0 0)
(0.00293046 0 0)
(0.00301554 0 0)
(0.00310978 0 0)
(0.00321163 0 0)
(0.00332212 0 0)
(0.00344083 0 0)
(0.00356199 0 0)
(0.00369137 0 0)
(0.00382917 0 0)
(0.00397041 0 0)
(0.0041209 0 0)
(0.00427233 0 0)
(0.00441478 0 0)
(0.00455008 0 0)
(0.00466698 0 0)
(0.00475879 0 0)
(0.00482612 0 0)
(0.00487334 0 0)
(0.00490848 0 0)
(0.00493215 0 0)
(0.00494475 0 0)
(0.00495274 0 0)
(0.00495736 0 0)
(0.00495871 0 0)
(0.00495767 0 0)
(0.00495586 0 0)
(0.0049572 0 0)
(0.00495575 0 0)
(0.00495175 0 0)
(0.00494881 0 0)
(0.00495122 0 0)
(0.00495093 0 0)
(0.00494544 0 0)
(0.00493859 0 0)
(0.00493199 0 0)
(0.00493005 0 0)
(0.00492511 0 0)
(0.00491864 0 0)
(0.00491738 0 0)
(0.00491937 0 0)
(0.0049243 0 0)
(0.00492967 0 0)
(0.00493195 0 0)
(0.00492944 0 0)
(0.00492635 0 0)
(0.00492501 0 0)
(0.00492352 0 0)
(0.00492456 0 0)
(0.00492467 0 0)
(0.00492177 0 0)
(0.00492307 0 0)
(0.00492655 0 0)
(0.00493023 0 0)
(0.00493478 0 0)
(0.00493515 0 0)
(0.00493257 0 0)
(0.00492858 0 0)
)
;

boundaryField
{
    inlet
    {
        type            fixedValue;
        value           uniform (0 0 0);
    }
    outlet
    {
        type            zeroGradient;
    }
    yzfaces
    {
        type            empty;
    }
}


// ************************************************************************* //
