/*--------------------------------*- C++ -*----------------------------------*\
| =========                 |                                                 |
| \\      /  F ield         | foam-extend: Open Source CFD                    |
|  \\    /   O peration     | Version:     5.0                                |
|   \\  /    A nd           | Web:         http://www.foam-extend.org         |
|    \\/     M anipulation  |                                                 |
\*---------------------------------------------------------------------------*/
FoamFile
{
    version     2.0;
    format      ascii;
    class       volVectorField;
    location    "3";
    object      U.water;
}
// * * * * * * * * * * * * * * * * * * * * * * * * * * * * * * * * * * * * * //

dimensions      [0 1 -1 0 0 0 0];

internalField   nonuniform List<vector> 
100
(
(7.34154e-05 0 0)
(0.000173972 0 0)
(0.000261776 0 0)
(0.00034479 0 0)
(0.000418201 0 0)
(0.000496909 0 0)
(0.000575691 0 0)
(0.00064207 0 0)
(0.000710619 0 0)
(0.000777219 0 0)
(0.000840287 0 0)
(0.000908699 0 0)
(0.000972808 0 0)
(0.00102907 0 0)
(0.00109042 0 0)
(0.00115152 0 0)
(0.00120801 0 0)
(0.00126957 0 0)
(0.00133137 0 0)
(0.00138871 0 0)
(0.0014454 0 0)
(0.00150532 0 0)
(0.00156249 0 0)
(0.0016223 0 0)
(0.00167779 0 0)
(0.00173366 0 0)
(0.00179857 0 0)
(0.00185496 0 0)
(0.00191063 0 0)
(0.00197058 0 0)
(0.00203381 0 0)
(0.00209259 0 0)
(0.00214556 0 0)
(0.00220356 0 0)
(0.00226526 0 0)
(0.00233229 0 0)
(0.00239941 0 0)
(0.00246883 0 0)
(0.00254031 0 0)
(0.00261285 0 0)
(0.00268746 0 0)
(0.00276319 0 0)
(0.00284473 0 0)
(0.00292962 0 0)
(0.00301989 0 0)
(0.00311624 0 0)
(0.0032148 0 0)
(0.00331549 0 0)
(0.00342623 0 0)
(0.00354574 0 0)
(0.00367213 0 0)
(0.00380837 0 0)
(0.00394982 0 0)
(0.00409653 0 0)
(0.00424492 0 0)
(0.00438921 0 0)
(0.00452336 0 0)
(0.00463964 0 0)
(0.004731 0 0)
(0.00479905 0 0)
(0.00484925 0 0)
(0.00488439 0 0)
(0.00490754 0 0)
(0.00492324 0 0)
(0.0049326 0 0)
(0.00493897 0 0)
(0.00494112 0 0)
(0.00493951 0 0)
(0.00494369 0 0)
(0.00494823 0 0)
(0.00494934 0 0)
(0.00494854 0 0)
(0.004945 0 0)
(0.00494585 0 0)
(0.00495084 0 0)
(0.00495142 0 0)
(0.00494933 0 0)
(0.00494886 0 0)
(0.00494647 0 0)
(0.00494337 0 0)
(0.00493839 0 0)
(0.00493802 0 0)
(0.0049409 0 0)
(0.00494038 0 0)
(0.00493779 0 0)
(0.00493663 0 0)
(0.00493741 0 0)
(0.00493734 0 0)
(0.00494051 0 0)
(0.00494173 0 0)
(0.00493886 0 0)
(0.00493663 0 0)
(0.00493536 0 0)
(0.0049319 0 0)
(0.00492867 0 0)
(0.00492703 0 0)
(0.00492688 0 0)
(0.00492681 0 0)
(0.00492661 0 0)
(0.00492902 0 0)
)
;

boundaryField
{
    inlet
    {
        type            fixedValue;
        value           uniform (0 0 0);
    }
    outlet
    {
        type            zeroGradient;
    }
    yzfaces
    {
        type            empty;
    }
}


// ************************************************************************* //
