/*--------------------------------*- C++ -*----------------------------------*\
| =========                 |                                                 |
| \\      /  F ield         | foam-extend: Open Source CFD                    |
|  \\    /   O peration     | Version:     5.0                                |
|   \\  /    A nd           | Web:         http://www.foam-extend.org         |
|    \\/     M anipulation  |                                                 |
\*---------------------------------------------------------------------------*/
FoamFile
{
    version     2.0;
    format      ascii;
    class       volScalarField;
    location    "7";
    object      alpha.gas;
}
// * * * * * * * * * * * * * * * * * * * * * * * * * * * * * * * * * * * * * //

dimensions      [0 0 0 0 0 0 0];

internalField   nonuniform List<scalar> 
100
(
0.162942
0.150833
0.143956
0.136774
0.129848
0.125382
0.122302
0.118572
0.114114
0.110948
0.107979
0.105031
0.102059
0.0993678
0.0973784
0.095273
0.0932647
0.09196
0.0898844
0.0883242
0.0874507
0.0868713
0.0862362
0.0853367
0.0840908
0.0830816
0.0818476
0.0807812
0.0795964
0.0783848
0.0775431
0.0766448
0.0758414
0.0750062
0.0743303
0.0734839
0.072693
0.0718821
0.0710831
0.0703722
0.0697185
0.0690866
0.0684171
0.0676228
0.0668888
0.0662365
0.0657183
0.065176
0.0646986
0.064142
0.0635132
0.0629512
0.062316
0.0617739
0.0613528
0.0608972
0.0603142
0.0598236
0.0593044
0.0587793
0.0583001
0.0578543
0.057458
0.0569873
0.0564993
0.0559974
0.055554
0.0550989
0.0547127
0.0543721
0.0539777
0.0535709
0.0532273
0.0528992
0.0525553
0.0522585
0.0518845
0.0514476
0.050985
0.0505554
0.0501224
0.0496496
0.0491822
0.0487145
0.048232
0.0477866
0.047257
0.0467858
0.0462856
0.0457695
0.0453325
0.0448214
0.0443405
0.0438866
0.0433869
0.042891
0.0423826
0.0418887
0.0413925
0.0408895
)
;

boundaryField
{
    inlet
    {
        type            fixedValue;
        value           uniform 0.2;
    }
    outlet
    {
        type            zeroGradient;
    }
    yzfaces
    {
        type            empty;
    }
}


// ************************************************************************* //
