/*--------------------------------*- C++ -*----------------------------------*\
| =========                 |                                                 |
| \\      /  F ield         | foam-extend: Open Source CFD                    |
|  \\    /   O peration     | Version:     5.0                                |
|   \\  /    A nd           | Web:         http://www.foam-extend.org         |
|    \\/     M anipulation  |                                                 |
\*---------------------------------------------------------------------------*/
FoamFile
{
    version     2.0;
    format      ascii;
    class       volScalarField;
    location    "7";
    object      Cl.water;
}
// * * * * * * * * * * * * * * * * * * * * * * * * * * * * * * * * * * * * * //

dimensions      [0 0 0 0 0 0 0];

internalField   nonuniform List<scalar> 
100
(
0.00729912
0.0102404
0.0124445
0.0137558
0.0148155
0.0157289
0.0167768
0.0171404
0.0176127
0.0181405
0.018782
0.0191596
0.0196674
0.0201769
0.0206348
0.0210142
0.0214573
0.0220097
0.0222624
0.0226821
0.0230899
0.0232577
0.0234135
0.0234802
0.0236208
0.0238631
0.023956
0.0242185
0.0243396
0.0245356
0.0247741
0.0249626
0.0251348
0.025338
0.0255231
0.0257441
0.0259243
0.0260565
0.0262219
0.0264423
0.026559
0.0266948
0.0268124
0.026919
0.0271011
0.0272798
0.0274411
0.027523
0.0276112
0.0277302
0.0278281
0.0279598
0.0280723
0.0282542
0.0283828
0.0284889
0.0285376
0.0286807
0.0287573
0.0288332
0.028961
0.0291024
0.0292134
0.0292598
0.0293605
0.0294776
0.0295822
0.029668
0.0297739
0.0298531
0.029976
0.0300549
0.0301661
0.0302107
0.0302871
0.0303431
0.0304065
0.0304666
0.0304941
0.0305585
0.0306724
0.030718
0.0308036
0.0308917
0.0309898
0.0310941
0.0311738
0.0312938
0.0313536
0.0314194
0.031557
0.0316455
0.0317619
0.0318582
0.0319296
0.0320216
0.0321539
0.0322827
0.032386
0.0324665
)
;

boundaryField
{
    inlet
    {
        type            fixedValue;
        value           uniform 0;
    }
    outlet
    {
        type            zeroGradient;
    }
    yzfaces
    {
        type            empty;
    }
}


// ************************************************************************* //
