/*--------------------------------*- C++ -*----------------------------------*\
| =========                 |                                                 |
| \\      /  F ield         | foam-extend: Open Source CFD                    |
|  \\    /   O peration     | Version:     5.0                                |
|   \\  /    A nd           | Web:         http://www.foam-extend.org         |
|    \\/     M anipulation  |                                                 |
\*---------------------------------------------------------------------------*/
FoamFile
{
    version     2.0;
    format      ascii;
    class       volScalarField;
    location    "7";
    object      CO2.gas;
}
// * * * * * * * * * * * * * * * * * * * * * * * * * * * * * * * * * * * * * //

dimensions      [0 0 0 0 0 0 0];

internalField   nonuniform List<scalar> 
100
(
0.162625
0.150539
0.143676
0.136507
0.129595
0.125138
0.122063
0.118341
0.113892
0.110732
0.107769
0.104827
0.10186
0.0991743
0.0971887
0.0950875
0.0930831
0.0917809
0.0897093
0.0881521
0.0872803
0.0867021
0.0860682
0.0851705
0.0839271
0.0829199
0.0816882
0.0806239
0.0794414
0.0782322
0.0773921
0.0764955
0.0756937
0.0748601
0.0741855
0.0733408
0.0725514
0.0717421
0.0709447
0.0702351
0.0695827
0.0689521
0.0682839
0.0674911
0.0667586
0.0661076
0.0655903
0.065049
0.0645726
0.064017
0.0633895
0.0628286
0.0621946
0.0616536
0.0612333
0.0607786
0.0601967
0.0597071
0.0591889
0.0586649
0.0581866
0.0577417
0.0573461
0.0568763
0.0563892
0.0558883
0.0554458
0.0549916
0.0546062
0.0542662
0.0538726
0.0534666
0.0531237
0.0527962
0.0524529
0.0521567
0.0517835
0.0513474
0.0508857
0.0504569
0.0500248
0.0495529
0.0490864
0.0486196
0.0481381
0.0476935
0.0471649
0.0466947
0.0461954
0.0456804
0.0452442
0.0447341
0.0442541
0.0438011
0.0433024
0.0428075
0.0423001
0.0418071
0.0413119
0.0408099
)
;

boundaryField
{
    inlet
    {
        type            fixedValue;
        value           uniform 0.2;
    }
    outlet
    {
        type            zeroGradient;
    }
    yzfaces
    {
        type            empty;
    }
}


// ************************************************************************* //
