/*--------------------------------*- C++ -*----------------------------------*\
| =========                 |                                                 |
| \\      /  F ield         | foam-extend: Open Source CFD                    |
|  \\    /   O peration     | Version:     5.0                                |
|   \\  /    A nd           | Web:         http://www.foam-extend.org         |
|    \\/     M anipulation  |                                                 |
\*---------------------------------------------------------------------------*/
FoamFile
{
    version     2.0;
    format      ascii;
    class       volScalarField;
    location    "7";
    object      CO2.water;
}
// * * * * * * * * * * * * * * * * * * * * * * * * * * * * * * * * * * * * * //

dimensions      [0 0 0 0 0 0 0];

internalField   nonuniform List<scalar> 
100
(
0.000973302
0.00129135
0.00147197
0.00166061
0.0018425
0.0019598
0.00204071
0.00213867
0.00225576
0.0023389
0.00241688
0.00249431
0.00257239
0.00264306
0.00269531
0.00275061
0.00280335
0.00283762
0.00289214
0.00293311
0.00295606
0.00297127
0.00298796
0.00301158
0.0030443
0.00307081
0.00310322
0.00313123
0.00316235
0.00319417
0.00321627
0.00323987
0.00326097
0.0032829
0.00330066
0.00332289
0.00334366
0.00336496
0.00338594
0.00340462
0.00342178
0.00343838
0.00345596
0.00347683
0.0034961
0.00351324
0.00352685
0.00354109
0.00355363
0.00356825
0.00358476
0.00359952
0.00361621
0.00363044
0.00364151
0.00365347
0.00366878
0.00368167
0.0036953
0.0037091
0.00372168
0.00373339
0.0037438
0.00375616
0.00376898
0.00378216
0.00379381
0.00380576
0.0038159
0.00382485
0.00383521
0.00384589
0.00385492
0.00386354
0.00387257
0.00388036
0.00389019
0.00390166
0.00391381
0.00392509
0.00393646
0.00394888
0.00396116
0.00397344
0.00398612
0.00399782
0.00401173
0.0040241
0.00403724
0.00405079
0.00406227
0.00407569
0.00408833
0.00410025
0.00411337
0.0041264
0.00413975
0.00415272
0.00416575
0.00417896
)
;

boundaryField
{
    inlet
    {
        type            fixedValue;
        value           uniform 0;
    }
    outlet
    {
        type            zeroGradient;
    }
    yzfaces
    {
        type            empty;
    }
}


// ************************************************************************* //
