/*--------------------------------*- C++ -*----------------------------------*\
| =========                 |                                                 |
| \\      /  F ield         | foam-extend: Open Source CFD                    |
|  \\    /   O peration     | Version:     5.0                                |
|   \\  /    A nd           | Web:         http://www.foam-extend.org         |
|    \\/     M anipulation  |                                                 |
\*---------------------------------------------------------------------------*/
FoamFile
{
    version     2.0;
    format      ascii;
    class       volScalarField;
    location    "7";
    object      H2O.gas;
}
// * * * * * * * * * * * * * * * * * * * * * * * * * * * * * * * * * * * * * //

dimensions      [0 0 0 0 0 0 0];

internalField   nonuniform List<scalar> 
100
(
0.000317325
0.000293743
0.00028035
0.000266363
0.000252876
0.000244179
0.000238179
0.000230915
0.000222233
0.000216069
0.000210286
0.000204546
0.000198756
0.000193516
0.000189642
0.000185541
0.00018163
0.000179089
0.000175047
0.000172009
0.000170308
0.000169179
0.000167942
0.000166191
0.000163764
0.000161799
0.000159396
0.000157319
0.000155012
0.000152652
0.000151013
0.000149263
0.000147699
0.000146072
0.000144756
0.000143108
0.000141567
0.000139988
0.000138432
0.000137048
0.000135775
0.000134544
0.00013324
0.000131693
0.000130264
0.000128994
0.000127985
0.000126928
0.000125999
0.000124915
0.00012369
0.000122596
0.000121359
0.000120303
0.000119483
0.000118596
0.00011746
0.000116505
0.000115494
0.000114471
0.000113538
0.00011267
0.000111898
0.000110981
0.000110031
0.000109053
0.00010819
0.000107303
0.000106551
0.000105888
0.00010512
0.000104328
0.000103659
0.00010302
0.00010235
0.000101772
0.000101044
0.000100193
9.92918e-05
9.84551e-05
9.7612e-05
9.66911e-05
9.57809e-05
9.48701e-05
9.39304e-05
9.3063e-05
9.20316e-05
9.11139e-05
9.01398e-05
8.91348e-05
8.82838e-05
8.72884e-05
8.63518e-05
8.54679e-05
8.44948e-05
8.3529e-05
8.25389e-05
8.1577e-05
8.06107e-05
7.96311e-05
)
;

boundaryField
{
    inlet
    {
        type            fixedValue;
        value           uniform 0;
    }
    outlet
    {
        type            zeroGradient;
    }
    yzfaces
    {
        type            empty;
    }
}


// ************************************************************************* //
