/*--------------------------------*- C++ -*----------------------------------*\
| =========                 |                                                 |
| \\      /  F ield         | foam-extend: Open Source CFD                    |
|  \\    /   O peration     | Version:     5.0                                |
|   \\  /    A nd           | Web:         http://www.foam-extend.org         |
|    \\/     M anipulation  |                                                 |
\*---------------------------------------------------------------------------*/
FoamFile
{
    version     2.0;
    format      ascii;
    class       volScalarField;
    location    "7";
    object      H2O.water;
}
// * * * * * * * * * * * * * * * * * * * * * * * * * * * * * * * * * * * * * //

dimensions      [0 0 0 0 0 0 0];

internalField   nonuniform List<scalar> 
100
(
0.0214867
0.0273904
0.0296782
0.0340497
0.0386706
0.0411839
0.042097
0.0450175
0.0484139
0.050439
0.0520491
0.0541606
0.0560419
0.0576578
0.0586705
0.0599593
0.0610215
0.0611828
0.0627053
0.0633808
0.0634144
0.0636447
0.0639485
0.0646924
0.0656298
0.0661126
0.0671204
0.0676223
0.0685337
0.0693315
0.0696846
0.0701825
0.0706224
0.0710225
0.0713065
0.0716908
0.0721053
0.072624
0.0730698
0.0733209
0.073724
0.0740818
0.0745017
0.0750639
0.0754193
0.0756904
0.0758652
0.0762316
0.0765157
0.0768246
0.0772409
0.0775298
0.0779176
0.0780767
0.0782333
0.0784627
0.0789369
0.0791344
0.0794773
0.0798351
0.0800546
0.0802016
0.0803883
0.0807601
0.0810186
0.0812688
0.0814889
0.0817687
0.0819342
0.0821012
0.0822267
0.0824643
0.0825755
0.0828176
0.082999
0.0831607
0.0833961
0.0837159
0.0841148
0.0844138
0.0846149
0.0849674
0.0852687
0.0855314
0.08579
0.0860261
0.0863811
0.0866112
0.0869739
0.0873212
0.0874756
0.0878016
0.0880321
0.0882785
0.0886278
0.0889207
0.0891735
0.0893906
0.0896606
0.0899837
)
;

boundaryField
{
    inlet
    {
        type            fixedValue;
        value           uniform 0;
    }
    outlet
    {
        type            zeroGradient;
    }
    yzfaces
    {
        type            empty;
    }
}


// ************************************************************************* //
