/*--------------------------------*- C++ -*----------------------------------*\
| =========                 |                                                 |
| \\      /  F ield         | foam-extend: Open Source CFD                    |
|  \\    /   O peration     | Version:     5.0                                |
|   \\  /    A nd           | Web:         http://www.foam-extend.org         |
|    \\/     M anipulation  |                                                 |
\*---------------------------------------------------------------------------*/
FoamFile
{
    version     2.0;
    format      ascii;
    class       volScalarField;
    location    "7";
    object      Na.water;
}
// * * * * * * * * * * * * * * * * * * * * * * * * * * * * * * * * * * * * * //

dimensions      [0 0 0 0 0 0 0];

internalField   nonuniform List<scalar> 
100
(
0.00729848
0.0102448
0.0124493
0.0137601
0.0148231
0.015745
0.0167837
0.0171316
0.0176038
0.0181333
0.0187728
0.0191541
0.0196598
0.0201544
0.020621
0.0210029
0.0214531
0.02201
0.0222558
0.0226798
0.0230889
0.023255
0.0234139
0.0234791
0.0236142
0.0238718
0.0239727
0.0242467
0.024368
0.0245539
0.0247818
0.0249702
0.0251405
0.0253503
0.0255394
0.0257583
0.0259337
0.0260724
0.0262393
0.0264601
0.0265767
0.0266984
0.0268128
0.0269175
0.0270947
0.02728
0.0274485
0.0275284
0.0276208
0.027735
0.0278331
0.0279597
0.028078
0.0282648
0.0283896
0.0284978
0.0285426
0.0286796
0.0287657
0.0288432
0.0289625
0.0291083
0.0291965
0.0292367
0.0293527
0.029474
0.0295811
0.0296587
0.0297632
0.0298488
0.0299844
0.0300639
0.0301762
0.030209
0.0302862
0.0303574
0.0304227
0.0304682
0.0304922
0.0305473
0.0306538
0.0307161
0.0307844
0.030889
0.0310022
0.0310953
0.0311764
0.0312851
0.0313497
0.0314391
0.0315726
0.0316557
0.0317772
0.0318765
0.0319423
0.0320403
0.0321502
0.0322852
0.0323952
0.0324813
)
;

boundaryField
{
    inlet
    {
        type            fixedValue;
        value           uniform 0;
    }
    outlet
    {
        type            zeroGradient;
    }
    yzfaces
    {
        type            empty;
    }
}


// ************************************************************************* //
