/*--------------------------------*- C++ -*----------------------------------*\
| =========                 |                                                 |
| \\      /  F ield         | foam-extend: Open Source CFD                    |
|  \\    /   O peration     | Version:     5.0                                |
|   \\  /    A nd           | Web:         http://www.foam-extend.org         |
|    \\/     M anipulation  |                                                 |
\*---------------------------------------------------------------------------*/
FoamFile
{
    version     2.0;
    format      ascii;
    class       surfaceScalarField;
    location    "7";
    object      phi;
}
// * * * * * * * * * * * * * * * * * * * * * * * * * * * * * * * * * * * * * //

dimensions      [0 3 -1 0 0 0 0];

internalField   nonuniform List<scalar> 
99
(
1.22569e-06
1.23518e-06
1.21619e-06
1.2121e-06
1.21121e-06
1.2055e-06
1.19037e-06
1.18954e-06
1.18177e-06
1.17486e-06
1.17395e-06
1.17552e-06
1.1828e-06
1.19124e-06
1.18658e-06
1.19125e-06
1.19295e-06
1.18442e-06
1.18732e-06
1.19261e-06
1.1978e-06
1.20207e-06
1.19708e-06
1.19445e-06
1.18669e-06
1.19206e-06
1.18692e-06
1.1862e-06
1.18244e-06
1.19024e-06
1.19112e-06
1.19026e-06
1.19234e-06
1.19182e-06
1.19165e-06
1.19307e-06
1.19332e-06
1.19448e-06
1.19056e-06
1.19147e-06
1.19309e-06
1.19322e-06
1.19096e-06
1.19052e-06
1.18879e-06
1.1879e-06
1.18724e-06
1.18904e-06
1.1857e-06
1.1822e-06
1.18281e-06
1.18007e-06
1.18239e-06
1.18594e-06
1.18391e-06
1.18123e-06
1.18245e-06
1.18114e-06
1.18435e-06
1.18396e-06
1.18705e-06
1.18714e-06
1.18397e-06
1.18171e-06
1.18075e-06
1.18275e-06
1.18576e-06
1.18869e-06
1.19293e-06
1.18806e-06
1.19011e-06
1.18995e-06
1.19025e-06
1.18898e-06
1.18883e-06
1.18466e-06
1.18325e-06
1.18246e-06
1.17979e-06
1.17751e-06
1.17731e-06
1.17615e-06
1.17693e-06
1.17629e-06
1.17712e-06
1.1735e-06
1.17646e-06
1.17393e-06
1.17541e-06
1.17558e-06
1.17277e-06
1.17401e-06
1.17499e-06
1.17407e-06
1.17311e-06
1.17272e-06
1.17142e-06
1.17107e-06
1.17059e-06
)
;

boundaryField
{
    inlet
    {
        type            calculated;
        value           uniform -1.225e-06;
    }
    outlet
    {
        type            calculated;
        value           uniform 1.17164e-06;
    }
    yzfaces
    {
        type            empty;
    }
}


// ************************************************************************* //
