/*--------------------------------*- C++ -*----------------------------------*\
| =========                 |                                                 |
| \\      /  F ield         | foam-extend: Open Source CFD                    |
|  \\    /   O peration     | Version:     5.0                                |
|   \\  /    A nd           | Web:         http://www.foam-extend.org         |
|    \\/     M anipulation  |                                                 |
\*---------------------------------------------------------------------------*/
FoamFile
{
    version     2.0;
    format      ascii;
    class       surfaceScalarField;
    location    "7";
    object      phi.water;
}
// * * * * * * * * * * * * * * * * * * * * * * * * * * * * * * * * * * * * * //

dimensions      [0 3 -1 0 0 0 0];

internalField   nonuniform List<scalar> 
99
(
8.33293e-08
1.40999e-07
1.73804e-07
2.17921e-07
2.72767e-07
3.11258e-07
3.35071e-07
3.70753e-07
4.21013e-07
4.5714e-07
4.97843e-07
5.42119e-07
5.9362e-07
6.45685e-07
6.78763e-07
7.23716e-07
7.69375e-07
7.89468e-07
8.41627e-07
8.86641e-07
9.14377e-07
9.30145e-07
9.41891e-07
9.62031e-07
9.94105e-07
1.02611e-06
1.05771e-06
1.09013e-06
1.12517e-06
1.17378e-06
1.20331e-06
1.23374e-06
1.26522e-06
1.29606e-06
1.31963e-06
1.35514e-06
1.38728e-06
1.41981e-06
1.44936e-06
1.48124e-06
1.51219e-06
1.54079e-06
1.567e-06
1.60235e-06
1.63715e-06
1.66727e-06
1.69154e-06
1.7216e-06
1.73962e-06
1.76297e-06
1.79689e-06
1.82254e-06
1.86138e-06
1.8981e-06
1.91593e-06
1.93885e-06
1.97434e-06
1.99973e-06
2.03573e-06
2.06636e-06
2.10193e-06
2.12927e-06
2.14759e-06
2.17355e-06
2.20399e-06
2.24124e-06
2.27653e-06
2.31181e-06
2.34539e-06
2.35844e-06
2.39046e-06
2.41958e-06
2.44368e-06
2.46344e-06
2.48856e-06
2.49941e-06
2.52369e-06
2.5536e-06
2.58241e-06
2.60912e-06
2.64191e-06
2.67486e-06
2.71383e-06
2.74859e-06
2.78799e-06
2.81448e-06
2.86541e-06
2.89617e-06
2.94143e-06
2.98448e-06
3.01307e-06
3.06107e-06
3.10534e-06
3.13954e-06
3.18047e-06
3.22397e-06
3.26416e-06
3.30811e-06
3.35145e-06
)
;

boundaryField
{
    inlet
    {
        type            fixedValue;
        value           uniform 0;
    }
    outlet
    {
        type            calculated;
        value           uniform 3.40722e-06;
    }
    yzfaces
    {
        type            empty;
    }
}


// ************************************************************************* //
