/*--------------------------------*- C++ -*----------------------------------*\
| =========                 |                                                 |
| \\      /  F ield         | foam-extend: Open Source CFD                    |
|  \\    /   O peration     | Version:     5.0                                |
|   \\  /    A nd           | Web:         http://www.foam-extend.org         |
|    \\/     M anipulation  |                                                 |
\*---------------------------------------------------------------------------*/
FoamFile
{
    version     2.0;
    format      ascii;
    class       volVectorField;
    location    "7";
    object      U.gas;
}
// * * * * * * * * * * * * * * * * * * * * * * * * * * * * * * * * * * * * * //

dimensions      [0 1 -1 0 0 0 0];

internalField   nonuniform List<vector> 
100
(
(0.00612987 0 0)
(0.00662946 0 0)
(0.00690002 0 0)
(0.00717223 0 0)
(0.00750958 0 0)
(0.00772559 0 0)
(0.0078275 0 0)
(0.00799371 0 0)
(0.00823889 0 0)
(0.00838179 0 0)
(0.00854612 0 0)
(0.00874633 0 0)
(0.00898705 0 0)
(0.00924029 0 0)
(0.00939694 0 0)
(0.00955789 0 0)
(0.00973775 0 0)
(0.00980286 0 0)
(0.00995538 0 0)
(0.010108 0 0)
(0.0102119 0 0)
(0.0102951 0 0)
(0.0103461 0 0)
(0.0103929 0 0)
(0.0104574 0 0)
(0.0105254 0 0)
(0.0106359 0 0)
(0.0106958 0 0)
(0.0107781 0 0)
(0.0109006 0 0)
(0.0110027 0 0)
(0.0110811 0 0)
(0.0111528 0 0)
(0.0112323 0 0)
(0.0112822 0 0)
(0.0113665 0 0)
(0.011439 0 0)
(0.0115158 0 0)
(0.0115705 0 0)
(0.0116126 0 0)
(0.0116778 0 0)
(0.0117373 0 0)
(0.011783 0 0)
(0.0118415 0 0)
(0.0118874 0 0)
(0.0119225 0 0)
(0.0119506 0 0)
(0.0120004 0 0)
(0.0120264 0 0)
(0.0120388 0 0)
(0.0120761 0 0)
(0.0121036 0 0)
(0.0121529 0 0)
(0.0122166 0 0)
(0.0122477 0 0)
(0.0122574 0 0)
(0.0122975 0 0)
(0.0123252 0 0)
(0.0123728 0 0)
(0.012424 0 0)
(0.0124655 0 0)
(0.0125067 0 0)
(0.012511 0 0)
(0.0125163 0 0)
(0.0125284 0 0)
(0.0125631 0 0)
(0.0126092 0 0)
(0.0126673 0 0)
(0.0127209 0 0)
(0.0127302 0 0)
(0.0127387 0 0)
(0.0127686 0 0)
(0.0127785 0 0)
(0.0127872 0 0)
(0.0127958 0 0)
(0.0127796 0 0)
(0.0127721 0 0)
(0.0127829 0 0)
(0.0127831 0 0)
(0.0127668 0 0)
(0.0127662 0 0)
(0.0127759 0 0)
(0.0127837 0 0)
(0.0127934 0 0)
(0.0128052 0 0)
(0.0127913 0 0)
(0.0128036 0 0)
(0.0128034 0 0)
(0.0128048 0 0)
(0.0128164 0 0)
(0.0127902 0 0)
(0.0127885 0 0)
(0.0127882 0 0)
(0.0127785 0 0)
(0.0127684 0 0)
(0.0127466 0 0)
(0.0127256 0 0)
(0.0126992 0 0)
(0.0126752 0 0)
(0.0126563 0 0)
)
;

boundaryField
{
    inlet
    {
        type            fixedValue;
        value           uniform (0.005 0 0);
    }
    outlet
    {
        type            zeroGradient;
    }
    yzfaces
    {
        type            empty;
    }
}


// ************************************************************************* //
