/*--------------------------------*- C++ -*----------------------------------*\
| =========                 |                                                 |
| \\      /  F ield         | foam-extend: Open Source CFD                    |
|  \\    /   O peration     | Version:     5.0                                |
|   \\  /    A nd           | Web:         http://www.foam-extend.org         |
|    \\/     M anipulation  |                                                 |
\*---------------------------------------------------------------------------*/
FoamFile
{
    version     2.0;
    format      ascii;
    class       volVectorField;
    location    "7";
    object      U.water;
}
// * * * * * * * * * * * * * * * * * * * * * * * * * * * * * * * * * * * * * //

dimensions      [0 1 -1 0 0 0 0];

internalField   nonuniform List<vector> 
100
(
(3.95473e-05 0 0)
(9.14061e-05 0 0)
(0.000129586 0 0)
(0.000160796 0 0)
(0.000199514 0 0)
(0.000237969 0 0)
(0.000265002 0 0)
(0.000289384 0 0)
(0.00032265 0 0)
(0.000358738 0 0)
(0.000390101 0 0)
(0.000424666 0 0)
(0.000463258 0 0)
(0.00050486 0 0)
(0.000540631 0 0)
(0.000572291 0 0)
(0.000608557 0 0)
(0.000637608 0 0)
(0.000664986 0 0)
(0.000703956 0 0)
(0.000734273 0 0)
(0.000753021 0 0)
(0.000765035 0 0)
(0.000778276 0 0)
(0.00079826 0 0)
(0.000824974 0 0)
(0.00085054 0 0)
(0.000877409 0 0)
(0.00090443 0 0)
(0.000937396 0 0)
(0.00097015 0 0)
(0.000994524 0 0)
(0.00102001 0 0)
(0.00104512 0 0)
(0.00106811 0 0)
(0.00109154 0 0)
(0.00111931 0 0)
(0.00114607 0 0)
(0.00117141 0 0)
(0.00119612 0 0)
(0.00122144 0 0)
(0.001246 0 0)
(0.00126898 0 0)
(0.00129385 0 0)
(0.0013223 0 0)
(0.00134844 0 0)
(0.00137082 0 0)
(0.00139272 0 0)
(0.00141306 0 0)
(0.00143016 0 0)
(0.00145305 0 0)
(0.00147759 0 0)
(0.00150308 0 0)
(0.00153372 0 0)
(0.00155688 0 0)
(0.0015738 0 0)
(0.00159684 0 0)
(0.00162221 0 0)
(0.00164713 0 0)
(0.00167385 0 0)
(0.00170092 0 0)
(0.00172702 0 0)
(0.00174646 0 0)
(0.00176429 0 0)
(0.00178692 0 0)
(0.00181381 0 0)
(0.00184325 0 0)
(0.00187169 0 0)
(0.00190035 0 0)
(0.00192042 0 0)
(0.0019386 0 0)
(0.00196292 0 0)
(0.00198502 0 0)
(0.00200327 0 0)
(0.00202142 0 0)
(0.00203686 0 0)
(0.00205124 0 0)
(0.00207297 0 0)
(0.00209667 0 0)
(0.00211941 0 0)
(0.0021436 0 0)
(0.00217012 0 0)
(0.00219942 0 0)
(0.00222936 0 0)
(0.00225974 0 0)
(0.00228748 0 0)
(0.00231831 0 0)
(0.00235178 0 0)
(0.00238257 0 0)
(0.00241836 0 0)
(0.00244843 0 0)
(0.00247887 0 0)
(0.00251662 0 0)
(0.00254941 0 0)
(0.00257995 0 0)
(0.00261456 0 0)
(0.0026485 0 0)
(0.00268269 0 0)
(0.00271816 0 0)
(0.00275596 0 0)
)
;

boundaryField
{
    inlet
    {
        type            fixedValue;
        value           uniform (0 0 0);
    }
    outlet
    {
        type            zeroGradient;
    }
    yzfaces
    {
        type            empty;
    }
}


// ************************************************************************* //
