/*--------------------------------*- C++ -*----------------------------------*\
| =========                 |                                                 |
| \\      /  F ield         | foam-extend: Open Source CFD                    |
|  \\    /   O peration     | Version:     5.0                                |
|   \\  /    A nd           | Web:         http://www.foam-extend.org         |
|    \\/     M anipulation  |                                                 |
\*---------------------------------------------------------------------------*/
FoamFile
{
    version     2.0;
    format      ascii;
    class       volScalarField;
    location    "2";
    object      alpha.gas;
}
// * * * * * * * * * * * * * * * * * * * * * * * * * * * * * * * * * * * * * //

dimensions      [0 0 0 0 0 0 0];

internalField   nonuniform List<scalar> 
100
(
0.133509
0.115573
0.104365
0.0963322
0.0900161
0.0844618
0.0800923
0.0758588
0.0721649
0.0685214
0.0649207
0.0613396
0.0575398
0.0531252
0.0476507
0.0391653
0.0244295
0.0367551
0.0362492
0.0359302
0.0356613
0.0354174
0.0351604
0.0348752
0.0345291
0.0341522
0.0336589
0.0330753
0.0323662
0.0314769
0.0304468
0.0292332
0.0278599
0.0262865
0.0245282
0.0225962
0.020538
0.0184295
0.0163981
0.0145685
0.0130687
0.0119499
0.0111832
0.0106896
0.0103935
0.0102205
0.0101243
0.0100712
0.0100424
0.0100269
0.0100196
0.0100147
0.0100128
0.0100117
0.0100123
0.0100118
0.0100108
0.0100098
0.0100096
0.0100086
0.0100093
0.0100083
0.0100066
0.0100035
0.00999997
0.00999713
0.0099957
0.00999582
0.00999776
0.00999783
0.00999641
0.00999859
0.00999937
0.00999851
0.00999981
0.0100019
0.0100023
0.0100028
0.0100002
0.010002
0.0100018
0.0100023
0.0100022
0.0100011
0.0100002
0.010002
0.0100028
0.0100014
0.00999909
0.0099968
0.00999646
0.00999898
0.010001
0.0100022
0.0100049
0.0100068
0.0100066
0.0100078
0.0100079
0.0100051
)
;

boundaryField
{
    inlet
    {
        type            fixedValue;
        value           uniform 0.2;
    }
    outlet
    {
        type            zeroGradient;
    }
    yzfaces
    {
        type            empty;
    }
}


// ************************************************************************* //
