/*--------------------------------*- C++ -*----------------------------------*\
| =========                 |                                                 |
| \\      /  F ield         | foam-extend: Open Source CFD                    |
|  \\    /   O peration     | Version:     5.0                                |
|   \\  /    A nd           | Web:         http://www.foam-extend.org         |
|    \\/     M anipulation  |                                                 |
\*---------------------------------------------------------------------------*/
FoamFile
{
    version     2.0;
    format      ascii;
    class       volScalarField;
    location    "2";
    object      Cl.water;
}
// * * * * * * * * * * * * * * * * * * * * * * * * * * * * * * * * * * * * * //

dimensions      [0 0 0 0 0 0 0];

internalField   nonuniform List<scalar> 
100
(
0.00762106
0.00964041
0.010937
0.0118845
0.0125898
0.0131818
0.0137499
0.0142299
0.0146538
0.0150659
0.0155105
0.0159127
0.0163363
0.0168233
0.0174011
0.0182996
0.0197814
0.0187574
0.0188088
0.0188399
0.0188745
0.0189017
0.0189372
0.0189631
0.0190088
0.0190441
0.0191081
0.0191667
0.0192379
0.0193534
0.0194681
0.0196151
0.0197599
0.0199455
0.0201431
0.0203658
0.0205966
0.0208462
0.0210665
0.0212902
0.0214621
0.0215825
0.0216784
0.0217357
0.0217711
0.0217889
0.0217956
0.021809
0.0218123
0.0218105
0.0218131
0.0218139
0.02182
0.0218269
0.0218069
0.0218084
0.0217925
0.0218115
0.021799
0.0218124
0.0218125
0.0218198
0.0218175
0.0218228
0.0218169
0.0218275
0.0218151
0.0218284
0.021811
0.0218169
0.0218228
0.0218195
0.0218151
0.0218405
0.0218142
0.0218185
0.0218201
0.0218195
0.0218113
0.0218217
0.0218181
0.0218174
0.0218102
0.0218208
0.0218287
0.0218115
0.0218183
0.0218101
0.021824
0.0218167
0.0218353
0.0218342
0.0218203
0.0218132
0.0218226
0.0218206
0.0218296
0.0218102
0.0218157
0.021827
)
;

boundaryField
{
    inlet
    {
        type            fixedValue;
        value           uniform 0;
    }
    outlet
    {
        type            zeroGradient;
    }
    yzfaces
    {
        type            empty;
    }
}


// ************************************************************************* //
