/*--------------------------------*- C++ -*----------------------------------*\
| =========                 |                                                 |
| \\      /  F ield         | foam-extend: Open Source CFD                    |
|  \\    /   O peration     | Version:     5.0                                |
|   \\  /    A nd           | Web:         http://www.foam-extend.org         |
|    \\/     M anipulation  |                                                 |
\*---------------------------------------------------------------------------*/
FoamFile
{
    version     2.0;
    format      ascii;
    class       volScalarField;
    location    "2";
    object      H2O.gas;
}
// * * * * * * * * * * * * * * * * * * * * * * * * * * * * * * * * * * * * * //

dimensions      [0 0 0 0 0 0 0];

internalField   nonuniform List<scalar> 
100
(
0.000119892
0.000126045
0.000126593
0.000126982
0.000126709
0.000125626
0.000125593
0.000135372
0.000128426
0.000125331
0.000126431
0.000119457
0.000112057
0.00010346
9.27984e-05
7.62732e-05
4.75758e-05
0.000632804
0.00116326
0.00187787
0.0027841
0.00388768
0.00517872
0.00664679
0.00825687
0.00999473
0.0117803
0.0135915
0.0153478
0.0169299
0.0183272
0.019415
0.0201788
0.0204978
0.0203789
0.0197768
0.0187601
0.0173866
0.0158581
0.014301
0.0129546
0.0119136
0.0111668
0.0106842
0.0103921
0.0102229
0.0101192
0.01007
0.0100437
0.0100272
0.0100175
0.0100121
0.0100144
0.0100184
0.0100124
0.0100113
0.00999977
0.0100081
0.0100057
0.0100105
0.0100093
0.0100084
0.0100037
0.0100032
0.00999651
0.0100031
0.00999718
0.0100023
0.00999687
0.0100019
0.00999997
0.00999809
0.00999636
0.0100043
0.0099972
0.0100061
0.0100074
0.0100076
0.0100003
0.0100028
0.0100013
0.0100025
0.00999986
0.0100025
0.0100058
0.00999938
0.00999939
0.00999291
0.00999758
0.00999416
0.0100022
0.010002
0.00999937
0.00999664
0.0100067
0.0100071
0.0100087
0.0100033
0.010006
0.0100105
)
;

boundaryField
{
    inlet
    {
        type            fixedValue;
        value           uniform 0;
    }
    outlet
    {
        type            zeroGradient;
    }
    yzfaces
    {
        type            empty;
    }
}


// ************************************************************************* //
