/*--------------------------------*- C++ -*----------------------------------*\
| =========                 |                                                 |
| \\      /  F ield         | foam-extend: Open Source CFD                    |
|  \\    /   O peration     | Version:     5.0                                |
|   \\  /    A nd           | Web:         http://www.foam-extend.org         |
|    \\/     M anipulation  |                                                 |
\*---------------------------------------------------------------------------*/
FoamFile
{
    version     2.0;
    format      ascii;
    class       volScalarField;
    location    "2";
    object      Na.water;
}
// * * * * * * * * * * * * * * * * * * * * * * * * * * * * * * * * * * * * * //

dimensions      [0 0 0 0 0 0 0];

internalField   nonuniform List<scalar> 
100
(
0.00762084
0.00964263
0.0109411
0.0118842
0.0125951
0.0131854
0.0137508
0.0142362
0.0146528
0.0150593
0.015511
0.0159078
0.0163408
0.016824
0.017407
0.018299
0.0197818
0.0187551
0.0188089
0.0188371
0.018872
0.018895
0.0189249
0.0189558
0.0190085
0.0190423
0.0191052
0.0191702
0.0192443
0.0193612
0.0194709
0.0196211
0.0197732
0.019961
0.0201567
0.0203871
0.0206152
0.020865
0.0210822
0.0213115
0.0214747
0.0215886
0.0216901
0.0217428
0.0217748
0.0217894
0.0217926
0.0218021
0.0218115
0.0218119
0.0218097
0.0218135
0.0218186
0.0218313
0.0218214
0.0218226
0.0218054
0.0218229
0.0218109
0.0218241
0.0218233
0.0218286
0.0218246
0.0218294
0.0218169
0.0218336
0.0218241
0.0218295
0.0218085
0.0218239
0.0218287
0.021818
0.0218168
0.0218421
0.0218186
0.0218317
0.0218359
0.0218329
0.021825
0.0218224
0.0218129
0.0218126
0.0218084
0.0218198
0.0218226
0.0218047
0.0218045
0.0217937
0.0218117
0.021809
0.0218243
0.0218091
0.0217982
0.021797
0.0218137
0.0218166
0.0218176
0.0218076
0.0218157
0.0218336
)
;

boundaryField
{
    inlet
    {
        type            fixedValue;
        value           uniform 0;
    }
    outlet
    {
        type            zeroGradient;
    }
    yzfaces
    {
        type            empty;
    }
}


// ************************************************************************* //
