/*--------------------------------*- C++ -*----------------------------------*\
| =========                 |                                                 |
| \\      /  F ield         | foam-extend: Open Source CFD                    |
|  \\    /   O peration     | Version:     5.0                                |
|   \\  /    A nd           | Web:         http://www.foam-extend.org         |
|    \\/     M anipulation  |                                                 |
\*---------------------------------------------------------------------------*/
FoamFile
{
    version     2.0;
    format      ascii;
    class       volScalarField;
    location    "2";
    object      Ns;
}
// * * * * * * * * * * * * * * * * * * * * * * * * * * * * * * * * * * * * * //

dimensions      [0 -3 0 0 1 0 0];

internalField   nonuniform List<scalar> 
100
(
0.556431
1.29794
0.285592
0.440503
2.62193
0.0234422
1.40061
0.551699
2.48339
1.88993
0.30274
4.0721
6.67092
13.6843
29.2248
54.6998
122.236
169.617
176.356
172.804
171.659
174.482
173.268
174.506
168.91
171.236
171.756
170.717
171.783
171.661
173.029
170.996
175.529
174.887
171.672
174.67
173.969
171.276
174.129
173.17
160.935
179.753
173.316
162.853
179.716
175.613
175.537
170.429
174.693
174.674
176.45
173.434
174.1
171.869
173.194
174.224
169.793
176.015
175.76
171.444
175.505
171.894
172.873
171.022
171.883
174.161
172.723
174.036
170.454
176.064
173.01
174.667
172.251
173.454
177.297
170.597
173.993
173.485
172.667
173.391
173.146
173.233
171.534
173.367
172.971
173.262
171.535
172.11
172.334
175.021
171.413
174.134
173.125
171.819
175.85
172.969
175.48
175.928
175.459
173.079
)
;

boundaryField
{
    inlet
    {
        type            fixedValue;
        value           uniform 0;
    }
    outlet
    {
        type            zeroGradient;
    }
    yzfaces
    {
        type            empty;
    }
}


// ************************************************************************* //
