/*--------------------------------*- C++ -*----------------------------------*\
| =========                 |                                                 |
| \\      /  F ield         | foam-extend: Open Source CFD                    |
|  \\    /   O peration     | Version:     5.0                                |
|   \\  /    A nd           | Web:         http://www.foam-extend.org         |
|    \\/     M anipulation  |                                                 |
\*---------------------------------------------------------------------------*/
FoamFile
{
    version     2.0;
    format      ascii;
    class       surfaceScalarField;
    location    "2";
    object      phi;
}
// * * * * * * * * * * * * * * * * * * * * * * * * * * * * * * * * * * * * * //

dimensions      [0 3 -1 0 0 0 0];

internalField   nonuniform List<scalar> 
99
(
1.22321e-06
1.2271e-06
1.23165e-06
1.22698e-06
1.22825e-06
1.23207e-06
1.22721e-06
1.23397e-06
1.23393e-06
1.23688e-06
1.23524e-06
1.23563e-06
1.23736e-06
1.23658e-06
1.22963e-06
1.22349e-06
1.23171e-06
1.23257e-06
1.23348e-06
1.233e-06
1.23077e-06
1.23203e-06
1.23128e-06
1.23111e-06
1.23309e-06
1.23324e-06
1.23445e-06
1.23401e-06
1.23267e-06
1.23326e-06
1.23351e-06
1.23576e-06
1.23502e-06
1.23528e-06
1.23609e-06
1.2372e-06
1.2365e-06
1.23787e-06
1.23607e-06
1.23801e-06
1.23894e-06
1.23599e-06
1.23607e-06
1.23625e-06
1.23632e-06
1.2375e-06
1.2368e-06
1.23761e-06
1.23588e-06
1.23571e-06
1.23475e-06
1.2353e-06
1.23478e-06
1.2337e-06
1.23425e-06
1.23228e-06
1.23392e-06
1.23542e-06
1.23768e-06
1.23869e-06
1.23801e-06
1.23819e-06
1.23838e-06
1.23897e-06
1.23931e-06
1.2387e-06
1.23929e-06
1.23953e-06
1.24115e-06
1.23981e-06
1.24036e-06
1.24069e-06
1.24113e-06
1.24174e-06
1.24306e-06
1.24508e-06
1.24575e-06
1.24706e-06
1.24653e-06
1.24616e-06
1.24823e-06
1.24709e-06
1.24632e-06
1.24871e-06
1.2484e-06
1.24848e-06
1.2477e-06
1.24979e-06
1.24975e-06
1.25011e-06
1.25018e-06
1.25071e-06
1.24869e-06
1.24852e-06
1.25099e-06
1.25196e-06
1.25203e-06
1.25188e-06
1.25273e-06
)
;

boundaryField
{
    inlet
    {
        type            calculated;
        value           uniform -1.225e-06;
    }
    outlet
    {
        type            calculated;
        value           uniform 1.25418e-06;
    }
    yzfaces
    {
        type            empty;
    }
}


// ************************************************************************* //
