/*--------------------------------*- C++ -*----------------------------------*\
| =========                 |                                                 |
| \\      /  F ield         | foam-extend: Open Source CFD                    |
|  \\    /   O peration     | Version:     5.0                                |
|   \\  /    A nd           | Web:         http://www.foam-extend.org         |
|    \\/     M anipulation  |                                                 |
\*---------------------------------------------------------------------------*/
FoamFile
{
    version     2.0;
    format      ascii;
    class       volScalarField;
    location    "2";
    object      S.gas;
}
// * * * * * * * * * * * * * * * * * * * * * * * * * * * * * * * * * * * * * //

dimensions      [0 0 0 0 0 0 0];

internalField   nonuniform List<scalar> 
100
(
0.667545
0.577864
0.521824
0.481661
0.45008
0.422309
0.400461
0.379294
0.360825
0.342607
0.325009
0.307452
0.28913
0.267501
0.240601
0.20174
0.188995
0.183775
0.181246
0.179651
0.178306
0.177087
0.175802
0.174376
0.172646
0.170761
0.168294
0.165377
0.161831
0.157384
0.152234
0.146166
0.1393
0.131432
0.122641
0.112981
0.10269
0.0921474
0.0819904
0.0728426
0.0653437
0.0597496
0.0559159
0.0534479
0.0519673
0.0511026
0.0506215
0.0503559
0.0502122
0.0501345
0.0500981
0.0500736
0.050064
0.0500585
0.0500615
0.050059
0.0500538
0.0500489
0.050048
0.0500432
0.0500464
0.0500417
0.0500331
0.0500177
0.0499999
0.0499856
0.0499785
0.0499791
0.0499888
0.0499891
0.0499821
0.049993
0.0499968
0.0499925
0.049999
0.0500097
0.0500117
0.0500142
0.0500011
0.0500098
0.0500089
0.0500116
0.0500111
0.0500056
0.0500009
0.0500101
0.050014
0.0500068
0.0499954
0.049984
0.0499823
0.0499949
0.0500048
0.0500108
0.0500247
0.0500341
0.0500332
0.0500391
0.0500394
0.0500257
)
;

boundaryField
{
    inlet
    {
        type            calculated;
        value           uniform 1;
    }
    outlet
    {
        type            calculated;
        value           uniform 0.0500257;
    }
    yzfaces
    {
        type            empty;
    }
}


// ************************************************************************* //
