/*--------------------------------*- C++ -*----------------------------------*\
| =========                 |                                                 |
| \\      /  F ield         | foam-extend: Open Source CFD                    |
|  \\    /   O peration     | Version:     5.0                                |
|   \\  /    A nd           | Web:         http://www.foam-extend.org         |
|    \\/     M anipulation  |                                                 |
\*---------------------------------------------------------------------------*/
FoamFile
{
    version     2.0;
    format      ascii;
    class       volVectorField;
    location    "2";
    object      U.gas;
}
// * * * * * * * * * * * * * * * * * * * * * * * * * * * * * * * * * * * * * //

dimensions      [0 1 -1 0 0 0 0];

internalField   nonuniform List<vector> 
100
(
(0.00743276 0 0)
(0.00846634 0 0)
(0.00925573 0 0)
(0.00985853 0 0)
(0.0103537 0 0)
(0.0108537 0 0)
(0.0112236 0 0)
(0.0116201 0 0)
(0.0119807 0 0)
(0.0123306 0 0)
(0.012652 0 0)
(0.0129518 0 0)
(0.0132715 0 0)
(0.0136421 0 0)
(0.0140152 0 0)
(0.0144936 0 0)
(0.0134905 0 0)
(0.013136 0 0)
(0.0129745 0 0)
(0.012899 0 0)
(0.0128424 0 0)
(0.012805 0 0)
(0.012781 0 0)
(0.0127449 0 0)
(0.0127247 0 0)
(0.0126948 0 0)
(0.0126613 0 0)
(0.0126035 0 0)
(0.0125179 0 0)
(0.0124146 0 0)
(0.012275 0 0)
(0.0121062 0 0)
(0.0118693 0 0)
(0.0115607 0 0)
(0.0111673 0 0)
(0.0106762 0 0)
(0.0100652 0 0)
(0.00933859 0 0)
(0.0085182 0 0)
(0.00766317 0 0)
(0.0068535 0 0)
(0.00615328 0 0)
(0.00561666 0 0)
(0.00525244 0 0)
(0.00501833 0 0)
(0.0048797 0 0)
(0.00479902 0 0)
(0.00475334 0 0)
(0.00472674 0 0)
(0.00470959 0 0)
(0.00470004 0 0)
(0.00469613 0 0)
(0.00469382 0 0)
(0.00468958 0 0)
(0.00468812 0 0)
(0.00468604 0 0)
(0.00468471 0 0)
(0.00469047 0 0)
(0.00469747 0 0)
(0.00470355 0 0)
(0.00470352 0 0)
(0.00470218 0 0)
(0.00470312 0 0)
(0.00470443 0 0)
(0.00470409 0 0)
(0.00470195 0 0)
(0.00470092 0 0)
(0.00470168 0 0)
(0.00470533 0 0)
(0.00470641 0 0)
(0.00470463 0 0)
(0.00470618 0 0)
(0.00470877 0 0)
(0.00471092 0 0)
(0.00471441 0 0)
(0.00472121 0 0)
(0.00472733 0 0)
(0.00473158 0 0)
(0.00473292 0 0)
(0.00472996 0 0)
(0.00473347 0 0)
(0.00473523 0 0)
(0.00473297 0 0)
(0.00473577 0 0)
(0.00473871 0 0)
(0.00473795 0 0)
(0.00473769 0 0)
(0.0047397 0 0)
(0.00474279 0 0)
(0.0047429 0 0)
(0.00474228 0 0)
(0.00474336 0 0)
(0.00474233 0 0)
(0.00473895 0 0)
(0.00474332 0 0)
(0.00475157 0 0)
(0.00475513 0 0)
(0.00475441 0 0)
(0.00475514 0 0)
(0.00475818 0 0)
)
;

boundaryField
{
    inlet
    {
        type            fixedValue;
        value           uniform (0.005 0 0);
    }
    outlet
    {
        type            zeroGradient;
    }
    yzfaces
    {
        type            empty;
    }
}


// ************************************************************************* //
