/*--------------------------------*- C++ -*----------------------------------*\
| =========                 |                                                 |
| \\      /  F ield         | foam-extend: Open Source CFD                    |
|  \\    /   O peration     | Version:     5.0                                |
|   \\  /    A nd           | Web:         http://www.foam-extend.org         |
|    \\/     M anipulation  |                                                 |
\*---------------------------------------------------------------------------*/
FoamFile
{
    version     2.0;
    format      ascii;
    class       volVectorField;
    location    "2";
    object      U.water;
}
// * * * * * * * * * * * * * * * * * * * * * * * * * * * * * * * * * * * * * //

dimensions      [0 1 -1 0 0 0 0];

internalField   nonuniform List<vector> 
100
(
(0.00010421 0 0)
(0.000256423 0 0)
(0.000393165 0 0)
(0.000519228 0 0)
(0.00063768 0 0)
(0.000757189 0 0)
(0.000874512 0 0)
(0.000991432 0 0)
(0.00111646 0 0)
(0.00124416 0 0)
(0.00138243 0 0)
(0.00153135 0 0)
(0.00170179 0 0)
(0.00191068 0 0)
(0.00218728 0 0)
(0.00260871 0 0)
(0.00303446 0 0)
(0.00320385 0 0)
(0.0032747 0 0)
(0.00331118 0 0)
(0.00333242 0 0)
(0.00335216 0 0)
(0.00337328 0 0)
(0.00339486 0 0)
(0.0034231 0 0)
(0.00345564 0 0)
(0.00349316 0 0)
(0.00353855 0 0)
(0.00358909 0 0)
(0.00365367 0 0)
(0.00373399 0 0)
(0.00382955 0 0)
(0.00393752 0 0)
(0.00405493 0 0)
(0.00418762 0 0)
(0.00433059 0 0)
(0.00447423 0 0)
(0.00461442 0 0)
(0.004739 0 0)
(0.00484378 0 0)
(0.00492928 0 0)
(0.00498082 0 0)
(0.00501116 0 0)
(0.00503387 0 0)
(0.00504757 0 0)
(0.00505771 0 0)
(0.00506296 0 0)
(0.00506554 0 0)
(0.00506493 0 0)
(0.00506172 0 0)
(0.00505977 0 0)
(0.00505909 0 0)
(0.00505928 0 0)
(0.00505607 0 0)
(0.005055 0 0)
(0.00505206 0 0)
(0.00505141 0 0)
(0.00505784 0 0)
(0.00506555 0 0)
(0.00507225 0 0)
(0.00507297 0 0)
(0.00507197 0 0)
(0.00507272 0 0)
(0.00507433 0 0)
(0.00507634 0 0)
(0.00507586 0 0)
(0.00507587 0 0)
(0.00507761 0 0)
(0.0050814 0 0)
(0.00508195 0 0)
(0.00508035 0 0)
(0.00508216 0 0)
(0.00508368 0 0)
(0.00508584 0 0)
(0.0050898 0 0)
(0.00509662 0 0)
(0.00510207 0 0)
(0.00510611 0 0)
(0.00510771 0 0)
(0.00510592 0 0)
(0.00510939 0 0)
(0.00511131 0 0)
(0.00510731 0 0)
(0.00511063 0 0)
(0.00511495 0 0)
(0.0051145 0 0)
(0.00511302 0 0)
(0.00511572 0 0)
(0.00511996 0 0)
(0.00512065 0 0)
(0.0051216 0 0)
(0.00512283 0 0)
(0.00511968 0 0)
(0.00511516 0 0)
(0.00511988 0 0)
(0.00512684 0 0)
(0.00512888 0 0)
(0.00512875 0 0)
(0.00513022 0 0)
(0.00513499 0 0)
)
;

boundaryField
{
    inlet
    {
        type            fixedValue;
        value           uniform (0 0 0);
    }
    outlet
    {
        type            zeroGradient;
    }
    yzfaces
    {
        type            empty;
    }
}


// ************************************************************************* //
