/*--------------------------------*- C++ -*----------------------------------*\
| =========                 |                                                 |
| \\      /  F ield         | foam-extend: Open Source CFD                    |
|  \\    /   O peration     | Version:     5.0                                |
|   \\  /    A nd           | Web:         http://www.foam-extend.org         |
|    \\/     M anipulation  |                                                 |
\*---------------------------------------------------------------------------*/
FoamFile
{
    version     2.0;
    format      ascii;
    class       volScalarField;
    location    "8";
    object      CO2.water;
}
// * * * * * * * * * * * * * * * * * * * * * * * * * * * * * * * * * * * * * //

dimensions      [0 0 0 0 0 0 0];

internalField   nonuniform List<scalar> 
100
(
0.000915388
0.00122868
0.00148983
0.00165146
0.00171569
0.00177215
0.0018703
0.00199397
0.00213079
0.00223313
0.00230313
0.00237115
0.00244783
0.0025105
0.00256859
0.00263586
0.00269096
0.00272394
0.00276722
0.00281024
0.00284745
0.0028817
0.00292728
0.00295559
0.00297352
0.00298225
0.00298995
0.00301757
0.00304118
0.00306755
0.00309477
0.0031279
0.0031607
0.00318274
0.0032083
0.00323027
0.00324724
0.00326731
0.00328459
0.00330199
0.00332164
0.0033393
0.00335559
0.00337056
0.0033886
0.00340297
0.00341612
0.00342855
0.00344301
0.00345708
0.00347502
0.00348983
0.00350428
0.00351858
0.00353438
0.00354614
0.00355968
0.00357378
0.00358751
0.00359892
0.00361235
0.00362491
0.00363624
0.0036467
0.00365806
0.0036708
0.00368167
0.00369562
0.00370644
0.00371578
0.00372687
0.00373761
0.00374873
0.00375846
0.00376989
0.00377894
0.00378977
0.00379824
0.00380864
0.00381631
0.00382377
0.00383263
0.00384197
0.00385236
0.0038631
0.00387146
0.00388086
0.00388954
0.00389911
0.00390795
0.00391722
0.00392864
0.00393912
0.00394932
0.00396045
0.00397056
0.00398063
0.00399091
0.00400199
0.00401267
)
;

boundaryField
{
    inlet
    {
        type            fixedValue;
        value           uniform 0;
    }
    outlet
    {
        type            zeroGradient;
    }
    yzfaces
    {
        type            empty;
    }
}


// ************************************************************************* //
