/*--------------------------------*- C++ -*----------------------------------*\
| =========                 |                                                 |
| \\      /  F ield         | foam-extend: Open Source CFD                    |
|  \\    /   O peration     | Version:     5.0                                |
|   \\  /    A nd           | Web:         http://www.foam-extend.org         |
|    \\/     M anipulation  |                                                 |
\*---------------------------------------------------------------------------*/
FoamFile
{
    version     2.0;
    format      ascii;
    class       volScalarField;
    location    "8";
    object      H2O.water;
}
// * * * * * * * * * * * * * * * * * * * * * * * * * * * * * * * * * * * * * //

dimensions      [0 0 0 0 0 0 0];

internalField   nonuniform List<scalar> 
100
(
0.0259327
0.0348081
0.0422065
0.0467853
0.0486049
0.0502047
0.0529853
0.0564888
0.0603647
0.063264
0.0652471
0.0671741
0.0693464
0.0711218
0.0727675
0.0746732
0.0762343
0.0771685
0.0783946
0.0796135
0.0806675
0.0816377
0.0829292
0.0837312
0.0842391
0.0844865
0.0847045
0.0854869
0.086156
0.086903
0.0876739
0.0886126
0.0895417
0.0901662
0.0908903
0.0915127
0.0919934
0.0925621
0.0930517
0.0935445
0.0941013
0.0946017
0.095063
0.095487
0.0959981
0.0964054
0.0967778
0.09713
0.0975395
0.0979382
0.0984463
0.0988659
0.0992755
0.0996806
0.100128
0.100461
0.100845
0.101244
0.101633
0.101957
0.102337
0.102693
0.103014
0.10331
0.103632
0.103993
0.104301
0.104696
0.105002
0.105267
0.105581
0.105885
0.106201
0.106476
0.1068
0.107056
0.107363
0.107603
0.107898
0.108115
0.108327
0.108578
0.108842
0.109136
0.109441
0.109678
0.109944
0.11019
0.110461
0.110711
0.110974
0.111297
0.111594
0.111883
0.112199
0.112485
0.11277
0.113061
0.113375
0.113678
)
;

boundaryField
{
    inlet
    {
        type            fixedValue;
        value           uniform 0;
    }
    outlet
    {
        type            zeroGradient;
    }
    yzfaces
    {
        type            empty;
    }
}


// ************************************************************************* //
