/*--------------------------------*- C++ -*----------------------------------*\
| =========                 |                                                 |
| \\      /  F ield         | foam-extend: Open Source CFD                    |
|  \\    /   O peration     | Version:     5.0                                |
|   \\  /    A nd           | Web:         http://www.foam-extend.org         |
|    \\/     M anipulation  |                                                 |
\*---------------------------------------------------------------------------*/
FoamFile
{
    version     2.0;
    format      ascii;
    class       volScalarField;
    location    "8";
    object      H2O.gas;
}
// * * * * * * * * * * * * * * * * * * * * * * * * * * * * * * * * * * * * * //

dimensions      [0 0 0 0 0 0 0];

internalField   nonuniform List<scalar> 
100
(
0.000321605
0.000297673
0.000279897
0.000267304
0.00026321
0.000258503
0.000251239
0.000242531
0.000231819
0.000224386
0.000218924
0.000213876
0.000207702
0.000203124
0.000198807
0.000193822
0.000190147
0.000187373
0.000183529
0.000180481
0.000178024
0.000174719
0.000171606
0.000170389
0.000169423
0.000169188
0.000167593
0.000165289
0.00016287
0.000161494
0.000159348
0.000157023
0.000155409
0.000153659
0.000151269
0.000149674
0.000148401
0.000147111
0.000146075
0.000144644
0.000143358
0.000141816
0.000140507
0.000139326
0.000138153
0.000137207
0.000136148
0.000134894
0.000133788
0.000132574
0.000131318
0.000130322
0.000129339
0.000128433
0.000127483
0.000126577
0.000125687
0.000124561
0.000123447
0.000122391
0.000121561
0.000120567
0.000119845
0.000118947
0.000118047
0.000117127
0.000116172
0.000115266
0.000114575
0.000113831
0.000113028
0.000112233
0.000111312
0.000110493
0.000109858
0.000109123
0.00010832
0.000107732
0.000107039
0.000106427
0.0001057
0.00010501
0.000104302
0.000103667
0.000103069
0.000102427
0.000101773
0.000101013
0.000100394
9.97272e-05
9.89315e-05
9.81499e-05
9.73457e-05
9.65604e-05
9.58017e-05
9.50344e-05
9.41883e-05
9.33798e-05
9.25916e-05
9.15132e-05
)
;

boundaryField
{
    inlet
    {
        type            fixedValue;
        value           uniform 0;
    }
    outlet
    {
        type            zeroGradient;
    }
    yzfaces
    {
        type            empty;
    }
}


// ************************************************************************* //
