/*--------------------------------*- C++ -*----------------------------------*\
| =========                 |                                                 |
| \\      /  F ield         | foam-extend: Open Source CFD                    |
|  \\    /   O peration     | Version:     5.0                                |
|   \\  /    A nd           | Web:         http://www.foam-extend.org         |
|    \\/     M anipulation  |                                                 |
\*---------------------------------------------------------------------------*/
FoamFile
{
    version     2.0;
    format      ascii;
    class       volScalarField;
    location    "8";
    object      Na.water;
}
// * * * * * * * * * * * * * * * * * * * * * * * * * * * * * * * * * * * * * //

dimensions      [0 0 0 0 0 0 0];

internalField   nonuniform List<scalar> 
100
(
0.00400331
0.00541193
0.00645891
0.00719961
0.00744256
0.0077196
0.00814924
0.00866281
0.00929537
0.00973263
0.0100549
0.010351
0.0107144
0.0109845
0.0112372
0.0115361
0.0117551
0.0119167
0.0121415
0.0123225
0.0124662
0.0126616
0.0128427
0.0129158
0.0129707
0.0129847
0.0130811
0.0132168
0.01336
0.0134404
0.0135684
0.0137056
0.0138021
0.0139045
0.0140445
0.0141385
0.0142127
0.014289
0.0143466
0.0144333
0.0145092
0.0146001
0.0146798
0.014747
0.0148152
0.0148756
0.0149376
0.0150111
0.0150787
0.0151503
0.0152272
0.0152834
0.0153402
0.0153933
0.0154459
0.0154926
0.0155482
0.0156131
0.0156788
0.0157433
0.0157973
0.0158572
0.0158959
0.0159531
0.0160024
0.0160603
0.0161171
0.0161643
0.0162042
0.0162484
0.0163
0.0163511
0.0164084
0.0164557
0.0164911
0.0165353
0.0165849
0.0166201
0.0166604
0.0166927
0.0167353
0.0167758
0.0168172
0.0168522
0.0168871
0.0169252
0.0169649
0.0170057
0.0170401
0.0170789
0.0171281
0.0171735
0.0172206
0.0172683
0.0173152
0.0173621
0.0174125
0.0174584
0.0175074
0.0175638
)
;

boundaryField
{
    inlet
    {
        type            fixedValue;
        value           uniform 0;
    }
    outlet
    {
        type            zeroGradient;
    }
    yzfaces
    {
        type            empty;
    }
}


// ************************************************************************* //
