/*--------------------------------*- C++ -*----------------------------------*\
| =========                 |                                                 |
| \\      /  F ield         | foam-extend: Open Source CFD                    |
|  \\    /   O peration     | Version:     5.0                                |
|   \\  /    A nd           | Web:         http://www.foam-extend.org         |
|    \\/     M anipulation  |                                                 |
\*---------------------------------------------------------------------------*/
FoamFile
{
    version     2.0;
    format      ascii;
    class       volScalarField;
    location    "8";
    object      Ns;
}
// * * * * * * * * * * * * * * * * * * * * * * * * * * * * * * * * * * * * * //

dimensions      [0 -3 0 0 1 0 0];

internalField   nonuniform List<scalar> 
100
(
23.5121
98.8998
24.6654
170.482
157.971
196.088
175.258
145.699
65.1939
47.0833
94.8045
66.1425
55.3577
36.4254
55.6342
20.1643
12.1287
76.0909
16.9467
28.8969
34.8421
45.6889
67.5532
60.6326
60.3983
87.3004
74.5336
78.0567
56.4407
44.9544
68.3554
29.6499
51.5289
39.6377
40.4451
28.2072
63.1426
47.8972
52.2921
40.6284
74.814
64.5367
54.1929
62.1209
75.5604
53.1256
53.769
59.1757
59.3418
79.7284
47.4378
36.2879
70.7179
55.0988
48.4539
70.8929
42.336
60.6126
50.17
66.5664
51.2393
61.2555
51.3988
54.9785
59.6258
53.4295
58.8246
61.9267
66.6499
71.0953
64.5675
64.0378
68.9665
67.4394
70.4043
61.0687
59.978
63.615
65.2201
59.5388
62.6702
58.8409
55.4457
61.3513
54.0212
62.3091
58.3494
60.6983
55.6467
64.9618
60.2805
58.2576
47.7385
60.6523
59.1193
58.7408
51.6257
51.6212
53.3543
64.6007
)
;

boundaryField
{
    inlet
    {
        type            fixedValue;
        value           uniform 0;
    }
    outlet
    {
        type            zeroGradient;
    }
    yzfaces
    {
        type            empty;
    }
}


// ************************************************************************* //
