/*--------------------------------*- C++ -*----------------------------------*\
| =========                 |                                                 |
| \\      /  F ield         | foam-extend: Open Source CFD                    |
|  \\    /   O peration     | Version:     5.0                                |
|   \\  /    A nd           | Web:         http://www.foam-extend.org         |
|    \\/     M anipulation  |                                                 |
\*---------------------------------------------------------------------------*/
FoamFile
{
    version     2.0;
    format      ascii;
    class       surfaceScalarField;
    location    "8";
    object      phi;
}
// * * * * * * * * * * * * * * * * * * * * * * * * * * * * * * * * * * * * * //

dimensions      [0 3 -1 0 0 0 0];

internalField   nonuniform List<scalar> 
99
(
1.22249e-06
1.22607e-06
1.22823e-06
1.23066e-06
1.22143e-06
1.21451e-06
1.20092e-06
1.19115e-06
1.19631e-06
1.19626e-06
1.19086e-06
1.19206e-06
1.18834e-06
1.19039e-06
1.18671e-06
1.18762e-06
1.18291e-06
1.18838e-06
1.18876e-06
1.18695e-06
1.18676e-06
1.17974e-06
1.18339e-06
1.17908e-06
1.1835e-06
1.18358e-06
1.18191e-06
1.18019e-06
1.18028e-06
1.17932e-06
1.18083e-06
1.17477e-06
1.17652e-06
1.17693e-06
1.17553e-06
1.17355e-06
1.17428e-06
1.17136e-06
1.17059e-06
1.16792e-06
1.17004e-06
1.17118e-06
1.17113e-06
1.17048e-06
1.17199e-06
1.17062e-06
1.17061e-06
1.16875e-06
1.16574e-06
1.16701e-06
1.16533e-06
1.16533e-06
1.16652e-06
1.1644e-06
1.16718e-06
1.16213e-06
1.16077e-06
1.15791e-06
1.16099e-06
1.15953e-06
1.15842e-06
1.15923e-06
1.16163e-06
1.16218e-06
1.15891e-06
1.15847e-06
1.15869e-06
1.16418e-06
1.16353e-06
1.16491e-06
1.16791e-06
1.16794e-06
1.16744e-06
1.16492e-06
1.16525e-06
1.16322e-06
1.16439e-06
1.16189e-06
1.1643e-06
1.16189e-06
1.16293e-06
1.15858e-06
1.15907e-06
1.15652e-06
1.15799e-06
1.15854e-06
1.1577e-06
1.15626e-06
1.15479e-06
1.15175e-06
1.14702e-06
1.14757e-06
1.14757e-06
1.14621e-06
1.1442e-06
1.14202e-06
1.14224e-06
1.1403e-06
1.13741e-06
)
;

boundaryField
{
    inlet
    {
        type            calculated;
        value           uniform -1.225e-06;
    }
    outlet
    {
        type            calculated;
        value           uniform 1.1331e-06;
    }
    yzfaces
    {
        type            empty;
    }
}


// ************************************************************************* //
