/*--------------------------------*- C++ -*----------------------------------*\
| =========                 |                                                 |
| \\      /  F ield         | foam-extend: Open Source CFD                    |
|  \\    /   O peration     | Version:     5.0                                |
|   \\  /    A nd           | Web:         http://www.foam-extend.org         |
|    \\/     M anipulation  |                                                 |
\*---------------------------------------------------------------------------*/
FoamFile
{
    version     2.0;
    format      ascii;
    class       surfaceScalarField;
    location    "8";
    object      phi;
}
// * * * * * * * * * * * * * * * * * * * * * * * * * * * * * * * * * * * * * //

dimensions      [0 3 -1 0 0 0 0];

internalField   nonuniform List<scalar> 
99
(
1.23482e-06
1.2253e-06
1.23065e-06
1.23714e-06
1.24496e-06
1.24126e-06
1.2366e-06
1.21893e-06
1.2255e-06
1.22266e-06
1.22477e-06
1.22115e-06
1.2215e-06
1.21964e-06
1.21902e-06
1.21724e-06
1.21938e-06
1.2197e-06
1.2205e-06
1.2205e-06
1.22538e-06
1.23004e-06
1.22768e-06
1.23209e-06
1.23904e-06
1.24099e-06
1.24217e-06
1.23695e-06
1.2405e-06
1.24316e-06
1.2427e-06
1.24718e-06
1.24888e-06
1.24209e-06
1.24267e-06
1.24201e-06
1.24214e-06
1.24525e-06
1.24492e-06
1.24955e-06
1.24816e-06
1.24881e-06
1.24734e-06
1.24595e-06
1.24415e-06
1.2436e-06
1.2455e-06
1.24573e-06
1.24918e-06
1.24925e-06
1.25019e-06
1.24903e-06
1.2484e-06
1.24506e-06
1.24859e-06
1.24512e-06
1.24203e-06
1.24076e-06
1.24171e-06
1.24111e-06
1.24181e-06
1.24526e-06
1.24501e-06
1.2491e-06
1.24386e-06
1.24287e-06
1.2407e-06
1.24176e-06
1.24529e-06
1.24315e-06
1.24296e-06
1.23884e-06
1.24081e-06
1.24321e-06
1.24341e-06
1.24315e-06
1.24595e-06
1.24664e-06
1.24595e-06
1.24322e-06
1.24256e-06
1.24533e-06
1.24155e-06
1.24305e-06
1.24216e-06
1.24066e-06
1.24051e-06
1.24215e-06
1.23853e-06
1.23624e-06
1.23642e-06
1.23606e-06
1.23741e-06
1.23897e-06
1.23478e-06
1.23e-06
1.23062e-06
1.23088e-06
1.23015e-06
)
;

boundaryField
{
    inlet
    {
        type            calculated;
        value           uniform -1.225e-06;
    }
    outlet
    {
        type            calculated;
        value           uniform 1.23211e-06;
    }
    yzfaces
    {
        type            empty;
    }
}


// ************************************************************************* //
