/*--------------------------------*- C++ -*----------------------------------*\
| =========                 |                                                 |
| \\      /  F ield         | foam-extend: Open Source CFD                    |
|  \\    /   O peration     | Version:     5.0                                |
|   \\  /    A nd           | Web:         http://www.foam-extend.org         |
|    \\/     M anipulation  |                                                 |
\*---------------------------------------------------------------------------*/
FoamFile
{
    version     2.0;
    format      ascii;
    class       volVectorField;
    location    "8";
    object      U.gas;
}
// * * * * * * * * * * * * * * * * * * * * * * * * * * * * * * * * * * * * * //

dimensions      [0 1 -1 0 0 0 0];

internalField   nonuniform List<vector> 
100
(
(0.00604136 0 0)
(0.00649729 0 0)
(0.00694246 0 0)
(0.00724376 0 0)
(0.00733867 0 0)
(0.00739834 0 0)
(0.00753417 0 0)
(0.00771973 0 0)
(0.00800679 0 0)
(0.00825626 0 0)
(0.00839961 0 0)
(0.00855196 0 0)
(0.00873994 0 0)
(0.00889426 0 0)
(0.00904302 0 0)
(0.00922095 0 0)
(0.00935663 0 0)
(0.00944434 0 0)
(0.00959754 0 0)
(0.00971844 0 0)
(0.00981873 0 0)
(0.00988991 0 0)
(0.0100207 0 0)
(0.0100949 0 0)
(0.0101445 0 0)
(0.0101848 0 0)
(0.0102005 0 0)
(0.0102858 0 0)
(0.0103495 0 0)
(0.0104312 0 0)
(0.0105205 0 0)
(0.0106105 0 0)
(0.0106959 0 0)
(0.0107659 0 0)
(0.0108472 0 0)
(0.0108986 0 0)
(0.0109416 0 0)
(0.0109993 0 0)
(0.0110337 0 0)
(0.0110735 0 0)
(0.0111365 0 0)
(0.0112047 0 0)
(0.0112597 0 0)
(0.0113021 0 0)
(0.011368 0 0)
(0.0114084 0 0)
(0.0114401 0 0)
(0.0114692 0 0)
(0.0114926 0 0)
(0.0115259 0 0)
(0.0115863 0 0)
(0.011618 0 0)
(0.0116673 0 0)
(0.011705 0 0)
(0.011758 0 0)
(0.0117735 0 0)
(0.0117836 0 0)
(0.0118033 0 0)
(0.0118417 0 0)
(0.0118769 0 0)
(0.0119063 0 0)
(0.0119363 0 0)
(0.0119789 0 0)
(0.012021 0 0)
(0.0120395 0 0)
(0.0120559 0 0)
(0.0120771 0 0)
(0.0121495 0 0)
(0.0121928 0 0)
(0.0122159 0 0)
(0.0122706 0 0)
(0.0123116 0 0)
(0.0123355 0 0)
(0.0123349 0 0)
(0.0123545 0 0)
(0.0123593 0 0)
(0.0123829 0 0)
(0.0123841 0 0)
(0.0124098 0 0)
(0.0124154 0 0)
(0.0124219 0 0)
(0.0124265 0 0)
(0.0124234 0 0)
(0.0124329 0 0)
(0.0124444 0 0)
(0.0124589 0 0)
(0.0124753 0 0)
(0.0124736 0 0)
(0.0124759 0 0)
(0.0124607 0 0)
(0.0124308 0 0)
(0.0124286 0 0)
(0.0124391 0 0)
(0.0124421 0 0)
(0.0124384 0 0)
(0.012418 0 0)
(0.012413 0 0)
(0.0124122 0 0)
(0.0123973 0 0)
(0.0123596 0 0)
)
;

boundaryField
{
    inlet
    {
        type            fixedValue;
        value           uniform (0.005 0 0);
    }
    outlet
    {
        type            zeroGradient;
    }
    yzfaces
    {
        type            empty;
    }
}


// ************************************************************************* //
