/*--------------------------------*- C++ -*----------------------------------*\
| =========                 |                                                 |
| \\      /  F ield         | foam-extend: Open Source CFD                    |
|  \\    /   O peration     | Version:     5.0                                |
|   \\  /    A nd           | Web:         http://www.foam-extend.org         |
|    \\/     M anipulation  |                                                 |
\*---------------------------------------------------------------------------*/
FoamFile
{
    version     2.0;
    format      ascii;
    class       volVectorField;
    location    "8";
    object      U.water;
}
// * * * * * * * * * * * * * * * * * * * * * * * * * * * * * * * * * * * * * //

dimensions      [0 1 -1 0 0 0 0];

internalField   nonuniform List<vector> 
100
(
(3.65031e-05 0 0)
(8.4013e-05 0 0)
(0.00012494 0 0)
(0.00016359 0 0)
(0.000192544 0 0)
(0.000206028 0 0)
(0.000223025 0 0)
(0.000248078 0 0)
(0.000283495 0 0)
(0.000326493 0 0)
(0.000360255 0 0)
(0.000388774 0 0)
(0.000420237 0 0)
(0.000454743 0 0)
(0.000484165 0 0)
(0.000516598 0 0)
(0.000551477 0 0)
(0.000579517 0 0)
(0.000606523 0 0)
(0.000638624 0 0)
(0.000666632 0 0)
(0.000696306 0 0)
(0.000730646 0 0)
(0.000757792 0 0)
(0.000773462 0 0)
(0.000783695 0 0)
(0.000793074 0 0)
(0.000814088 0 0)
(0.000842323 0 0)
(0.000868693 0 0)
(0.000890774 0 0)
(0.000922497 0 0)
(0.000952738 0 0)
(0.000974578 0 0)
(0.0010013 0 0)
(0.0010328 0 0)
(0.00105564 0 0)
(0.00107711 0 0)
(0.00109766 0 0)
(0.00111854 0 0)
(0.00114277 0 0)
(0.00116682 0 0)
(0.00119194 0 0)
(0.00121304 0 0)
(0.00123295 0 0)
(0.00125162 0 0)
(0.00127062 0 0)
(0.00129373 0 0)
(0.00131942 0 0)
(0.00134403 0 0)
(0.00136902 0 0)
(0.00139246 0 0)
(0.00141283 0 0)
(0.00143114 0 0)
(0.00145145 0 0)
(0.00147193 0 0)
(0.00148796 0 0)
(0.0015072 0 0)
(0.00153266 0 0)
(0.00155827 0 0)
(0.00158118 0 0)
(0.00160552 0 0)
(0.00162932 0 0)
(0.00165064 0 0)
(0.00167228 0 0)
(0.00169114 0 0)
(0.00171297 0 0)
(0.00173687 0 0)
(0.00176106 0 0)
(0.00178076 0 0)
(0.00179984 0 0)
(0.00181834 0 0)
(0.00184015 0 0)
(0.00186815 0 0)
(0.00189046 0 0)
(0.0019095 0 0)
(0.00193373 0 0)
(0.00195761 0 0)
(0.00197599 0 0)
(0.0019927 0 0)
(0.00200983 0 0)
(0.00203309 0 0)
(0.00205335 0 0)
(0.00207263 0 0)
(0.00209212 0 0)
(0.00210878 0 0)
(0.00212825 0 0)
(0.00215168 0 0)
(0.00217247 0 0)
(0.00218763 0 0)
(0.00220905 0 0)
(0.00223462 0 0)
(0.00226181 0 0)
(0.00229116 0 0)
(0.00231446 0 0)
(0.0023325 0 0)
(0.0023564 0 0)
(0.00238554 0 0)
(0.00241225 0 0)
(0.00244405 0 0)
)
;

boundaryField
{
    inlet
    {
        type            fixedValue;
        value           uniform (0 0 0);
    }
    outlet
    {
        type            zeroGradient;
    }
    yzfaces
    {
        type            empty;
    }
}


// ************************************************************************* //
