/*--------------------------------*- C++ -*----------------------------------*\
| =========                 |                                                 |
| \\      /  F ield         | foam-extend: Open Source CFD                    |
|  \\    /   O peration     | Version:     5.0                                |
|   \\  /    A nd           | Web:         http://www.foam-extend.org         |
|    \\/     M anipulation  |                                                 |
\*---------------------------------------------------------------------------*/
FoamFile
{
    version     2.0;
    format      ascii;
    class       volVectorField;
    location    "8";
    object      U.water;
}
// * * * * * * * * * * * * * * * * * * * * * * * * * * * * * * * * * * * * * //

dimensions      [0 1 -1 0 0 0 0];

internalField   nonuniform List<vector> 
100
(
(3.61874e-05 0 0)
(8.34482e-05 0 0)
(0.000124598 0 0)
(0.000164582 0 0)
(0.000191395 0 0)
(0.000204219 0 0)
(0.000218553 0 0)
(0.000243435 0 0)
(0.000279696 0 0)
(0.000320972 0 0)
(0.000353185 0 0)
(0.000379864 0 0)
(0.000409401 0 0)
(0.000441634 0 0)
(0.000470538 0 0)
(0.000501422 0 0)
(0.000535662 0 0)
(0.000563986 0 0)
(0.000587929 0 0)
(0.000615328 0 0)
(0.000642052 0 0)
(0.000665717 0 0)
(0.000693061 0 0)
(0.000722398 0 0)
(0.000741283 0 0)
(0.000754294 0 0)
(0.000760968 0 0)
(0.000772104 0 0)
(0.000793966 0 0)
(0.000814795 0 0)
(0.000839007 0 0)
(0.000864819 0 0)
(0.000894828 0 0)
(0.000924449 0 0)
(0.000947715 0 0)
(0.000971691 0 0)
(0.000992842 0 0)
(0.00101171 0 0)
(0.00103165 0 0)
(0.00104963 0 0)
(0.00107052 0 0)
(0.00109514 0 0)
(0.00111658 0 0)
(0.00113575 0 0)
(0.00115631 0 0)
(0.00117796 0 0)
(0.00119593 0 0)
(0.00121172 0 0)
(0.00122733 0 0)
(0.00124646 0 0)
(0.00126736 0 0)
(0.00128997 0 0)
(0.00131161 0 0)
(0.00133227 0 0)
(0.00135487 0 0)
(0.00137504 0 0)
(0.00139048 0 0)
(0.00140959 0 0)
(0.00143216 0 0)
(0.00145384 0 0)
(0.00147163 0 0)
(0.00149341 0 0)
(0.00151651 0 0)
(0.00153662 0 0)
(0.00155313 0 0)
(0.0015716 0 0)
(0.00159287 0 0)
(0.00161853 0 0)
(0.00164516 0 0)
(0.00166425 0 0)
(0.00168586 0 0)
(0.00170829 0 0)
(0.00172886 0 0)
(0.00174796 0 0)
(0.00176611 0 0)
(0.00178477 0 0)
(0.00180345 0 0)
(0.0018228 0 0)
(0.00184164 0 0)
(0.00186081 0 0)
(0.00187513 0 0)
(0.00188852 0 0)
(0.00190449 0 0)
(0.00192368 0 0)
(0.00194577 0 0)
(0.00196889 0 0)
(0.0019877 0 0)
(0.00200542 0 0)
(0.00202229 0 0)
(0.0020388 0 0)
(0.00205236 0 0)
(0.0020719 0 0)
(0.00209745 0 0)
(0.00211947 0 0)
(0.00214058 0 0)
(0.00216205 0 0)
(0.00218432 0 0)
(0.00220629 0 0)
(0.00222628 0 0)
(0.00224579 0 0)
)
;

boundaryField
{
    inlet
    {
        type            fixedValue;
        value           uniform (0 0 0);
    }
    outlet
    {
        type            zeroGradient;
    }
    yzfaces
    {
        type            empty;
    }
}


// ************************************************************************* //
