/*--------------------------------*- C++ -*----------------------------------*\
| =========                 |                                                 |
| \\      /  F ield         | foam-extend: Open Source CFD                    |
|  \\    /   O peration     | Version:     5.0                                |
|   \\  /    A nd           | Web:         http://www.foam-extend.org         |
|    \\/     M anipulation  |                                                 |
\*---------------------------------------------------------------------------*/
FoamFile
{
    version     2.0;
    format      ascii;
    class       volScalarField;
    location    "6";
    object      alpha.water;
}
// * * * * * * * * * * * * * * * * * * * * * * * * * * * * * * * * * * * * * //

dimensions      [0 0 0 0 0 0 0];

internalField   nonuniform List<scalar> 
100
(
0.00110267
0.00185895
0.00245037
0.00306694
0.00364968
0.00420756
0.00466221
0.00508455
0.00559483
0.00616516
0.00671071
0.00721133
0.00766571
0.00806739
0.00849963
0.00902887
0.00951376
0.00991432
0.0103026
0.0107554
0.011214
0.0116135
0.011986
0.0124264
0.0128609
0.0132238
0.013616
0.0140562
0.0144082
0.0147783
0.0151883
0.01556
0.0159413
0.0163501
0.0167524
0.0171495
0.0175927
0.0180421
0.0185397
0.0191122
0.0196367
0.0201158
0.020579
0.0209884
0.0214059
0.0218195
0.0222232
0.02258
0.0229564
0.0232958
0.0236379
0.0239509
0.0242593
0.0245394
0.0248021
0.0249532
0.0249676
0.0249756
0.0249599
0.0249789
0.0249658
0.0249743
0.0249643
0.0249693
0.0249798
0.0249647
0.0249698
0.0249813
0.0251028
0.0252983
0.0254912
0.0256768
0.0259561
0.0261853
0.0264697
0.0267367
0.0270012
0.027259
0.0275589
0.0278602
0.0281562
0.0285232
0.0288686
0.0292361
0.0296528
0.0301039
0.030547
0.0309458
0.0313093
0.0316442
0.0319619
0.0322318
0.0325196
0.032804
0.0330598
0.033324
0.0335827
0.0338224
0.0340651
0.034247
)
;

boundaryField
{
    inlet
    {
        type            fixedValue;
        value           uniform 0;
    }
    outlet
    {
        type            zeroGradient;
    }
    yzfaces
    {
        type            empty;
    }
}


// ************************************************************************* //
