/*--------------------------------*- C++ -*----------------------------------*\
| =========                 |                                                 |
| \\      /  F ield         | foam-extend: Open Source CFD                    |
|  \\    /   O peration     | Version:     5.0                                |
|   \\  /    A nd           | Web:         http://www.foam-extend.org         |
|    \\/     M anipulation  |                                                 |
\*---------------------------------------------------------------------------*/
FoamFile
{
    version     2.0;
    format      ascii;
    class       volScalarField;
    location    "6";
    object      CO2.water;
}
// * * * * * * * * * * * * * * * * * * * * * * * * * * * * * * * * * * * * * //

dimensions      [0 0 0 0 0 0 0];

internalField   nonuniform List<scalar> 
100
(
2.89611e-05
4.88245e-05
6.43577e-05
8.05517e-05
9.58571e-05
0.00011051
0.000122451
0.000133543
0.000146946
0.000161925
0.000176254
0.000189402
0.000201336
0.000211886
0.000223239
0.000237139
0.000249875
0.000260395
0.000270593
0.000282485
0.00029453
0.000305023
0.000314807
0.000326374
0.000337786
0.000347316
0.000357617
0.000369179
0.000378425
0.000388146
0.000398915
0.000408676
0.000418691
0.000429428
0.000439993
0.000450424
0.000462063
0.000473868
0.000486936
0.000501972
0.000515749
0.000528332
0.000540497
0.000551252
0.000562216
0.000573079
0.000583683
0.000593053
0.00060294
0.000611853
0.000620839
0.000629058
0.000637159
0.000644517
0.000651416
0.000655385
0.000655762
0.000655973
0.000655561
0.000656058
0.000655716
0.000655938
0.000655675
0.000655806
0.000656083
0.000655687
0.00065582
0.000656122
0.000659313
0.000664447
0.000669515
0.00067439
0.000681724
0.000687744
0.000695213
0.000702227
0.000709173
0.000715944
0.000723821
0.000731735
0.00073951
0.000749148
0.000758221
0.000767872
0.000778817
0.000790664
0.000802303
0.000812777
0.000822325
0.000831121
0.000839465
0.000846553
0.000854113
0.000861581
0.000868301
0.000875241
0.000882035
0.000888329
0.000894705
0.000899481
)
;

boundaryField
{
    inlet
    {
        type            fixedValue;
        value           uniform 0;
    }
    outlet
    {
        type            zeroGradient;
    }
    yzfaces
    {
        type            empty;
    }
}


// ************************************************************************* //
