/*--------------------------------*- C++ -*----------------------------------*\
| =========                 |                                                 |
| \\      /  F ield         | foam-extend: Open Source CFD                    |
|  \\    /   O peration     | Version:     5.0                                |
|   \\  /    A nd           | Web:         http://www.foam-extend.org         |
|    \\/     M anipulation  |                                                 |
\*---------------------------------------------------------------------------*/
FoamFile
{
    version     2.0;
    format      ascii;
    class       volScalarField;
    location    "6";
    object      H2O.gas;
}
// * * * * * * * * * * * * * * * * * * * * * * * * * * * * * * * * * * * * * //

dimensions      [0 0 0 0 0 0 0];

internalField   nonuniform List<scalar> 
100
(
0.000387347
0.000385874
0.000384722
0.000383521
0.000382387
0.0003813
0.000380415
0.000379592
0.000378598
0.000377488
0.000376425
0.00037545
0.000374565
0.000373783
0.000372941
0.000371911
0.000370966
0.000370186
0.00036943
0.000368548
0.000367655
0.000366877
0.000366152
0.000365294
0.000364448
0.000363741
0.000362977
0.00036212
0.000361435
0.000360714
0.000359915
0.000359192
0.000358449
0.000357653
0.000356869
0.000356096
0.000355233
0.000354358
0.000353389
0.000352274
0.000351252
0.000350319
0.000349417
0.00034862
0.000347807
0.000347001
0.000346215
0.00034552
0.000344787
0.000344126
0.00034346
0.000342851
0.00034225
0.000341704
0.000341193
0.000340899
0.000340871
0.000340855
0.000340885
0.000340849
0.000340874
0.000340858
0.000340877
0.000340867
0.000340847
0.000340876
0.000340866
0.000340844
0.000340607
0.000340227
0.000339851
0.000339489
0.000338945
0.000338499
0.000337945
0.000337425
0.00033691
0.000336408
0.000335824
0.000335237
0.000334661
0.000333946
0.000333273
0.000332558
0.000331746
0.000330868
0.000330005
0.000329228
0.00032852
0.000327868
0.000327249
0.000326724
0.000326163
0.000325609
0.000325111
0.000324597
0.000324093
0.000323626
0.000323153
0.000322799
)
;

boundaryField
{
    inlet
    {
        type            fixedValue;
        value           uniform 0;
    }
    outlet
    {
        type            zeroGradient;
    }
    yzfaces
    {
        type            empty;
    }
}


// ************************************************************************* //
