/*--------------------------------*- C++ -*----------------------------------*\
| =========                 |                                                 |
| \\      /  F ield         | foam-extend: Open Source CFD                    |
|  \\    /   O peration     | Version:     5.0                                |
|   \\  /    A nd           | Web:         http://www.foam-extend.org         |
|    \\/     M anipulation  |                                                 |
\*---------------------------------------------------------------------------*/
FoamFile
{
    version     2.0;
    format      ascii;
    class       volScalarField;
    location    "6";
    object      H2O.water;
}
// * * * * * * * * * * * * * * * * * * * * * * * * * * * * * * * * * * * * * //

dimensions      [0 0 0 0 0 0 0];

internalField   nonuniform List<scalar> 
100
(
0.00107371
0.00181012
0.00238601
0.00298639
0.00355382
0.00409705
0.00453976
0.004951
0.00544788
0.00600323
0.00653446
0.00702193
0.00746437
0.0078555
0.00827639
0.00879173
0.00926388
0.00965392
0.010032
0.0104729
0.0109195
0.0113085
0.0116712
0.0121
0.0125231
0.0128765
0.0132584
0.013687
0.0140298
0.0143902
0.0147894
0.0151513
0.0155226
0.0159207
0.0163124
0.0166991
0.0171306
0.0175683
0.0180527
0.0186102
0.019121
0.0195874
0.0200385
0.0204372
0.0208437
0.0212464
0.0216395
0.0219869
0.0223535
0.0226839
0.0230171
0.0233218
0.0236221
0.0238949
0.0241507
0.0242978
0.0243118
0.0243197
0.0243044
0.0243228
0.0243101
0.0243183
0.0243086
0.0243135
0.0243237
0.024309
0.024314
0.0243252
0.0244435
0.0246338
0.0248217
0.0250024
0.0252743
0.0254975
0.0257744
0.0260345
0.026292
0.026543
0.026835
0.0271284
0.0274167
0.027774
0.0281104
0.0284682
0.028874
0.0293132
0.0297447
0.030133
0.030487
0.0308131
0.0311224
0.0313852
0.0316655
0.0319424
0.0321915
0.0324488
0.0327007
0.032934
0.0331704
0.0333475
)
;

boundaryField
{
    inlet
    {
        type            fixedValue;
        value           uniform 0;
    }
    outlet
    {
        type            zeroGradient;
    }
    yzfaces
    {
        type            empty;
    }
}


// ************************************************************************* //
