/*--------------------------------*- C++ -*----------------------------------*\
| =========                 |                                                 |
| \\      /  F ield         | foam-extend: Open Source CFD                    |
|  \\    /   O peration     | Version:     5.0                                |
|   \\  /    A nd           | Web:         http://www.foam-extend.org         |
|    \\/     M anipulation  |                                                 |
\*---------------------------------------------------------------------------*/
FoamFile
{
    version     2.0;
    format      ascii;
    class       surfaceScalarField;
    location    "6";
    object      phi;
}
// * * * * * * * * * * * * * * * * * * * * * * * * * * * * * * * * * * * * * //

dimensions      [0 3 -1 0 0 0 0];

internalField   nonuniform List<scalar> 
99
(
0.000122518
0.000122501
0.000122504
0.000122517
0.000122493
0.000122486
0.000122495
0.000122483
0.000122462
0.000122464
0.000122493
0.000122499
0.000122509
0.000122493
0.000122485
0.000122488
0.000122498
0.000122513
0.000122499
0.000122519
0.000122514
0.000122511
0.000122512
0.000122515
0.000122521
0.000122467
0.000122496
0.000122506
0.000122523
0.0001225
0.000122508
0.000122511
0.000122527
0.000122538
0.000122534
0.000122509
0.000122533
0.000122517
0.000122512
0.000122522
0.000122528
0.000122525
0.000122552
0.000122548
0.000122549
0.000122562
0.000122594
0.000122577
0.000122582
0.000122595
0.000122591
0.0001226
0.000122611
0.000122615
0.000122621
0.000122592
0.000122614
0.000122597
0.000122569
0.000122577
0.000122575
0.000122576
0.00012256
0.000122584
0.000122554
0.000122546
0.000122551
0.000122533
0.000122555
0.000122552
0.000122561
0.000122537
0.000122543
0.000122537
0.00012251
0.000122513
0.000122507
0.000122499
0.000122501
0.000122487
0.000122488
0.000122476
0.000122465
0.00012244
0.000122433
0.000122438
0.000122427
0.000122426
0.000122434
0.000122459
0.000122455
0.000122434
0.000122468
0.000122472
0.00012247
0.000122473
0.000122449
0.000122458
0.000122466
)
;

boundaryField
{
    inlet
    {
        type            calculated;
        value           uniform -0.0001225;
    }
    outlet
    {
        type            calculated;
        value           uniform 0.000122493;
    }
    yzfaces
    {
        type            empty;
    }
}


// ************************************************************************* //
