/*--------------------------------*- C++ -*----------------------------------*\
| =========                 |                                                 |
| \\      /  F ield         | foam-extend: Open Source CFD                    |
|  \\    /   O peration     | Version:     5.0                                |
|   \\  /    A nd           | Web:         http://www.foam-extend.org         |
|    \\/     M anipulation  |                                                 |
\*---------------------------------------------------------------------------*/
FoamFile
{
    version     2.0;
    format      ascii;
    class       surfaceScalarField;
    location    "6";
    object      phi.gas;
}
// * * * * * * * * * * * * * * * * * * * * * * * * * * * * * * * * * * * * * //

dimensions      [0 3 -1 0 0 0 0];

internalField   nonuniform List<scalar> 
99
(
0.000617154
0.000619156
0.000621067
0.000623017
0.000624695
0.000626294
0.000627741
0.000629165
0.000630814
0.000632683
0.000634553
0.00063614
0.000637585
0.000638838
0.000640386
0.000642118
0.00064369
0.000645079
0.000646439
0.000648089
0.000649502
0.000650852
0.000652247
0.000653777
0.000655113
0.000656144
0.000657861
0.000659273
0.000660589
0.000661836
0.000663288
0.000664669
0.000666167
0.00066768
0.000669069
0.000670463
0.000672236
0.000673858
0.00067583
0.000677915
0.000679779
0.000681524
0.000683343
0.000684861
0.000686431
0.000688085
0.000689684
0.000690959
0.000692386
0.000693788
0.00069503
0.000696287
0.00069751
0.000698585
0.000699392
0.000699556
0.000699723
0.00069955
0.00069944
0.000699522
0.000699491
0.000699493
0.00069941
0.000699579
0.000699363
0.000699326
0.000699362
0.000699525
0.000700302
0.000701039
0.000701816
0.000702579
0.000703622
0.000704602
0.000705564
0.000706686
0.000707695
0.000708776
0.000709985
0.000711099
0.000712471
0.000713801
0.00071516
0.000716637
0.000718414
0.000720309
0.000722007
0.000723624
0.000725131
0.000726624
0.000727824
0.000728909
0.000730337
0.000731467
0.000732558
0.000733674
0.000734617
0.000735737
0.000736685
)
;

boundaryField
{
    inlet
    {
        type            fixedValue;
        value           uniform -0.0006125;
    }
    outlet
    {
        type            calculated;
        value           uniform 0.00073723;
    }
    yzfaces
    {
        type            empty;
    }
}


// ************************************************************************* //
