/*--------------------------------*- C++ -*----------------------------------*\
| =========                 |                                                 |
| \\      /  F ield         | foam-extend: Open Source CFD                    |
|  \\    /   O peration     | Version:     5.0                                |
|   \\  /    A nd           | Web:         http://www.foam-extend.org         |
|    \\/     M anipulation  |                                                 |
\*---------------------------------------------------------------------------*/
FoamFile
{
    version     2.0;
    format      ascii;
    class       volVectorField;
    location    "6";
    object      U.water;
}
// * * * * * * * * * * * * * * * * * * * * * * * * * * * * * * * * * * * * * //

dimensions      [0 1 -1 0 0 0 0];

internalField   nonuniform List<vector> 
100
(
(7.91955e-05 0 0)
(0.000181503 0 0)
(0.000280443 0 0)
(0.000367204 0 0)
(0.000457718 0 0)
(0.000545059 0 0)
(0.000628494 0 0)
(0.000698412 0 0)
(0.000765901 0 0)
(0.000847539 0 0)
(0.000938358 0 0)
(0.001026 0 0)
(0.0011072 0 0)
(0.00118141 0 0)
(0.00124867 0 0)
(0.00132284 0 0)
(0.00141202 0 0)
(0.00149409 0 0)
(0.0015633 0 0)
(0.00163214 0 0)
(0.00171206 0 0)
(0.00179255 0 0)
(0.00186375 0 0)
(0.0019322 0 0)
(0.00201246 0 0)
(0.00209084 0 0)
(0.00215846 0 0)
(0.00223292 0 0)
(0.00231469 0 0)
(0.00238183 0 0)
(0.00245318 0 0)
(0.00253174 0 0)
(0.00260442 0 0)
(0.00267996 0 0)
(0.00276081 0 0)
(0.00284066 0 0)
(0.00292156 0 0)
(0.00301191 0 0)
(0.00310472 0 0)
(0.00320944 0 0)
(0.00332856 0 0)
(0.00343859 0 0)
(0.00354088 0 0)
(0.00363985 0 0)
(0.00372938 0 0)
(0.00382139 0 0)
(0.00391362 0 0)
(0.00400294 0 0)
(0.00408371 0 0)
(0.00416875 0 0)
(0.00424686 0 0)
(0.00432521 0 0)
(0.00439807 0 0)
(0.00446966 0 0)
(0.00453533 0 0)
(0.00459393 0 0)
(0.00462597 0 0)
(0.00462924 0 0)
(0.00462973 0 0)
(0.00462655 0 0)
(0.00463019 0 0)
(0.00462766 0 0)
(0.00462903 0 0)
(0.00462712 0 0)
(0.00462845 0 0)
(0.00462968 0 0)
(0.00462653 0 0)
(0.00462758 0 0)
(0.00463312 0 0)
(0.00466457 0 0)
(0.00471159 0 0)
(0.00475725 0 0)
(0.0048043 0 0)
(0.00487067 0 0)
(0.00492759 0 0)
(0.0049962 0 0)
(0.00506179 0 0)
(0.00512681 0 0)
(0.00519254 0 0)
(0.00526752 0 0)
(0.0053429 0 0)
(0.00542043 0 0)
(0.0055133 0 0)
(0.00560206 0 0)
(0.00569838 0 0)
(0.00580902 0 0)
(0.00592795 0 0)
(0.00604434 0 0)
(0.00615074 0 0)
(0.0062491 0 0)
(0.00634062 0 0)
(0.0064259 0 0)
(0.00650179 0 0)
(0.00658283 0 0)
(0.00666146 0 0)
(0.0067342 0 0)
(0.00680857 0 0)
(0.00688134 0 0)
(0.00695098 0 0)
(0.00701882 0 0)
)
;

boundaryField
{
    inlet
    {
        type            fixedValue;
        value           uniform (0 0 0);
    }
    outlet
    {
        type            zeroGradient;
    }
    yzfaces
    {
        type            empty;
    }
}


// ************************************************************************* //
