/*--------------------------------*- C++ -*----------------------------------*\
| =========                 |                                                 |
| \\      /  F ield         | foam-extend: Open Source CFD                    |
|  \\    /   O peration     | Version:     5.0                                |
|   \\  /    A nd           | Web:         http://www.foam-extend.org         |
|    \\/     M anipulation  |                                                 |
\*---------------------------------------------------------------------------*/
FoamFile
{
    version     2.0;
    format      ascii;
    class       volScalarField;
    location    "1";
    object      alpha.gas;
}
// * * * * * * * * * * * * * * * * * * * * * * * * * * * * * * * * * * * * * //

dimensions      [0 0 0 0 0 0 0];

internalField   nonuniform List<scalar> 
100
(
0.112997
0.0937381
0.0816219
0.0721774
0.0647118
0.0573929
0.049055
0.0379513
0.0180031
0.035709
0.0354944
0.0351457
0.0344911
0.0334565
0.0320919
0.0303657
0.0283543
0.0260686
0.0235929
0.0209681
0.0183534
0.0159442
0.0139208
0.0124038
0.0113848
0.0107557
0.0104007
0.010205
0.0101066
0.0100551
0.0100268
0.0100127
0.010006
0.0100044
0.010003
0.0100003
0.00999924
0.00999913
0.00999481
0.00999601
0.0099949
0.00999502
0.00999521
0.00999552
0.00999919
0.00999775
0.0099983
0.00999967
0.0100036
0.0100019
0.0100056
0.0100108
0.0100037
0.00999932
0.0100008
0.0100041
0.0100048
0.0100027
0.0100069
0.0100064
0.0100051
0.0100052
0.010004
0.0100033
0.0100074
0.0100054
0.0100035
0.0100027
0.0100029
0.0100025
0.00999997
0.0100022
0.0100032
0.0100019
0.0100005
0.0099997
0.0099974
0.0099988
0.00999997
0.010001
0.0100005
0.00999963
0.00999923
0.00999873
0.00999731
0.00999724
0.00999992
0.0100007
0.00999841
0.0099983
0.00999864
0.0099993
0.00999939
0.00999928
0.0100005
0.0100028
0.0100038
0.0100021
0.0100046
0.010008
)
;

boundaryField
{
    inlet
    {
        type            fixedValue;
        value           uniform 0.2;
    }
    outlet
    {
        type            zeroGradient;
    }
    yzfaces
    {
        type            empty;
    }
}


// ************************************************************************* //
