/*--------------------------------*- C++ -*----------------------------------*\
| =========                 |                                                 |
| \\      /  F ield         | foam-extend: Open Source CFD                    |
|  \\    /   O peration     | Version:     5.0                                |
|   \\  /    A nd           | Web:         http://www.foam-extend.org         |
|    \\/     M anipulation  |                                                 |
\*---------------------------------------------------------------------------*/
FoamFile
{
    version     2.0;
    format      ascii;
    class       volScalarField;
    location    "1";
    object      Cl.water;
}
// * * * * * * * * * * * * * * * * * * * * * * * * * * * * * * * * * * * * * //

dimensions      [0 0 0 0 0 0 0];

internalField   nonuniform List<scalar> 
100
(
0.00998096
0.0121748
0.0135789
0.0146649
0.0155246
0.0163369
0.017258
0.0184303
0.0205344
0.0188804
0.0188906
0.0189398
0.0190066
0.0191224
0.01929
0.0194903
0.0196988
0.0199726
0.0202386
0.020558
0.0208577
0.0211346
0.0213788
0.0215413
0.0216543
0.0217344
0.0217761
0.0217828
0.021804
0.0218076
0.0218085
0.0218103
0.0218129
0.0218154
0.0218166
0.0218288
0.0218117
0.0218085
0.0218228
0.021813
0.0218217
0.021803
0.0218095
0.0218256
0.0218099
0.0218201
0.021821
0.0218157
0.0217958
0.021823
0.0218177
0.0218168
0.0218245
0.0218224
0.0218193
0.02182
0.0218181
0.0218053
0.0218083
0.0218267
0.0218119
0.0218131
0.021814
0.0218071
0.0218194
0.0218212
0.0218163
0.0218161
0.0218196
0.0218275
0.0218136
0.0218158
0.0218142
0.0218196
0.0218191
0.0218027
0.0218049
0.0218089
0.0218104
0.0218141
0.0218204
0.0218233
0.0218264
0.0218374
0.021817
0.0218211
0.0218206
0.0218155
0.0218252
0.0218154
0.0218075
0.0218068
0.0218153
0.0218234
0.0218131
0.0218203
0.0218156
0.0218198
0.0218313
0.0218205
)
;

boundaryField
{
    inlet
    {
        type            fixedValue;
        value           uniform 0;
    }
    outlet
    {
        type            zeroGradient;
    }
    yzfaces
    {
        type            empty;
    }
}


// ************************************************************************* //
