/*--------------------------------*- C++ -*----------------------------------*\
| =========                 |                                                 |
| \\      /  F ield         | foam-extend: Open Source CFD                    |
|  \\    /   O peration     | Version:     5.0                                |
|   \\  /    A nd           | Web:         http://www.foam-extend.org         |
|    \\/     M anipulation  |                                                 |
\*---------------------------------------------------------------------------*/
FoamFile
{
    version     2.0;
    format      ascii;
    class       volScalarField;
    location    "1";
    object      H2O.gas;
}
// * * * * * * * * * * * * * * * * * * * * * * * * * * * * * * * * * * * * * //

dimensions      [0 0 0 0 0 0 0];

internalField   nonuniform List<scalar> 
100
(
0.000220058
0.000144326
0.00013798
0.000140563
0.000126024
0.000111771
9.55333e-05
7.39091e-05
3.50605e-05
0.00197573
0.00350479
0.00533349
0.00739751
0.00958773
0.0117866
0.0138093
0.015506
0.0166617
0.0171993
0.0169716
0.0161134
0.0148333
0.0134309
0.0122189
0.0113232
0.0107335
0.0103933
0.0102068
0.0101063
0.0100537
0.0100277
0.0100137
0.0100049
0.0100008
0.0099996
0.0100007
0.0099944
0.00999699
0.009998
0.00999668
0.0100027
0.00999252
0.00999324
0.0100003
0.010001
0.0100019
0.0100019
0.010001
0.00999738
0.0100051
0.0100062
0.010011
0.0100039
0.0100007
0.0100021
0.0100059
0.0100075
0.010007
0.0100099
0.0100032
0.0100077
0.0100056
0.0100039
0.0100047
0.0100061
0.0100026
0.0100036
0.010004
0.0100035
0.00999896
0.0100008
0.0100009
0.010002
0.0100042
0.010004
0.00999457
0.00999406
0.00999484
0.00999718
0.0100001
0.0100002
0.010002
0.010002
0.0100047
0.00999799
0.00999778
0.00999934
0.0099994
0.0100023
0.00999682
0.00999396
0.00999219
0.00999728
0.0100011
0.00999914
0.0100009
0.0100049
0.0100013
0.0100002
0.0100057
)
;

boundaryField
{
    inlet
    {
        type            fixedValue;
        value           uniform 0;
    }
    outlet
    {
        type            zeroGradient;
    }
    yzfaces
    {
        type            empty;
    }
}


// ************************************************************************* //
