/*--------------------------------*- C++ -*----------------------------------*\
| =========                 |                                                 |
| \\      /  F ield         | foam-extend: Open Source CFD                    |
|  \\    /   O peration     | Version:     5.0                                |
|   \\  /    A nd           | Web:         http://www.foam-extend.org         |
|    \\/     M anipulation  |                                                 |
\*---------------------------------------------------------------------------*/
FoamFile
{
    version     2.0;
    format      ascii;
    class       volScalarField;
    location    "1";
    object      Na.water;
}
// * * * * * * * * * * * * * * * * * * * * * * * * * * * * * * * * * * * * * //

dimensions      [0 0 0 0 0 0 0];

internalField   nonuniform List<scalar> 
100
(
0.00998126
0.0121696
0.0135772
0.0146691
0.0155194
0.0163288
0.01725
0.0184284
0.0205346
0.0188849
0.0188932
0.0189405
0.0190055
0.0191184
0.019286
0.0194885
0.019704
0.0199776
0.0202417
0.0205619
0.0208571
0.0211295
0.0213753
0.0215367
0.0216529
0.0217353
0.0217752
0.0217896
0.0218088
0.0218127
0.0218138
0.0218173
0.0218101
0.0218075
0.0218109
0.0218226
0.0218111
0.0218141
0.0218322
0.0218258
0.0218369
0.0218154
0.0218192
0.0218342
0.0218239
0.0218324
0.0218333
0.0218282
0.0218056
0.0218295
0.021821
0.02181
0.0218109
0.0218076
0.021811
0.0218075
0.021805
0.0218092
0.0218128
0.0218246
0.0218114
0.0218213
0.0218231
0.021822
0.0218245
0.0218301
0.02182
0.021815
0.0218142
0.0218262
0.0218186
0.021823
0.0218225
0.0218309
0.021826
0.0218039
0.0218084
0.0218066
0.021809
0.0218163
0.0218166
0.0218245
0.021833
0.0218338
0.0218224
0.0218211
0.0218225
0.0218207
0.0218301
0.0218212
0.0218099
0.0218039
0.0218146
0.0218233
0.0218148
0.0218251
0.0218149
0.0218206
0.021827
0.0218281
)
;

boundaryField
{
    inlet
    {
        type            fixedValue;
        value           uniform 0;
    }
    outlet
    {
        type            zeroGradient;
    }
    yzfaces
    {
        type            empty;
    }
}


// ************************************************************************* //
