/*--------------------------------*- C++ -*----------------------------------*\
| =========                 |                                                 |
| \\      /  F ield         | foam-extend: Open Source CFD                    |
|  \\    /   O peration     | Version:     5.0                                |
|   \\  /    A nd           | Web:         http://www.foam-extend.org         |
|    \\/     M anipulation  |                                                 |
\*---------------------------------------------------------------------------*/
FoamFile
{
    version     2.0;
    format      ascii;
    class       volScalarField;
    location    "1";
    object      Ns;
}
// * * * * * * * * * * * * * * * * * * * * * * * * * * * * * * * * * * * * * //

dimensions      [0 -3 0 0 1 0 0];

internalField   nonuniform List<scalar> 
100
(
3.15705
3.83867
2.01092
3.64424
4.39532
13.928
25.6247
57.7232
117.437
172.199
175.403
171.741
172.212
172.599
173.925
172.765
173.849
171.142
175.713
171.68
172.108
175.405
174.212
172.435
173.991
169.883
172.157
174.596
170.667
173.933
173.258
171.876
172.864
173.411
165.165
169.482
171.72
173.023
172.115
174.461
172.895
170.868
173.273
170.635
174.275
171.106
173.805
171.301
173.676
173.735
173.31
173.976
171.974
173.972
173.734
173.11
170.126
172.911
176.67
171.022
173.788
171.519
174.383
172.884
177.316
175.846
174.442
171.921
174.505
172.928
174.629
173.217
172.227
174.468
175.227
173.595
172.903
174.162
173.695
175.048
172.62
174.516
168.443
174.226
172.923
170.808
173.913
172.331
171.834
172.299
171.997
173.455
172.221
174.928
173.011
173.084
174.07
171.989
172.587
172.329
)
;

boundaryField
{
    inlet
    {
        type            fixedValue;
        value           uniform 0;
    }
    outlet
    {
        type            zeroGradient;
    }
    yzfaces
    {
        type            empty;
    }
}


// ************************************************************************* //
