/*--------------------------------*- C++ -*----------------------------------*\
| =========                 |                                                 |
| \\      /  F ield         | foam-extend: Open Source CFD                    |
|  \\    /   O peration     | Version:     5.0                                |
|   \\  /    A nd           | Web:         http://www.foam-extend.org         |
|    \\/     M anipulation  |                                                 |
\*---------------------------------------------------------------------------*/
FoamFile
{
    version     2.0;
    format      ascii;
    class       surfaceScalarField;
    location    "1";
    object      phi;
}
// * * * * * * * * * * * * * * * * * * * * * * * * * * * * * * * * * * * * * //

dimensions      [0 3 -1 0 0 0 0];

internalField   nonuniform List<scalar> 
99
(
1.22611e-06
1.2182e-06
1.21642e-06
1.22169e-06
1.21986e-06
1.21893e-06
1.21714e-06
1.20907e-06
1.2206e-06
1.22367e-06
1.22423e-06
1.2254e-06
1.22474e-06
1.22595e-06
1.22631e-06
1.22815e-06
1.22703e-06
1.22779e-06
1.22495e-06
1.22476e-06
1.22446e-06
1.22379e-06
1.22461e-06
1.22288e-06
1.22168e-06
1.22204e-06
1.22277e-06
1.22143e-06
1.22123e-06
1.22191e-06
1.22052e-06
1.22054e-06
1.2193e-06
1.2182e-06
1.21935e-06
1.21918e-06
1.2203e-06
1.21958e-06
1.21782e-06
1.21958e-06
1.21815e-06
1.21831e-06
1.21839e-06
1.21718e-06
1.21588e-06
1.2149e-06
1.21457e-06
1.21364e-06
1.21547e-06
1.21456e-06
1.21464e-06
1.21411e-06
1.21492e-06
1.21498e-06
1.21454e-06
1.21351e-06
1.21301e-06
1.21155e-06
1.21057e-06
1.21189e-06
1.21146e-06
1.21171e-06
1.21162e-06
1.21203e-06
1.21272e-06
1.21324e-06
1.21319e-06
1.21232e-06
1.21098e-06
1.21295e-06
1.21272e-06
1.21201e-06
1.21216e-06
1.21207e-06
1.21174e-06
1.2125e-06
1.2138e-06
1.21451e-06
1.21739e-06
1.21801e-06
1.21928e-06
1.21799e-06
1.21814e-06
1.21885e-06
1.21795e-06
1.21744e-06
1.21713e-06
1.21862e-06
1.21815e-06
1.21632e-06
1.21668e-06
1.2193e-06
1.22073e-06
1.22022e-06
1.21977e-06
1.22107e-06
1.22054e-06
1.22014e-06
1.22103e-06
)
;

boundaryField
{
    inlet
    {
        type            calculated;
        value           uniform -1.225e-06;
    }
    outlet
    {
        type            calculated;
        value           uniform 1.22237e-06;
    }
    yzfaces
    {
        type            empty;
    }
}


// ************************************************************************* //
