/*--------------------------------*- C++ -*----------------------------------*\
| =========                 |                                                 |
| \\      /  F ield         | foam-extend: Open Source CFD                    |
|  \\    /   O peration     | Version:     5.0                                |
|   \\  /    A nd           | Web:         http://www.foam-extend.org         |
|    \\/     M anipulation  |                                                 |
\*---------------------------------------------------------------------------*/
FoamFile
{
    version     2.0;
    format      ascii;
    class       volScalarField;
    location    "1";
    object      S.gas;
}
// * * * * * * * * * * * * * * * * * * * * * * * * * * * * * * * * * * * * * //

dimensions      [0 0 0 0 0 0 0];

internalField   nonuniform List<scalar> 
100
(
0.565222
0.46869
0.40811
0.362719
0.324242
0.288855
0.24846
0.195596
0.181871
0.178545
0.177472
0.175728
0.172456
0.167283
0.160459
0.151828
0.141772
0.130343
0.117964
0.10484
0.0917672
0.0797208
0.0696038
0.0620188
0.0569242
0.0537786
0.0520036
0.0510251
0.0505329
0.0502756
0.0501341
0.0500636
0.0500299
0.0500221
0.050015
0.0500016
0.0499962
0.0499957
0.049974
0.0499801
0.0499745
0.0499751
0.0499761
0.0499776
0.049996
0.0499887
0.0499915
0.0499983
0.0500182
0.0500095
0.0500279
0.0500539
0.0500185
0.0499966
0.0500038
0.0500207
0.0500242
0.0500137
0.0500344
0.050032
0.0500256
0.0500262
0.0500198
0.0500167
0.0500368
0.0500271
0.0500175
0.0500133
0.0500146
0.0500124
0.0499999
0.050011
0.0500159
0.0500096
0.0500025
0.0499985
0.049987
0.049994
0.0499998
0.0500048
0.0500027
0.0499982
0.0499962
0.0499937
0.0499865
0.0499862
0.0499996
0.0500035
0.0499921
0.0499915
0.0499932
0.0499965
0.0499969
0.0499964
0.0500026
0.0500141
0.050019
0.0500105
0.050023
0.0500401
)
;

boundaryField
{
    inlet
    {
        type            calculated;
        value           uniform 1;
    }
    outlet
    {
        type            calculated;
        value           uniform 0.0500401;
    }
    yzfaces
    {
        type            empty;
    }
}


// ************************************************************************* //
