/*--------------------------------*- C++ -*----------------------------------*\
| =========                 |                                                 |
| \\      /  F ield         | foam-extend: Open Source CFD                    |
|  \\    /   O peration     | Version:     5.0                                |
|   \\  /    A nd           | Web:         http://www.foam-extend.org         |
|    \\/     M anipulation  |                                                 |
\*---------------------------------------------------------------------------*/
FoamFile
{
    version     2.0;
    format      ascii;
    class       volVectorField;
    location    "1";
    object      U.gas;
}
// * * * * * * * * * * * * * * * * * * * * * * * * * * * * * * * * * * * * * //

dimensions      [0 1 -1 0 0 0 0];

internalField   nonuniform List<vector> 
100
(
(0.0087063 0 0)
(0.0101086 0 0)
(0.011111 0 0)
(0.0119621 0 0)
(0.0126998 0 0)
(0.0133181 0 0)
(0.014025 0 0)
(0.0147888 0 0)
(0.0132902 0 0)
(0.0128398 0 0)
(0.0127287 0 0)
(0.0127288 0 0)
(0.0127252 0 0)
(0.0126846 0 0)
(0.0125774 0 0)
(0.0124036 0 0)
(0.0121065 0 0)
(0.0116802 0 0)
(0.0110934 0 0)
(0.0103452 0 0)
(0.00944257 0 0)
(0.00842762 0 0)
(0.00740627 0 0)
(0.00648913 0 0)
(0.00577197 0 0)
(0.00528849 0 0)
(0.00499296 0 0)
(0.00482533 0 0)
(0.00473046 0 0)
(0.0046845 0 0)
(0.00465961 0 0)
(0.00464454 0 0)
(0.00463542 0 0)
(0.00462811 0 0)
(0.00462722 0 0)
(0.00462826 0 0)
(0.00462869 0 0)
(0.00462871 0 0)
(0.00462455 0 0)
(0.00462254 0 0)
(0.00462313 0 0)
(0.00462018 0 0)
(0.00462132 0 0)
(0.00462032 0 0)
(0.00461511 0 0)
(0.00461124 0 0)
(0.00460854 0 0)
(0.00460691 0 0)
(0.00460887 0 0)
(0.0046121 0 0)
(0.00460971 0 0)
(0.00461156 0 0)
(0.00461474 0 0)
(0.00461231 0 0)
(0.00460932 0 0)
(0.00460689 0 0)
(0.00460544 0 0)
(0.00460218 0 0)
(0.00459678 0 0)
(0.00459908 0 0)
(0.00460057 0 0)
(0.00459967 0 0)
(0.00460038 0 0)
(0.00460039 0 0)
(0.00460231 0 0)
(0.0046068 0 0)
(0.00460656 0 0)
(0.00460385 0 0)
(0.00459888 0 0)
(0.00460047 0 0)
(0.00460421 0 0)
(0.00460104 0 0)
(0.0046005 0 0)
(0.00460189 0 0)
(0.00460001 0 0)
(0.00459889 0 0)
(0.00460272 0 0)
(0.00460602 0 0)
(0.00461356 0 0)
(0.00462079 0 0)
(0.00462529 0 0)
(0.00462502 0 0)
(0.00462218 0 0)
(0.00462324 0 0)
(0.0046234 0 0)
(0.00462052 0 0)
(0.00461749 0 0)
(0.00462105 0 0)
(0.00462364 0 0)
(0.00461834 0 0)
(0.00461595 0 0)
(0.00462134 0 0)
(0.00462905 0 0)
(0.00463056 0 0)
(0.00462916 0 0)
(0.00463099 0 0)
(0.0046336 0 0)
(0.00463363 0 0)
(0.0046338 0 0)
(0.00463875 0 0)
)
;

boundaryField
{
    inlet
    {
        type            fixedValue;
        value           uniform (0.005 0 0);
    }
    outlet
    {
        type            zeroGradient;
    }
    yzfaces
    {
        type            empty;
    }
}


// ************************************************************************* //
