/*--------------------------------*- C++ -*----------------------------------*\
| =========                 |                                                 |
| \\      /  F ield         | foam-extend: Open Source CFD                    |
|  \\    /   O peration     | Version:     5.0                                |
|   \\  /    A nd           | Web:         http://www.foam-extend.org         |
|    \\/     M anipulation  |                                                 |
\*---------------------------------------------------------------------------*/
FoamFile
{
    version     2.0;
    format      ascii;
    class       volVectorField;
    location    "1";
    object      U.water;
}
// * * * * * * * * * * * * * * * * * * * * * * * * * * * * * * * * * * * * * //

dimensions      [0 1 -1 0 0 0 0];

internalField   nonuniform List<vector> 
100
(
(0.000186942 0 0)
(0.000471626 0 0)
(0.000733404 0 0)
(0.000999348 0 0)
(0.00127997 0 0)
(0.00158915 0 0)
(0.00197848 0 0)
(0.00255944 0 0)
(0.00310638 0 0)
(0.00328178 0 0)
(0.00332721 0 0)
(0.00335135 0 0)
(0.00339045 0 0)
(0.00345795 0 0)
(0.00355724 0 0)
(0.00368542 0 0)
(0.00383839 0 0)
(0.00401012 0 0)
(0.0041914 0 0)
(0.00437331 0 0)
(0.00454938 0 0)
(0.0046992 0 0)
(0.00481647 0 0)
(0.00489608 0 0)
(0.00494163 0 0)
(0.00497005 0 0)
(0.0049892 0 0)
(0.0049969 0 0)
(0.00499856 0 0)
(0.00500195 0 0)
(0.00500168 0 0)
(0.00499952 0 0)
(0.00499737 0 0)
(0.00499272 0 0)
(0.00499287 0 0)
(0.00499493 0 0)
(0.00499696 0 0)
(0.00499781 0 0)
(0.00499268 0 0)
(0.00499277 0 0)
(0.00499346 0 0)
(0.00499089 0 0)
(0.00499135 0 0)
(0.00498898 0 0)
(0.00498387 0 0)
(0.00497917 0 0)
(0.00497649 0 0)
(0.00497388 0 0)
(0.00497573 0 0)
(0.00497753 0 0)
(0.00497587 0 0)
(0.00497481 0 0)
(0.00497523 0 0)
(0.00497722 0 0)
(0.00497657 0 0)
(0.00497355 0 0)
(0.00497035 0 0)
(0.00496629 0 0)
(0.00496133 0 0)
(0.00496195 0 0)
(0.00496379 0 0)
(0.00496346 0 0)
(0.00496375 0 0)
(0.00496443 0 0)
(0.00496671 0 0)
(0.00496906 0 0)
(0.00497006 0 0)
(0.00496823 0 0)
(0.00496375 0 0)
(0.00496503 0 0)
(0.00496857 0 0)
(0.00496672 0 0)
(0.00496555 0 0)
(0.00496561 0 0)
(0.0049648 0 0)
(0.00496577 0 0)
(0.00496998 0 0)
(0.00497413 0 0)
(0.00498144 0 0)
(0.00498858 0 0)
(0.00499241 0 0)
(0.00499239 0 0)
(0.00499009 0 0)
(0.00499188 0 0)
(0.00499146 0 0)
(0.00498857 0 0)
(0.00498697 0 0)
(0.00498932 0 0)
(0.00499138 0 0)
(0.00498672 0 0)
(0.0049837 0 0)
(0.00498983 0 0)
(0.00499811 0 0)
(0.005 0 0)
(0.00499803 0 0)
(0.00499976 0 0)
(0.00500128 0 0)
(0.00499928 0 0)
(0.00500031 0 0)
(0.00500483 0 0)
)
;

boundaryField
{
    inlet
    {
        type            fixedValue;
        value           uniform (0 0 0);
    }
    outlet
    {
        type            zeroGradient;
    }
    yzfaces
    {
        type            empty;
    }
}


// ************************************************************************* //
