/*--------------------------------*- C++ -*----------------------------------*\
| =========                 |                                                 |
| \\      /  F ield         | foam-extend: Open Source CFD                    |
|  \\    /   O peration     | Version:     5.0                                |
|   \\  /    A nd           | Web:         http://www.foam-extend.org         |
|    \\/     M anipulation  |                                                 |
\*---------------------------------------------------------------------------*/
FoamFile
{
    version     2.0;
    format      ascii;
    class       volScalarField;
    location    "5";
    object      alpha.gas;
}
// * * * * * * * * * * * * * * * * * * * * * * * * * * * * * * * * * * * * * //

dimensions      [0 0 0 0 0 0 0];

internalField   nonuniform List<scalar> 
100
(
0.156632
0.142236
0.132412
0.124938
0.11892
0.113894
0.109261
0.10556
0.102033
0.0989617
0.0960894
0.093281
0.0910281
0.0887788
0.086883
0.0854282
0.0839052
0.082675
0.0817857
0.0802329
0.0793748
0.0782907
0.0770621
0.0757898
0.0746424
0.0735483
0.0723399
0.0715306
0.0705561
0.0694434
0.0684893
0.0673564
0.0663897
0.0654514
0.0647397
0.0638833
0.0631172
0.062409
0.0617109
0.0610182
0.0603044
0.0596521
0.059084
0.058397
0.0577087
0.0570068
0.0563667
0.0557294
0.0550482
0.0543272
0.0537881
0.053097
0.0524524
0.0517478
0.0511018
0.0504456
0.0498501
0.0492862
0.048635
0.0480003
0.0474426
0.0468769
0.0462863
0.0457515
0.0450991
0.0444519
0.0438573
0.043205
0.0425466
0.0418959
0.041249
0.0405557
0.0398328
0.0390841
0.0383195
0.0375203
0.0366759
0.0358083
0.0348759
0.0339044
0.0328627
0.0317458
0.0305513
0.0292487
0.0278082
0.0262616
0.0245848
0.0227927
0.0209163
0.0189928
0.017101
0.015343
0.0138194
0.0125949
0.0116893
0.0110579
0.0106426
0.0103848
0.0102289
0.0101337
)
;

boundaryField
{
    inlet
    {
        type            fixedValue;
        value           uniform 0.2;
    }
    outlet
    {
        type            zeroGradient;
    }
    yzfaces
    {
        type            empty;
    }
}


// ************************************************************************* //
