/*--------------------------------*- C++ -*----------------------------------*\
| =========                 |                                                 |
| \\      /  F ield         | foam-extend: Open Source CFD                    |
|  \\    /   O peration     | Version:     5.0                                |
|   \\  /    A nd           | Web:         http://www.foam-extend.org         |
|    \\/     M anipulation  |                                                 |
\*---------------------------------------------------------------------------*/
FoamFile
{
    version     2.0;
    format      ascii;
    class       volScalarField;
    location    "5";
    object      Cl.water;
}
// * * * * * * * * * * * * * * * * * * * * * * * * * * * * * * * * * * * * * //

dimensions      [0 0 0 0 0 0 0];

internalField   nonuniform List<scalar> 
100
(
0.00915664
0.0122603
0.0142633
0.0158715
0.017076
0.0181628
0.0189913
0.0198217
0.0204548
0.021087
0.0216751
0.0222545
0.022777
0.0232157
0.0236593
0.0240644
0.0243909
0.0247753
0.0250437
0.0252492
0.0255711
0.0257919
0.0259653
0.0262451
0.0264588
0.0266824
0.0269131
0.0271159
0.027289
0.0274563
0.027685
0.0278735
0.0281383
0.0283354
0.0285353
0.0286381
0.0288841
0.0290114
0.0291775
0.0292823
0.0294383
0.0296326
0.0297876
0.0298807
0.0300172
0.0301571
0.0302658
0.0304344
0.0305529
0.0306333
0.0307293
0.0308985
0.0309938
0.0311522
0.031299
0.0314215
0.0316417
0.0317558
0.0318557
0.0319594
0.032187
0.0323257
0.0324057
0.0325611
0.0326423
0.0327649
0.0328991
0.033012
0.0331446
0.0332967
0.0334054
0.0335494
0.0337015
0.0338879
0.0340463
0.0342145
0.0343799
0.0345597
0.0347564
0.0349133
0.0351611
0.0354116
0.0356351
0.0359154
0.0361902
0.036525
0.0368634
0.0372625
0.0376622
0.0380972
0.0384819
0.0388501
0.0391859
0.0394407
0.0396188
0.039806
0.0398377
0.0399109
0.0399947
0.0399775
)
;

boundaryField
{
    inlet
    {
        type            fixedValue;
        value           uniform 0;
    }
    outlet
    {
        type            zeroGradient;
    }
    yzfaces
    {
        type            empty;
    }
}


// ************************************************************************* //
