/*--------------------------------*- C++ -*----------------------------------*\
| =========                 |                                                 |
| \\      /  F ield         | foam-extend: Open Source CFD                    |
|  \\    /   O peration     | Version:     5.0                                |
|   \\  /    A nd           | Web:         http://www.foam-extend.org         |
|    \\/     M anipulation  |                                                 |
\*---------------------------------------------------------------------------*/
FoamFile
{
    version     2.0;
    format      ascii;
    class       volScalarField;
    location    "5";
    object      CO2.gas;
}
// * * * * * * * * * * * * * * * * * * * * * * * * * * * * * * * * * * * * * //

dimensions      [0 0 0 0 0 0 0];

internalField   nonuniform List<scalar> 
100
(
0.157098
0.143409
0.132767
0.1255
0.118944
0.114093
0.108627
0.105256
0.10128
0.0981512
0.0952565
0.0924161
0.0904124
0.0880464
0.0863572
0.0852469
0.0837207
0.0829243
0.08225
0.0803028
0.0798696
0.0787411
0.0772802
0.0760448
0.0748363
0.0737106
0.0724847
0.0717625
0.0707131
0.0694023
0.0685091
0.0672476
0.0664461
0.0654925
0.0648642
0.0638311
0.0632336
0.0624503
0.0617418
0.0609394
0.0602291
0.0596281
0.0590831
0.058239
0.0574581
0.056641
0.0558405
0.0551054
0.0541968
0.0531277
0.052297
0.0513405
0.0502607
0.0491941
0.048089
0.0468804
0.0458196
0.0445622
0.0431173
0.0416248
0.0402943
0.0387533
0.0370483
0.0354301
0.033561
0.0316748
0.0298173
0.0278478
0.0258858
0.0239395
0.0219618
0.0200114
0.0180936
0.0162422
0.0144446
0.0127105
0.0110713
0.00953349
0.00810215
0.00678455
0.00560758
0.00454917
0.00361407
0.0028065
0.00211571
0.00154623
0.00108544
0.000726997
0.000459795
0.000271511
0.000147477
7.30508e-05
3.26935e-05
1.32147e-05
4.87896e-06
1.68649e-06
5.62522e-07
1.89305e-07
6.71141e-08
3.06712e-08
)
;

boundaryField
{
    inlet
    {
        type            fixedValue;
        value           uniform 0.2;
    }
    outlet
    {
        type            zeroGradient;
    }
    yzfaces
    {
        type            empty;
    }
}


// ************************************************************************* //
