/*--------------------------------*- C++ -*----------------------------------*\
| =========                 |                                                 |
| \\      /  F ield         | foam-extend: Open Source CFD                    |
|  \\    /   O peration     | Version:     5.0                                |
|   \\  /    A nd           | Web:         http://www.foam-extend.org         |
|    \\/     M anipulation  |                                                 |
\*---------------------------------------------------------------------------*/
FoamFile
{
    version     2.0;
    format      ascii;
    class       volScalarField;
    location    "5";
    object      H2O.gas;
}
// * * * * * * * * * * * * * * * * * * * * * * * * * * * * * * * * * * * * * //

dimensions      [0 0 0 0 0 0 0];

internalField   nonuniform List<scalar> 
100
(
6.80153e-16
5.91416e-15
2.99435e-14
1.20635e-13
4.05013e-13
1.2307e-12
3.32858e-12
8.5643e-12
2.04699e-11
4.68415e-11
1.02608e-10
2.17752e-10
4.51523e-10
9.04134e-10
1.77458e-09
3.40558e-09
6.31638e-09
1.15405e-08
2.05957e-08
3.54818e-08
6.09145e-08
1.01461e-07
1.64655e-07
2.64012e-07
4.16953e-07
6.49842e-07
9.97888e-07
1.52154e-06
2.2791e-06
3.35834e-06
4.9169e-06
7.08473e-06
1.01675e-05
1.44102e-05
2.03096e-05
2.81784e-05
3.90325e-05
5.33307e-05
7.22601e-05
9.67741e-05
0.000128687
0.000169841
0.000222462
0.000287885
0.000369536
0.00047072
0.000594484
0.000746851
0.000929095
0.00114341
0.00140362
0.00170855
0.00205905
0.00246638
0.00293583
0.00346423
0.00408124
0.00475686
0.00549413
0.00631132
0.0072503
0.00824548
0.00928442
0.0104316
0.0115861
0.0128022
0.0140796
0.0153626
0.0166616
0.0179792
0.019264
0.0205101
0.0217118
0.0228497
0.0238789
0.0248061
0.0255888
0.0262628
0.0267497
0.0270535
0.0272268
0.0271844
0.0269053
0.0264289
0.0256566
0.0246904
0.0234678
0.0220469
0.0204403
0.0187246
0.0169506
0.0152677
0.0137868
0.0125806
0.0116788
0.0110652
0.0106355
0.0103801
0.0102344
0.0101327
)
;

boundaryField
{
    inlet
    {
        type            fixedValue;
        value           uniform 0;
    }
    outlet
    {
        type            zeroGradient;
    }
    yzfaces
    {
        type            empty;
    }
}


// ************************************************************************* //
