/*--------------------------------*- C++ -*----------------------------------*\
| =========                 |                                                 |
| \\      /  F ield         | foam-extend: Open Source CFD                    |
|  \\    /   O peration     | Version:     5.0                                |
|   \\  /    A nd           | Web:         http://www.foam-extend.org         |
|    \\/     M anipulation  |                                                 |
\*---------------------------------------------------------------------------*/
FoamFile
{
    version     2.0;
    format      ascii;
    class       volScalarField;
    location    "5";
    object      H2O.water;
}
// * * * * * * * * * * * * * * * * * * * * * * * * * * * * * * * * * * * * * //

dimensions      [0 0 0 0 0 0 0];

internalField   nonuniform List<scalar> 
100
(
0.0251838
0.0337176
0.0392341
0.0436562
0.0469438
0.0499331
0.0522148
0.0545154
0.0563084
0.0580134
0.0596395
0.0612193
0.062678
0.0638742
0.0651073
0.0662057
0.0670593
0.0681203
0.0688086
0.0693836
0.0702533
0.0708446
0.0713619
0.0721404
0.0727629
0.0733819
0.0740861
0.0746394
0.0751318
0.0755548
0.0761781
0.0766899
0.0774478
0.077973
0.0784867
0.0787728
0.0794412
0.0797672
0.0801845
0.0804915
0.0809668
0.0814575
0.0818802
0.0821605
0.0825567
0.0829454
0.0832729
0.0837252
0.0840609
0.0842624
0.0845213
0.0849782
0.085204
0.0856953
0.0860793
0.0864111
0.087021
0.0873007
0.0875787
0.0878777
0.0885212
0.0888815
0.0890655
0.0894902
0.0897664
0.090091
0.0904616
0.090775
0.0911679
0.0915904
0.091856
0.0922192
0.0926544
0.0931686
0.0936111
0.0940524
0.0945063
0.0950247
0.0955266
0.095968
0.096676
0.0973818
0.0980115
0.0988319
0.0995838
0.100524
0.101456
0.102522
0.103608
0.104835
0.105902
0.106929
0.107812
0.108507
0.108975
0.109482
0.109562
0.109714
0.109901
0.109908
)
;

boundaryField
{
    inlet
    {
        type            fixedValue;
        value           uniform 0;
    }
    outlet
    {
        type            zeroGradient;
    }
    yzfaces
    {
        type            empty;
    }
}


// ************************************************************************* //
