/*--------------------------------*- C++ -*----------------------------------*\
| =========                 |                                                 |
| \\      /  F ield         | foam-extend: Open Source CFD                    |
|  \\    /   O peration     | Version:     5.0                                |
|   \\  /    A nd           | Web:         http://www.foam-extend.org         |
|    \\/     M anipulation  |                                                 |
\*---------------------------------------------------------------------------*/
FoamFile
{
    version     2.0;
    format      ascii;
    class       volScalarField;
    location    "5";
    object      Na.water;
}
// * * * * * * * * * * * * * * * * * * * * * * * * * * * * * * * * * * * * * //

dimensions      [0 0 0 0 0 0 0];

internalField   nonuniform List<scalar> 
100
(
0.00915672
0.0122624
0.0142711
0.0158722
0.0170769
0.0181604
0.0190066
0.0198316
0.0204811
0.0211104
0.0216953
0.0222557
0.0227798
0.0232138
0.0236659
0.0240585
0.0243893
0.0247833
0.0250332
0.0252387
0.0255528
0.0257731
0.0259588
0.026243
0.0264623
0.0266676
0.0269182
0.0271333
0.0273155
0.0274747
0.0276951
0.0278798
0.0281582
0.0283544
0.028541
0.0286545
0.0288945
0.0290211
0.0291584
0.0292489
0.029414
0.0296009
0.0297766
0.0298766
0.0300105
0.0301538
0.0302687
0.0304289
0.0305426
0.0306266
0.0307237
0.0308937
0.0309765
0.0311544
0.0312957
0.0314225
0.0316399
0.0317578
0.0318572
0.0319597
0.032177
0.0323139
0.0323965
0.0325689
0.0326573
0.0327801
0.0329231
0.0330274
0.0331438
0.0333035
0.0334005
0.0335409
0.0337011
0.0338914
0.03404
0.0341969
0.0343679
0.0345524
0.0347269
0.0348895
0.0351561
0.0353959
0.0356252
0.0359264
0.036196
0.0365252
0.0368708
0.0372769
0.0376752
0.0381066
0.0384831
0.0388508
0.0391835
0.0394415
0.0396255
0.0398068
0.0398412
0.0399089
0.0399794
0.0399647
)
;

boundaryField
{
    inlet
    {
        type            fixedValue;
        value           uniform 0;
    }
    outlet
    {
        type            zeroGradient;
    }
    yzfaces
    {
        type            empty;
    }
}


// ************************************************************************* //
