/*--------------------------------*- C++ -*----------------------------------*\
| =========                 |                                                 |
| \\      /  F ield         | foam-extend: Open Source CFD                    |
|  \\    /   O peration     | Version:     5.0                                |
|   \\  /    A nd           | Web:         http://www.foam-extend.org         |
|    \\/     M anipulation  |                                                 |
\*---------------------------------------------------------------------------*/
FoamFile
{
    version     2.0;
    format      ascii;
    class       surfaceScalarField;
    location    "5";
    object      phi;
}
// * * * * * * * * * * * * * * * * * * * * * * * * * * * * * * * * * * * * * //

dimensions      [0 3 -1 0 0 0 0];

internalField   nonuniform List<scalar> 
99
(
1.22372e-06
1.22823e-06
1.22779e-06
1.2223e-06
1.22828e-06
1.21242e-06
1.218e-06
1.20611e-06
1.20566e-06
1.20501e-06
1.20781e-06
1.20415e-06
1.2002e-06
1.20041e-06
1.19855e-06
1.20163e-06
1.20641e-06
1.21287e-06
1.20447e-06
1.2137e-06
1.21073e-06
1.21022e-06
1.21085e-06
1.21033e-06
1.2084e-06
1.20726e-06
1.21196e-06
1.2072e-06
1.20099e-06
1.202e-06
1.20014e-06
1.20428e-06
1.20301e-06
1.20879e-06
1.20512e-06
1.20731e-06
1.20731e-06
1.20541e-06
1.20687e-06
1.20509e-06
1.20625e-06
1.2029e-06
1.20101e-06
1.19908e-06
1.19843e-06
1.19834e-06
1.19532e-06
1.18997e-06
1.18556e-06
1.18949e-06
1.18347e-06
1.1835e-06
1.18356e-06
1.18338e-06
1.18478e-06
1.18435e-06
1.18291e-06
1.1801e-06
1.18239e-06
1.18424e-06
1.18068e-06
1.18044e-06
1.1817e-06
1.17721e-06
1.17747e-06
1.17759e-06
1.1772e-06
1.17604e-06
1.17719e-06
1.17731e-06
1.17496e-06
1.17588e-06
1.17624e-06
1.17773e-06
1.17761e-06
1.17725e-06
1.17609e-06
1.17693e-06
1.17853e-06
1.17915e-06
1.17876e-06
1.17912e-06
1.17664e-06
1.17658e-06
1.17756e-06
1.17716e-06
1.17693e-06
1.17873e-06
1.17866e-06
1.17806e-06
1.17939e-06
1.17926e-06
1.17848e-06
1.17801e-06
1.17876e-06
1.17881e-06
1.17852e-06
1.17846e-06
1.17941e-06
)
;

boundaryField
{
    inlet
    {
        type            calculated;
        value           uniform -1.225e-06;
    }
    outlet
    {
        type            calculated;
        value           uniform 1.17979e-06;
    }
    yzfaces
    {
        type            empty;
    }
}


// ************************************************************************* //
