/*--------------------------------*- C++ -*----------------------------------*\
| =========                 |                                                 |
| \\      /  F ield         | foam-extend: Open Source CFD                    |
|  \\    /   O peration     | Version:     5.0                                |
|   \\  /    A nd           | Web:         http://www.foam-extend.org         |
|    \\/     M anipulation  |                                                 |
\*---------------------------------------------------------------------------*/
FoamFile
{
    version     2.0;
    format      ascii;
    class       surfaceScalarField;
    location    "5";
    object      phi.water;
}
// * * * * * * * * * * * * * * * * * * * * * * * * * * * * * * * * * * * * * //

dimensions      [0 3 -1 0 0 0 0];

internalField   nonuniform List<scalar> 
99
(
1.03987e-07
1.81064e-07
2.4984e-07
3.14361e-07
3.76886e-07
4.32172e-07
4.97767e-07
5.47759e-07
6.07769e-07
6.62203e-07
7.20362e-07
7.77936e-07
8.27577e-07
8.82346e-07
9.2898e-07
9.68159e-07
1.01407e-06
1.0526e-06
1.07092e-06
1.13014e-06
1.15242e-06
1.18947e-06
1.23385e-06
1.27976e-06
1.32355e-06
1.36232e-06
1.4198e-06
1.44624e-06
1.48123e-06
1.53397e-06
1.57409e-06
1.63256e-06
1.67675e-06
1.73208e-06
1.76399e-06
1.81132e-06
1.85217e-06
1.88859e-06
1.93029e-06
1.96691e-06
2.00959e-06
2.04176e-06
2.07068e-06
2.1117e-06
2.15337e-06
2.19929e-06
2.23356e-06
2.26452e-06
2.30459e-06
2.36729e-06
2.39129e-06
2.44159e-06
2.48725e-06
2.53656e-06
2.58871e-06
2.63396e-06
2.67323e-06
2.71123e-06
2.77041e-06
2.82132e-06
2.85235e-06
2.89927e-06
2.95048e-06
2.98375e-06
3.04117e-06
3.09772e-06
3.14778e-06
3.20394e-06
3.264e-06
3.32295e-06
3.37712e-06
3.44347e-06
3.50858e-06
3.58196e-06
3.65378e-06
3.72789e-06
3.80668e-06
3.89261e-06
3.99113e-06
4.0885e-06
4.18651e-06
4.29595e-06
4.40313e-06
4.52857e-06
4.67163e-06
4.81472e-06
4.96563e-06
5.1285e-06
5.28063e-06
5.42383e-06
5.56276e-06
5.67144e-06
5.75163e-06
5.81065e-06
5.85116e-06
5.87732e-06
5.89499e-06
5.90065e-06
5.90982e-06
)
;

boundaryField
{
    inlet
    {
        type            fixedValue;
        value           uniform 0;
    }
    outlet
    {
        type            calculated;
        value           uniform 5.91732e-06;
    }
    yzfaces
    {
        type            empty;
    }
}


// ************************************************************************* //
