/*--------------------------------*- C++ -*----------------------------------*\
| =========                 |                                                 |
| \\      /  F ield         | foam-extend: Open Source CFD                    |
|  \\    /   O peration     | Version:     5.0                                |
|   \\  /    A nd           | Web:         http://www.foam-extend.org         |
|    \\/     M anipulation  |                                                 |
\*---------------------------------------------------------------------------*/
FoamFile
{
    version     2.0;
    format      ascii;
    class       volVectorField;
    location    "5";
    object      U.gas;
}
// * * * * * * * * * * * * * * * * * * * * * * * * * * * * * * * * * * * * * //

dimensions      [0 1 -1 0 0 0 0];

internalField   nonuniform List<vector> 
100
(
(0.00636728 0 0)
(0.00698824 0 0)
(0.00748042 0 0)
(0.00786548 0 0)
(0.00821835 0 0)
(0.00849711 0 0)
(0.0087654 0 0)
(0.00899306 0 0)
(0.00919811 0 0)
(0.00941772 0 0)
(0.00964388 0 0)
(0.00986073 0 0)
(0.0100023 0 0)
(0.0101694 0 0)
(0.0103135 0 0)
(0.0104321 0 0)
(0.0105961 0 0)
(0.0107447 0 0)
(0.0108047 0 0)
(0.0109579 0 0)
(0.0110437 0 0)
(0.0111273 0 0)
(0.0112393 0 0)
(0.0113529 0 0)
(0.0114369 0 0)
(0.0115163 0 0)
(0.0116427 0 0)
(0.0116967 0 0)
(0.0117345 0 0)
(0.0118099 0 0)
(0.0118796 0 0)
(0.0119944 0 0)
(0.0120807 0 0)
(0.0121776 0 0)
(0.012233 0 0)
(0.0123014 0 0)
(0.0123672 0 0)
(0.0124073 0 0)
(0.0124575 0 0)
(0.0125079 0 0)
(0.0125571 0 0)
(0.012585 0 0)
(0.0125902 0 0)
(0.0126252 0 0)
(0.0126558 0 0)
(0.012697 0 0)
(0.012715 0 0)
(0.0127083 0 0)
(0.0126977 0 0)
(0.0127351 0 0)
(0.0127326 0 0)
(0.0127461 0 0)
(0.0127706 0 0)
(0.012806 0 0)
(0.0128297 0 0)
(0.0128568 0 0)
(0.0128571 0 0)
(0.0128446 0 0)
(0.0128664 0 0)
(0.0128995 0 0)
(0.0128888 0 0)
(0.0128737 0 0)
(0.0128873 0 0)
(0.0128628 0 0)
(0.0128535 0 0)
(0.0128503 0 0)
(0.0128328 0 0)
(0.0128199 0 0)
(0.0128037 0 0)
(0.0127909 0 0)
(0.0127539 0 0)
(0.0127218 0 0)
(0.0126971 0 0)
(0.0126674 0 0)
(0.0126251 0 0)
(0.0125705 0 0)
(0.0124988 0 0)
(0.0124161 0 0)
(0.012344 0 0)
(0.0122473 0 0)
(0.0121227 0 0)
(0.0119753 0 0)
(0.01179 0 0)
(0.0115682 0 0)
(0.0113192 0 0)
(0.0110038 0 0)
(0.010624 0 0)
(0.010175 0 0)
(0.00964052 0 0)
(0.00901227 0 0)
(0.00831606 0 0)
(0.00758135 0 0)
(0.00684934 0 0)
(0.0061866 0 0)
(0.00564386 0 0)
(0.00523787 0 0)
(0.0049511 0 0)
(0.00476227 0 0)
(0.00464634 0 0)
(0.00458176 0 0)
)
;

boundaryField
{
    inlet
    {
        type            fixedValue;
        value           uniform (0.005 0 0);
    }
    outlet
    {
        type            zeroGradient;
    }
    yzfaces
    {
        type            empty;
    }
}


// ************************************************************************* //
