/*--------------------------------*- C++ -*----------------------------------*\
| =========                 |                                                 |
| \\      /  F ield         | foam-extend: Open Source CFD                    |
|  \\    /   O peration     | Version:     5.0                                |
|   \\  /    A nd           | Web:         http://www.foam-extend.org         |
|    \\/     M anipulation  |                                                 |
\*---------------------------------------------------------------------------*/
FoamFile
{
    version     2.0;
    format      ascii;
    class       volVectorField;
    location    "5";
    object      U.water;
}
// * * * * * * * * * * * * * * * * * * * * * * * * * * * * * * * * * * * * * //

dimensions      [0 1 -1 0 0 0 0];

internalField   nonuniform List<vector> 
100
(
(4.97843e-05 0 0)
(0.000117985 0 0)
(0.000176898 0 0)
(0.000231008 0 0)
(0.000282586 0 0)
(0.000330248 0 0)
(0.000377948 0 0)
(0.000424904 0 0)
(0.00046841 0 0)
(0.000514213 0 0)
(0.000559628 0 0)
(0.000605861 0 0)
(0.000650436 0 0)
(0.000692475 0 0)
(0.000734632 0 0)
(0.000772167 0 0)
(0.000808 0 0)
(0.000845047 0 0)
(0.000871293 0 0)
(0.000900272 0 0)
(0.000936598 0 0)
(0.000961127 0 0)
(0.000992931 0 0)
(0.00102892 0 0)
(0.0010654 0 0)
(0.00109907 0 0)
(0.00113747 0 0)
(0.00117339 0 0)
(0.0011974 0 0)
(0.00123086 0 0)
(0.00126867 0 0)
(0.00130799 0 0)
(0.0013512 0 0)
(0.00139257 0 0)
(0.00142915 0 0)
(0.00146057 0 0)
(0.00149747 0 0)
(0.00152958 0 0)
(0.00156075 0 0)
(0.00159204 0 0)
(0.00162477 0 0)
(0.00165735 0 0)
(0.00168404 0 0)
(0.00171151 0 0)
(0.00174449 0 0)
(0.00177953 0 0)
(0.00181228 0 0)
(0.00183935 0 0)
(0.00186695 0 0)
(0.00190524 0 0)
(0.00194028 0 0)
(0.00196955 0 0)
(0.00200816 0 0)
(0.00204659 0 0)
(0.00208852 0 0)
(0.00212915 0 0)
(0.00216651 0 0)
(0.00219911 0 0)
(0.00223646 0 0)
(0.00228154 0 0)
(0.00231908 0 0)
(0.00235263 0 0)
(0.00239166 0 0)
(0.00242679 0 0)
(0.0024623 0 0)
(0.00250744 0 0)
(0.00255104 0 0)
(0.00259336 0 0)
(0.00264047 0 0)
(0.00268895 0 0)
(0.00273399 0 0)
(0.00278206 0 0)
(0.00283632 0 0)
(0.00289411 0 0)
(0.00295382 0 0)
(0.00301281 0 0)
(0.00307453 0 0)
(0.00314156 0 0)
(0.00321518 0 0)
(0.00329377 0 0)
(0.00337466 0 0)
(0.00346046 0 0)
(0.00354877 0 0)
(0.00364358 0 0)
(0.00375227 0 0)
(0.00386865 0 0)
(0.00398861 0 0)
(0.00411708 0 0)
(0.00424693 0 0)
(0.00436865 0 0)
(0.00448342 0 0)
(0.0045836 0 0)
(0.00466047 0 0)
(0.00471659 0 0)
(0.00475795 0 0)
(0.00478641 0 0)
(0.004803 0 0)
(0.00481279 0 0)
(0.00482092 0 0)
(0.00482714 0 0)
)
;

boundaryField
{
    inlet
    {
        type            fixedValue;
        value           uniform (0 0 0);
    }
    outlet
    {
        type            zeroGradient;
    }
    yzfaces
    {
        type            empty;
    }
}


// ************************************************************************* //
