/*--------------------------------*- C++ -*----------------------------------*\
| =========                 |                                                 |
| \\      /  F ield         | foam-extend: Open Source CFD                    |
|  \\    /   O peration     | Version:     5.0                                |
|   \\  /    A nd           | Web:         http://www.foam-extend.org         |
|    \\/     M anipulation  |                                                 |
\*---------------------------------------------------------------------------*/
FoamFile
{
    version     2.0;
    format      ascii;
    class       volScalarField;
    location    "2";
    object      H2O.gas;
}
// * * * * * * * * * * * * * * * * * * * * * * * * * * * * * * * * * * * * * //

dimensions      [0 0 0 0 0 0 0];

internalField   nonuniform List<scalar> 
100
(
0.000261342
0.000228089
0.000207462
0.000191538
0.000180329
0.000170494
0.000161641
0.000154257
0.000147807
0.000142153
0.000137614
0.000132686
0.000128467
0.000124253
0.000120531
0.000117172
0.000113644
0.000110277
0.000107166
0.000104059
0.000101045
9.80578e-05
9.5195e-05
9.23187e-05
8.93082e-05
8.64027e-05
8.34686e-05
8.05573e-05
7.74955e-05
0.00730993
0.0104435
0.0131766
0.0154866
0.0173114
0.01858
0.0192434
0.0193479
0.0188644
0.0179153
0.0166144
0.0151617
0.0137129
0.0125082
0.0115827
0.0109545
0.0105521
0.0103164
0.0101775
0.0100985
0.0100554
0.0100237
0.0100185
0.0100034
0.00999898
0.00999412
0.00999633
0.0100017
0.00999883
0.0100085
0.0100025
0.0100045
0.00999932
0.0100005
0.009994
0.0100052
0.0100085
0.0100164
0.0100115
0.00999806
0.0100054
0.00999409
0.0100058
0.00999613
0.00999146
0.0100025
0.00999717
0.00999941
0.0100089
0.0100082
0.0100087
0.0100082
0.0100037
0.0100052
0.0100006
0.00999312
0.00999733
0.00999285
0.00999794
0.0100006
0.00999748
0.010001
0.0100022
0.0100012
0.0100003
0.00999689
0.0100029
0.00999943
0.0100039
0.0100076
0.0100156
)
;

boundaryField
{
    inlet
    {
        type            fixedValue;
        value           uniform 0;
    }
    outlet
    {
        type            zeroGradient;
    }
    yzfaces
    {
        type            empty;
    }
}


// ************************************************************************* //
