/*--------------------------------*- C++ -*----------------------------------*\
| =========                 |                                                 |
| \\      /  F ield         | foam-extend: Open Source CFD                    |
|  \\    /   O peration     | Version:     5.0                                |
|   \\  /    A nd           | Web:         http://www.foam-extend.org         |
|    \\/     M anipulation  |                                                 |
\*---------------------------------------------------------------------------*/
FoamFile
{
    version     2.0;
    format      ascii;
    class       surfaceScalarField;
    location    "2";
    object      phi;
}
// * * * * * * * * * * * * * * * * * * * * * * * * * * * * * * * * * * * * * //

dimensions      [0 3 -1 0 0 0 0];

internalField   nonuniform List<scalar> 
99
(
1.22e-06
1.22923e-06
1.22079e-06
1.21547e-06
1.21012e-06
1.20295e-06
1.20225e-06
1.20292e-06
1.20236e-06
1.20747e-06
1.20408e-06
1.20563e-06
1.20216e-06
1.20743e-06
1.20559e-06
1.20488e-06
1.20464e-06
1.20706e-06
1.20495e-06
1.20392e-06
1.20621e-06
1.20532e-06
1.20404e-06
1.20237e-06
1.20104e-06
1.20025e-06
1.20163e-06
1.20005e-06
1.20093e-06
1.2006e-06
1.19987e-06
1.20088e-06
1.19984e-06
1.20026e-06
1.19882e-06
1.20185e-06
1.19992e-06
1.19986e-06
1.20198e-06
1.20316e-06
1.19839e-06
1.19948e-06
1.19768e-06
1.19852e-06
1.19745e-06
1.19898e-06
1.1994e-06
1.20031e-06
1.20014e-06
1.20047e-06
1.20062e-06
1.19937e-06
1.19794e-06
1.19959e-06
1.1992e-06
1.20146e-06
1.20153e-06
1.20342e-06
1.20356e-06
1.20491e-06
1.20501e-06
1.20335e-06
1.20382e-06
1.20582e-06
1.20526e-06
1.20692e-06
1.20697e-06
1.20647e-06
1.20573e-06
1.20536e-06
1.20764e-06
1.20613e-06
1.20524e-06
1.20633e-06
1.20668e-06
1.20592e-06
1.2073e-06
1.20601e-06
1.20593e-06
1.20559e-06
1.20652e-06
1.20808e-06
1.20815e-06
1.20792e-06
1.20761e-06
1.20884e-06
1.20885e-06
1.20633e-06
1.20384e-06
1.20243e-06
1.20245e-06
1.20165e-06
1.2006e-06
1.20079e-06
1.20001e-06
1.20083e-06
1.20236e-06
1.2006e-06
1.20159e-06
)
;

boundaryField
{
    inlet
    {
        type            calculated;
        value           uniform -1.225e-06;
    }
    outlet
    {
        type            calculated;
        value           uniform 1.19953e-06;
    }
    yzfaces
    {
        type            empty;
    }
}


// ************************************************************************* //
