/*--------------------------------*- C++ -*----------------------------------*\
| =========                 |                                                 |
| \\      /  F ield         | foam-extend: Open Source CFD                    |
|  \\    /   O peration     | Version:     5.0                                |
|   \\  /    A nd           | Web:         http://www.foam-extend.org         |
|    \\/     M anipulation  |                                                 |
\*---------------------------------------------------------------------------*/
FoamFile
{
    version     2.0;
    format      ascii;
    class       volScalarField;
    location    "2";
    object      Cl.water;
}
// * * * * * * * * * * * * * * * * * * * * * * * * * * * * * * * * * * * * * //

dimensions      [0 0 0 0 0 0 0];

internalField   nonuniform List<scalar> 
100
(
0.00755576
0.00945928
0.0107626
0.0116681
0.0123683
0.0129077
0.0134203
0.0138112
0.0141898
0.0145307
0.014828
0.0151136
0.0153951
0.0156313
0.0158418
0.0160539
0.0162589
0.0164584
0.016645
0.0168301
0.017003
0.0171821
0.0173551
0.0175167
0.0176899
0.0178606
0.0180356
0.0182143
0.018399
0.0195444
0.0198053
0.0199994
0.0202215
0.0204599
0.0207066
0.0209668
0.0212353
0.0215134
0.0217853
0.022061
0.0223193
0.0225163
0.0227047
0.022819
0.0229006
0.0229568
0.0229661
0.0229606
0.0229895
0.0229871
0.0229685
0.0229819
0.0229865
0.0229912
0.0229871
0.0229898
0.0230112
0.0230119
0.023012
0.0230131
0.0230097
0.0230304
0.0230375
0.0230273
0.0230186
0.0230104
0.0229944
0.0229904
0.0229844
0.0229756
0.0229815
0.0229824
0.0229812
0.0229906
0.0230071
0.0229915
0.0229933
0.0230128
0.023009
0.0229929
0.0229853
0.0230085
0.023005
0.0230125
0.0230227
0.0230119
0.0230132
0.0230326
0.0230112
0.0230067
0.0229932
0.0229799
0.0229905
0.0229816
0.0229773
0.0229633
0.022984
0.0229904
0.0229843
0.0229759
)
;

boundaryField
{
    inlet
    {
        type            fixedValue;
        value           uniform 0;
    }
    outlet
    {
        type            zeroGradient;
    }
    yzfaces
    {
        type            empty;
    }
}


// ************************************************************************* //
