/*--------------------------------*- C++ -*----------------------------------*\
| =========                 |                                                 |
| \\      /  F ield         | foam-extend: Open Source CFD                    |
|  \\    /   O peration     | Version:     5.0                                |
|   \\  /    A nd           | Web:         http://www.foam-extend.org         |
|    \\/     M anipulation  |                                                 |
\*---------------------------------------------------------------------------*/
FoamFile
{
    version     2.0;
    format      ascii;
    class       volScalarField;
    location    "2";
    object      Cl.water;
}
// * * * * * * * * * * * * * * * * * * * * * * * * * * * * * * * * * * * * * //

dimensions      [0 0 0 0 0 0 0];

internalField   nonuniform List<scalar> 
100
(
0.0075263
0.00949296
0.0107722
0.0117123
0.0123609
0.0129086
0.0134081
0.0138069
0.014208
0.0145367
0.0148426
0.0151362
0.0153937
0.0156146
0.01585
0.0160624
0.0162688
0.0164718
0.0166553
0.0168267
0.0170072
0.0171832
0.0173599
0.017528
0.0177066
0.0178783
0.018055
0.0182391
0.0183957
0.0185908
0.0187685
0.0189734
0.0191667
0.0193971
0.0196186
0.0198785
0.0201404
0.0204029
0.0206602
0.02093
0.0211569
0.0213595
0.0215204
0.0216267
0.0217155
0.0217513
0.0217769
0.0218031
0.0218096
0.0218077
0.0218143
0.0218244
0.021824
0.0218206
0.0218193
0.0217988
0.0218094
0.0218267
0.0218165
0.0218235
0.0218057
0.021809
0.0218016
0.0218134
0.0218037
0.0218073
0.0218204
0.0218144
0.0218175
0.0218302
0.0218143
0.0218341
0.0218272
0.0218252
0.0218244
0.0218191
0.0218242
0.0218218
0.0218081
0.0218218
0.0218267
0.0218183
0.0218226
0.0218126
0.0218283
0.0218216
0.0218074
0.0218139
0.0218261
0.0218197
0.0218079
0.0218082
0.021808
0.0218159
0.0218284
0.0218271
0.0218141
0.0218155
0.0217999
0.0218176
)
;

boundaryField
{
    inlet
    {
        type            fixedValue;
        value           uniform 0;
    }
    outlet
    {
        type            zeroGradient;
    }
    yzfaces
    {
        type            empty;
    }
}


// ************************************************************************* //
