/*--------------------------------*- C++ -*----------------------------------*\
| =========                 |                                                 |
| \\      /  F ield         | foam-extend: Open Source CFD                    |
|  \\    /   O peration     | Version:     5.0                                |
|   \\  /    A nd           | Web:         http://www.foam-extend.org         |
|    \\/     M anipulation  |                                                 |
\*---------------------------------------------------------------------------*/
FoamFile
{
    version     2.0;
    format      ascii;
    class       volScalarField;
    location    "2";
    object      Na.water;
}
// * * * * * * * * * * * * * * * * * * * * * * * * * * * * * * * * * * * * * //

dimensions      [0 0 0 0 0 0 0];

internalField   nonuniform List<scalar> 
100
(
0.0075565
0.00946015
0.0107637
0.0116731
0.0123655
0.0129127
0.0134196
0.0138113
0.0141911
0.0145355
0.0148318
0.0151133
0.0153806
0.0156252
0.0158418
0.0160522
0.0162613
0.0164605
0.0166494
0.0168331
0.0170059
0.0171864
0.0173583
0.0175206
0.0176996
0.017864
0.0180438
0.0182201
0.0184012
0.0195459
0.0198089
0.020001
0.0202258
0.020462
0.0207136
0.0209695
0.021232
0.0215142
0.0217855
0.0220591
0.022315
0.0225172
0.0227094
0.0228164
0.0228984
0.0229514
0.0229677
0.0229557
0.0229844
0.0229717
0.0229637
0.0229842
0.0229944
0.0229971
0.0229936
0.0229935
0.0230141
0.0230228
0.0230283
0.0230304
0.0230227
0.0230389
0.0230421
0.0230276
0.0230209
0.0230099
0.022994
0.0229844
0.0229796
0.0229788
0.0229898
0.0229895
0.0229888
0.0229885
0.023002
0.02299
0.0229937
0.0230126
0.0230075
0.0229964
0.0229802
0.0230068
0.022993
0.0230079
0.0230248
0.0230147
0.0230084
0.0230261
0.023004
0.0229939
0.0229817
0.0229742
0.0229841
0.0229817
0.0229812
0.0229671
0.0229862
0.0230013
0.0229943
0.0229841
)
;

boundaryField
{
    inlet
    {
        type            fixedValue;
        value           uniform 0;
    }
    outlet
    {
        type            zeroGradient;
    }
    yzfaces
    {
        type            empty;
    }
}


// ************************************************************************* //
