/*--------------------------------*- C++ -*----------------------------------*\
| =========                 |                                                 |
| \\      /  F ield         | foam-extend: Open Source CFD                    |
|  \\    /   O peration     | Version:     5.0                                |
|   \\  /    A nd           | Web:         http://www.foam-extend.org         |
|    \\/     M anipulation  |                                                 |
\*---------------------------------------------------------------------------*/
FoamFile
{
    version     2.0;
    format      ascii;
    class       volScalarField;
    location    "2";
    object      Ns;
}
// * * * * * * * * * * * * * * * * * * * * * * * * * * * * * * * * * * * * * //

dimensions      [0 -3 0 0 1 0 0];

internalField   nonuniform List<scalar> 
100
(
61.5479
97.6361
74.2764
82.8592
119.144
111.662
115.768
115.752
106.438
116.826
117.185
98.8951
111.466
111.824
103.433
121.978
114.094
102.656
121.039
119.408
108.266
106.288
109.345
112.173
111.106
103.25
164.774
166.892
171.272
174.304
172.94
172.023
177.182
169.199
173.373
171.459
169.529
170.88
172.069
172.088
176.919
180.842
174.67
172.489
170.82
172.811
171.778
166.269
172.421
179.831
173.732
173.597
172.768
176.874
174.907
174.955
173.629
175.76
172.26
171.818
173.204
170.074
174.502
169.632
170.867
173.201
170.095
169.882
177.233
174.08
176.463
173.485
172.467
175.518
173.078
172.076
175.313
173.605
175.153
172.098
171.772
173.594
169.998
173.461
171.756
175.685
173.223
173.473
173.002
172.113
171.739
172.375
171.242
171.223
173.945
170.508
174.02
174.781
172.31
170.152
)
;

boundaryField
{
    inlet
    {
        type            fixedValue;
        value           uniform 0;
    }
    outlet
    {
        type            zeroGradient;
    }
    yzfaces
    {
        type            empty;
    }
}


// ************************************************************************* //
