/*--------------------------------*- C++ -*----------------------------------*\
| =========                 |                                                 |
| \\      /  F ield         | foam-extend: Open Source CFD                    |
|  \\    /   O peration     | Version:     5.0                                |
|   \\  /    A nd           | Web:         http://www.foam-extend.org         |
|    \\/     M anipulation  |                                                 |
\*---------------------------------------------------------------------------*/
FoamFile
{
    version     2.0;
    format      ascii;
    class       surfaceScalarField;
    location    "2";
    object      phi;
}
// * * * * * * * * * * * * * * * * * * * * * * * * * * * * * * * * * * * * * //

dimensions      [0 3 -1 0 0 0 0];

internalField   nonuniform List<scalar> 
99
(
1.22707e-06
1.21997e-06
1.21699e-06
1.21501e-06
1.21877e-06
1.22161e-06
1.22561e-06
1.22315e-06
1.21913e-06
1.22517e-06
1.22437e-06
1.22098e-06
1.2222e-06
1.22079e-06
1.21869e-06
1.22007e-06
1.22071e-06
1.22113e-06
1.2213e-06
1.22329e-06
1.21939e-06
1.22136e-06
1.22085e-06
1.2182e-06
1.21885e-06
1.21678e-06
1.21554e-06
1.21409e-06
1.21339e-06
1.21556e-06
1.21731e-06
1.21726e-06
1.21733e-06
1.21783e-06
1.2176e-06
1.21638e-06
1.21601e-06
1.21821e-06
1.21834e-06
1.21911e-06
1.21905e-06
1.21978e-06
1.21832e-06
1.21768e-06
1.21839e-06
1.21753e-06
1.21724e-06
1.21737e-06
1.21745e-06
1.21698e-06
1.21783e-06
1.21778e-06
1.21869e-06
1.21867e-06
1.22021e-06
1.22076e-06
1.21966e-06
1.21985e-06
1.21969e-06
1.22032e-06
1.22089e-06
1.22187e-06
1.22177e-06
1.21762e-06
1.21777e-06
1.21558e-06
1.21627e-06
1.21549e-06
1.21619e-06
1.21646e-06
1.2161e-06
1.21653e-06
1.2186e-06
1.21818e-06
1.21931e-06
1.21913e-06
1.22144e-06
1.2204e-06
1.22106e-06
1.21994e-06
1.22063e-06
1.21959e-06
1.21857e-06
1.21768e-06
1.21842e-06
1.2181e-06
1.21998e-06
1.21924e-06
1.21864e-06
1.21901e-06
1.21875e-06
1.22052e-06
1.21876e-06
1.21912e-06
1.22036e-06
1.22175e-06
1.22024e-06
1.21989e-06
1.21938e-06
)
;

boundaryField
{
    inlet
    {
        type            calculated;
        value           uniform -1.225e-06;
    }
    outlet
    {
        type            calculated;
        value           uniform 1.21812e-06;
    }
    yzfaces
    {
        type            empty;
    }
}


// ************************************************************************* //
