/*--------------------------------*- C++ -*----------------------------------*\
| =========                 |                                                 |
| \\      /  F ield         | foam-extend: Open Source CFD                    |
|  \\    /   O peration     | Version:     5.0                                |
|   \\  /    A nd           | Web:         http://www.foam-extend.org         |
|    \\/     M anipulation  |                                                 |
\*---------------------------------------------------------------------------*/
FoamFile
{
    version     2.0;
    format      ascii;
    class       volScalarField;
    location    "2";
    object      S.gas;
}
// * * * * * * * * * * * * * * * * * * * * * * * * * * * * * * * * * * * * * //

dimensions      [0 0 0 0 0 0 0];

internalField   nonuniform List<scalar> 
100
(
0.670997
0.588113
0.531358
0.491847
0.461531
0.437873
0.415681
0.398641
0.382129
0.367213
0.354288
0.341943
0.329996
0.319527
0.31023
0.301033
0.292014
0.283336
0.275162
0.267134
0.259606
0.251777
0.244268
0.237217
0.22955
0.222253
0.214529
0.2068
0.198837
0.190527
0.182312
0.173744
0.164726
0.155193
0.145149
0.134515
0.123259
0.111643
0.0999655
0.0886438
0.0783119
0.0695633
0.0627737
0.0579386
0.0547397
0.0527492
0.0515663
0.0508788
0.0504843
0.0502645
0.0501554
0.0500931
0.0500613
0.0500461
0.0500289
0.0500235
0.0500044
0.049994
0.0499967
0.0500003
0.0499912
0.0499878
0.0499874
0.0499902
0.0499777
0.0499831
0.0499978
0.0500113
0.0500141
0.0500136
0.0500017
0.0500056
0.0500033
0.0500056
0.0500024
0.0500107
0.0500165
0.0500161
0.0500172
0.0500184
0.0500126
0.0500039
0.0500033
0.0500096
0.0500193
0.0500258
0.0500153
0.0500164
0.0500141
0.050019
0.0500155
0.0500174
0.0500278
0.0500198
0.0500128
0.0500256
0.0500204
0.050014
0.0500123
0.0500107
)
;

boundaryField
{
    inlet
    {
        type            calculated;
        value           uniform 1;
    }
    outlet
    {
        type            calculated;
        value           uniform 0.0500107;
    }
    yzfaces
    {
        type            empty;
    }
}


// ************************************************************************* //
