/*--------------------------------*- C++ -*----------------------------------*\
| =========                 |                                                 |
| \\      /  F ield         | foam-extend: Open Source CFD                    |
|  \\    /   O peration     | Version:     5.0                                |
|   \\  /    A nd           | Web:         http://www.foam-extend.org         |
|    \\/     M anipulation  |                                                 |
\*---------------------------------------------------------------------------*/
FoamFile
{
    version     2.0;
    format      ascii;
    class       volScalarField;
    location    "8";
    object      alpha.gas;
}
// * * * * * * * * * * * * * * * * * * * * * * * * * * * * * * * * * * * * * //

dimensions      [0 0 0 0 0 0 0];

internalField   nonuniform List<scalar> 
100
(
0.165147
0.153219
0.143276
0.137122
0.134677
0.132527
0.12879
0.124081
0.118872
0.114976
0.11231
0.10972
0.106801
0.104415
0.102203
0.0996419
0.0975439
0.0962884
0.0946405
0.0930024
0.0915858
0.0902819
0.0885463
0.0874683
0.0867857
0.0864533
0.0861602
0.0851088
0.0842095
0.0832056
0.0821694
0.0809079
0.0796592
0.0788199
0.0778467
0.0770102
0.0763642
0.0755999
0.0749419
0.0742796
0.0735313
0.0728588
0.0722388
0.0716689
0.0709821
0.0704346
0.0699341
0.0694608
0.0689104
0.0683746
0.0676917
0.0671278
0.0665773
0.066033
0.0654314
0.0649838
0.0644684
0.0639314
0.0634088
0.0629741
0.0624627
0.0619847
0.0615531
0.0611551
0.0607224
0.0602375
0.0598235
0.0592923
0.0588805
0.0585249
0.0581026
0.0576939
0.0572703
0.0568998
0.0564646
0.05612
0.0557077
0.0553851
0.0549895
0.0546972
0.0544131
0.0540758
0.0537204
0.0533248
0.0529156
0.0525974
0.0522394
0.0519089
0.0515447
0.051208
0.0508551
0.0504204
0.0500212
0.0496328
0.0492091
0.0488244
0.048441
0.0480495
0.0476276
0.0472209
)
;

boundaryField
{
    inlet
    {
        type            fixedValue;
        value           uniform 0.2;
    }
    outlet
    {
        type            zeroGradient;
    }
    yzfaces
    {
        type            empty;
    }
}


// ************************************************************************* //
