/*--------------------------------*- C++ -*----------------------------------*\
| =========                 |                                                 |
| \\      /  F ield         | foam-extend: Open Source CFD                    |
|  \\    /   O peration     | Version:     5.0                                |
|   \\  /    A nd           | Web:         http://www.foam-extend.org         |
|    \\/     M anipulation  |                                                 |
\*---------------------------------------------------------------------------*/
FoamFile
{
    version     2.0;
    format      ascii;
    class       volScalarField;
    location    "8";
    object      alpha.gas;
}
// * * * * * * * * * * * * * * * * * * * * * * * * * * * * * * * * * * * * * //

dimensions      [0 0 0 0 0 0 0];

internalField   nonuniform List<scalar> 
100
(
0.16514
0.152851
0.143723
0.137257
0.135155
0.132738
0.129008
0.124536
0.119036
0.115219
0.112415
0.109822
0.106652
0.104301
0.102085
0.0995252
0.0976381
0.0962136
0.0942395
0.0926745
0.0914128
0.0897156
0.0881172
0.0874924
0.0869964
0.086876
0.0860567
0.0848736
0.0836317
0.0829248
0.0818232
0.0806291
0.0798006
0.0789017
0.0776747
0.0768556
0.0762021
0.0755393
0.0750075
0.0742729
0.0736122
0.0728206
0.0721485
0.0715418
0.0709399
0.0704537
0.0699102
0.0692662
0.0686984
0.0680749
0.0674298
0.0669187
0.0664137
0.0659485
0.0654608
0.0649955
0.0645384
0.0639604
0.0633882
0.0628461
0.0624201
0.0619093
0.0615388
0.0610776
0.0606153
0.0601432
0.0596528
0.0591878
0.0588327
0.0584509
0.0580386
0.0576303
0.0571572
0.0567368
0.0564105
0.0560331
0.0556209
0.0553192
0.054963
0.0546487
0.0542758
0.0539212
0.0535574
0.0532314
0.0529246
0.052595
0.0522592
0.051869
0.0515511
0.0512086
0.0508
0.0503986
0.0499857
0.0495824
0.0491929
0.0487989
0.0483644
0.0479493
0.0475445
0.0469908
)
;

boundaryField
{
    inlet
    {
        type            fixedValue;
        value           uniform 0.2;
    }
    outlet
    {
        type            zeroGradient;
    }
    yzfaces
    {
        type            empty;
    }
}


// ************************************************************************* //
