/*--------------------------------*- C++ -*----------------------------------*\
| =========                 |                                                 |
| \\      /  F ield         | foam-extend: Open Source CFD                    |
|  \\    /   O peration     | Version:     5.0                                |
|   \\  /    A nd           | Web:         http://www.foam-extend.org         |
|    \\/     M anipulation  |                                                 |
\*---------------------------------------------------------------------------*/
FoamFile
{
    version     2.0;
    format      ascii;
    class       volScalarField;
    location    "8";
    object      Cl.water;
}
// * * * * * * * * * * * * * * * * * * * * * * * * * * * * * * * * * * * * * //

dimensions      [0 0 0 0 0 0 0];

internalField   nonuniform List<scalar> 
100
(
0.00400194
0.00537143
0.00651326
0.00722035
0.00750204
0.00774958
0.00817749
0.0087188
0.00931703
0.00976371
0.0100683
0.0103672
0.0106999
0.0109776
0.011232
0.0115282
0.0117691
0.0119133
0.0121019
0.0122935
0.0124555
0.0126041
0.0128035
0.0129255
0.0129995
0.0130381
0.0130696
0.0131891
0.0132932
0.0134097
0.0135264
0.0136729
0.013817
0.0139108
0.0140249
0.01412
0.0141945
0.0142845
0.0143616
0.014437
0.0145228
0.0146022
0.0146744
0.0147398
0.0148171
0.0148782
0.0149387
0.014994
0.0150551
0.0151181
0.0151974
0.0152625
0.0153254
0.0153869
0.0154575
0.0155066
0.0155687
0.0156298
0.0156878
0.0157349
0.0157923
0.0158491
0.0159042
0.0159542
0.0159982
0.016053
0.0160967
0.0161574
0.0162059
0.0162465
0.0162953
0.0163401
0.0163886
0.0164275
0.0164771
0.0165185
0.0165709
0.0166028
0.0166484
0.0166865
0.0167175
0.0167537
0.0167976
0.0168448
0.0168892
0.0169242
0.0169687
0.0170062
0.017046
0.0170859
0.0171244
0.0171767
0.0172224
0.0172671
0.0173152
0.0173602
0.0174023
0.0174501
0.0174976
0.0175443
)
;

boundaryField
{
    inlet
    {
        type            fixedValue;
        value           uniform 0;
    }
    outlet
    {
        type            zeroGradient;
    }
    yzfaces
    {
        type            empty;
    }
}


// ************************************************************************* //
