/*--------------------------------*- C++ -*----------------------------------*\
| =========                 |                                                 |
| \\      /  F ield         | foam-extend: Open Source CFD                    |
|  \\    /   O peration     | Version:     5.0                                |
|   \\  /    A nd           | Web:         http://www.foam-extend.org         |
|    \\/     M anipulation  |                                                 |
\*---------------------------------------------------------------------------*/
FoamFile
{
    version     2.0;
    format      ascii;
    class       volScalarField;
    location    "8";
    object      Cl.water;
}
// * * * * * * * * * * * * * * * * * * * * * * * * * * * * * * * * * * * * * //

dimensions      [0 0 0 0 0 0 0];

internalField   nonuniform List<scalar> 
100
(
0.00400297
0.00541667
0.00646604
0.00721042
0.00745032
0.00772831
0.00815537
0.00866876
0.00929942
0.00973876
0.0100606
0.0103599
0.0107246
0.0109944
0.0112508
0.0115397
0.0117541
0.0119197
0.0121482
0.0123267
0.0124728
0.0126671
0.0128531
0.0129235
0.0129825
0.0129963
0.013088
0.013224
0.013366
0.013448
0.013573
0.0137101
0.0138038
0.0139078
0.0140496
0.0141438
0.0142196
0.0142956
0.0143601
0.0144422
0.014518
0.0146089
0.0146836
0.0147557
0.0148257
0.014877
0.0149398
0.0150142
0.0150771
0.0151486
0.0152199
0.015281
0.0153402
0.0153939
0.0154534
0.0155135
0.0155629
0.0156308
0.0156966
0.0157565
0.0158004
0.0158578
0.0159042
0.0159529
0.0160097
0.0160602
0.0161161
0.0161757
0.0162173
0.0162608
0.0163039
0.0163466
0.016398
0.0164472
0.0164868
0.0165292
0.0165743
0.0166084
0.0166499
0.0166898
0.0167329
0.0167738
0.0168159
0.0168558
0.0168914
0.016929
0.0169664
0.0170152
0.0170538
0.0170937
0.0171383
0.0171851
0.0172329
0.0172778
0.0173203
0.0173639
0.0174133
0.0174627
0.0175067
0.0175774
)
;

boundaryField
{
    inlet
    {
        type            fixedValue;
        value           uniform 0;
    }
    outlet
    {
        type            zeroGradient;
    }
    yzfaces
    {
        type            empty;
    }
}


// ************************************************************************* //
