/*--------------------------------*- C++ -*----------------------------------*\
| =========                 |                                                 |
| \\      /  F ield         | foam-extend: Open Source CFD                    |
|  \\    /   O peration     | Version:     5.0                                |
|   \\  /    A nd           | Web:         http://www.foam-extend.org         |
|    \\/     M anipulation  |                                                 |
\*---------------------------------------------------------------------------*/
FoamFile
{
    version     2.0;
    format      ascii;
    class       volScalarField;
    location    "8";
    object      CO2.gas;
}
// * * * * * * * * * * * * * * * * * * * * * * * * * * * * * * * * * * * * * //

dimensions      [0 0 0 0 0 0 0];

internalField   nonuniform List<scalar> 
100
(
0.164826
0.152921
0.142997
0.136855
0.134414
0.132269
0.128539
0.12384
0.118641
0.114752
0.112092
0.109507
0.106593
0.104212
0.102004
0.0994479
0.097354
0.0961009
0.0944562
0.0928213
0.0914074
0.0901061
0.0883738
0.087298
0.0866167
0.0862849
0.0859924
0.084943
0.0840455
0.0830436
0.0820094
0.0807503
0.079504
0.0786664
0.0776951
0.0768603
0.0762155
0.0754527
0.074796
0.0741349
0.0733881
0.0727169
0.0720981
0.0715293
0.0708439
0.0702975
0.069798
0.0693255
0.0687762
0.0682415
0.0675599
0.0669971
0.0664477
0.0659044
0.0653039
0.0648573
0.0643428
0.0638069
0.0632853
0.0628515
0.0623411
0.061864
0.0614332
0.061036
0.0606042
0.0601202
0.059707
0.0591769
0.0587658
0.0584109
0.0579894
0.0575815
0.0571588
0.056789
0.0563546
0.0560107
0.0555992
0.0552773
0.0548824
0.0545907
0.0543072
0.0539704
0.0536158
0.053221
0.0528125
0.0524949
0.0521377
0.0518079
0.0514444
0.0511082
0.050756
0.0503222
0.0499238
0.0495362
0.0491133
0.0487293
0.0483467
0.047956
0.0475349
0.0471289
)
;

boundaryField
{
    inlet
    {
        type            fixedValue;
        value           uniform 0.2;
    }
    outlet
    {
        type            zeroGradient;
    }
    yzfaces
    {
        type            empty;
    }
}


// ************************************************************************* //
