/*--------------------------------*- C++ -*----------------------------------*\
| =========                 |                                                 |
| \\      /  F ield         | foam-extend: Open Source CFD                    |
|  \\    /   O peration     | Version:     5.0                                |
|   \\  /    A nd           | Web:         http://www.foam-extend.org         |
|    \\/     M anipulation  |                                                 |
\*---------------------------------------------------------------------------*/
FoamFile
{
    version     2.0;
    format      ascii;
    class       volScalarField;
    location    "8";
    object      CO2.water;
}
// * * * * * * * * * * * * * * * * * * * * * * * * * * * * * * * * * * * * * //

dimensions      [0 0 0 0 0 0 0];

internalField   nonuniform List<scalar> 
100
(
0.00091559
0.00123835
0.00147808
0.00164792
0.00170313
0.00176661
0.00186458
0.00198202
0.00212648
0.00222673
0.00230039
0.00236848
0.00245173
0.00251348
0.0025717
0.00263892
0.00268849
0.0027259
0.00277775
0.00281885
0.00285199
0.00289657
0.00293855
0.00295496
0.00296799
0.00297115
0.00299267
0.00302374
0.00305636
0.00307493
0.00310386
0.00313522
0.00315698
0.00318059
0.00321282
0.00323433
0.0032515
0.0032689
0.00328287
0.00330217
0.00331952
0.00334031
0.00335796
0.0033739
0.00338971
0.00340247
0.00341675
0.00343366
0.00344858
0.00346495
0.0034819
0.00349532
0.00350858
0.0035208
0.00353361
0.00354583
0.00355784
0.00357302
0.00358805
0.00360229
0.00361347
0.00362689
0.00363662
0.00364873
0.00366087
0.00367327
0.00368615
0.00369837
0.00370769
0.00371772
0.00372855
0.00373927
0.0037517
0.00376274
0.00377131
0.00378122
0.00379205
0.00379998
0.00380933
0.00381759
0.00382738
0.00383669
0.00384625
0.00385481
0.00386287
0.00387152
0.00388035
0.00389059
0.00389894
0.00390794
0.00391867
0.00392921
0.00394006
0.00395065
0.00396088
0.00397123
0.00398264
0.00399354
0.00400417
0.00401872
)
;

boundaryField
{
    inlet
    {
        type            fixedValue;
        value           uniform 0;
    }
    outlet
    {
        type            zeroGradient;
    }
    yzfaces
    {
        type            empty;
    }
}


// ************************************************************************* //
