/*--------------------------------*- C++ -*----------------------------------*\
| =========                 |                                                 |
| \\      /  F ield         | foam-extend: Open Source CFD                    |
|  \\    /   O peration     | Version:     5.0                                |
|   \\  /    A nd           | Web:         http://www.foam-extend.org         |
|    \\/     M anipulation  |                                                 |
\*---------------------------------------------------------------------------*/
FoamFile
{
    version     2.0;
    format      ascii;
    class       volScalarField;
    location    "8";
    object      H2O.gas;
}
// * * * * * * * * * * * * * * * * * * * * * * * * * * * * * * * * * * * * * //

dimensions      [0 0 0 0 0 0 0];

internalField   nonuniform List<scalar> 
100
(
0.00032162
0.00029839
0.000279026
0.000267042
0.000262279
0.000258092
0.000250814
0.000241644
0.0002315
0.000223911
0.000218721
0.000213677
0.000207992
0.000203345
0.000199038
0.00019405
0.000189964
0.000187519
0.00018431
0.000181119
0.000178361
0.000175821
0.000172441
0.000170342
0.000169013
0.000168365
0.000167794
0.000165747
0.000163996
0.00016204
0.000160023
0.000157566
0.000155134
0.0001535
0.000151604
0.000149975
0.000148717
0.000147229
0.000145947
0.000144657
0.0001432
0.00014189
0.000140683
0.000139573
0.000138236
0.000137169
0.000136195
0.000135273
0.000134201
0.000133158
0.000131828
0.000130729
0.000129657
0.000128597
0.000127426
0.000126554
0.00012555
0.000124505
0.000123487
0.00012264
0.000121644
0.000120713
0.000119873
0.000119098
0.000118255
0.000117311
0.000116505
0.00011547
0.000114668
0.000113976
0.000113153
0.000112357
0.000111532
0.000110811
0.000109963
0.000109292
0.000108489
0.000107861
0.00010709
0.000106521
0.000105968
0.000105311
0.000104619
0.000103849
0.000103052
0.000102432
0.000101735
0.000101091
0.000100382
9.9726e-05
9.90388e-05
9.81923e-05
9.74148e-05
9.66585e-05
9.58333e-05
9.50841e-05
9.43375e-05
9.35751e-05
9.27534e-05
9.19613e-05
)
;

boundaryField
{
    inlet
    {
        type            fixedValue;
        value           uniform 0;
    }
    outlet
    {
        type            zeroGradient;
    }
    yzfaces
    {
        type            empty;
    }
}


// ************************************************************************* //
