/*--------------------------------*- C++ -*----------------------------------*\
| =========                 |                                                 |
| \\      /  F ield         | foam-extend: Open Source CFD                    |
|  \\    /   O peration     | Version:     5.0                                |
|   \\  /    A nd           | Web:         http://www.foam-extend.org         |
|    \\/     M anipulation  |                                                 |
\*---------------------------------------------------------------------------*/
FoamFile
{
    version     2.0;
    format      ascii;
    class       volScalarField;
    location    "8";
    object      Na.water;
}
// * * * * * * * * * * * * * * * * * * * * * * * * * * * * * * * * * * * * * //

dimensions      [0 0 0 0 0 0 0];

internalField   nonuniform List<scalar> 
100
(
0.00400258
0.0053726
0.0065144
0.00722064
0.00750059
0.00774683
0.0081772
0.0087173
0.00931544
0.00976366
0.0100712
0.0103671
0.0107049
0.0109752
0.0112288
0.0115208
0.0117617
0.0119059
0.0120957
0.0122803
0.0124438
0.0125946
0.0127939
0.0129194
0.0130022
0.0130399
0.0130757
0.0131977
0.0133001
0.0134142
0.0135354
0.0136787
0.0138214
0.0139204
0.0140297
0.0141268
0.0142007
0.0142861
0.0143602
0.0144369
0.0145229
0.014598
0.0146682
0.0147337
0.0148142
0.0148787
0.0149332
0.0149866
0.0150519
0.015112
0.0151895
0.015254
0.0153175
0.015381
0.0154486
0.0155023
0.0155586
0.0156208
0.0156827
0.0157355
0.0157956
0.0158486
0.0158926
0.015934
0.0159894
0.0160459
0.0160973
0.0161586
0.0162046
0.0162457
0.0162939
0.016343
0.0163917
0.016438
0.0164883
0.0165261
0.0165683
0.0166106
0.0166558
0.0166848
0.0167191
0.0167604
0.0167981
0.0168417
0.0168913
0.0169294
0.0169671
0.0170055
0.0170493
0.0170868
0.0171294
0.0171769
0.0172229
0.0172673
0.0173166
0.0173599
0.0174059
0.017448
0.0174974
0.0175441
)
;

boundaryField
{
    inlet
    {
        type            fixedValue;
        value           uniform 0;
    }
    outlet
    {
        type            zeroGradient;
    }
    yzfaces
    {
        type            empty;
    }
}


// ************************************************************************* //
