/*--------------------------------*- C++ -*----------------------------------*\
| =========                 |                                                 |
| \\      /  F ield         | foam-extend: Open Source CFD                    |
|  \\    /   O peration     | Version:     5.0                                |
|   \\  /    A nd           | Web:         http://www.foam-extend.org         |
|    \\/     M anipulation  |                                                 |
\*---------------------------------------------------------------------------*/
FoamFile
{
    version     2.0;
    format      ascii;
    class       surfaceScalarField;
    location    "8";
    object      phi.water;
}
// * * * * * * * * * * * * * * * * * * * * * * * * * * * * * * * * * * * * * //

dimensions      [0 3 -1 0 0 0 0];

internalField   nonuniform List<scalar> 
99
(
7.56939e-08
1.25107e-07
1.81274e-07
2.26268e-07
2.42586e-07
2.54088e-07
2.782e-07
3.15515e-07
3.70766e-07
4.17503e-07
4.47516e-07
4.81794e-07
5.21908e-07
5.59886e-07
5.91393e-07
6.37776e-07
6.77027e-07
7.03483e-07
7.36453e-07
7.71158e-07
8.01789e-07
8.27153e-07
8.72631e-07
8.98176e-07
9.1934e-07
9.29151e-07
9.31926e-07
9.59761e-07
9.84624e-07
1.01146e-06
1.04304e-06
1.07538e-06
1.11852e-06
1.14571e-06
1.17649e-06
1.20454e-06
1.22703e-06
1.25209e-06
1.27523e-06
1.29552e-06
1.32746e-06
1.35617e-06
1.38e-06
1.40216e-06
1.43156e-06
1.45436e-06
1.47552e-06
1.49275e-06
1.51434e-06
1.53828e-06
1.56689e-06
1.59368e-06
1.61998e-06
1.64365e-06
1.67665e-06
1.69119e-06
1.71429e-06
1.73874e-06
1.7708e-06
1.79073e-06
1.81491e-06
1.84475e-06
1.87162e-06
1.89283e-06
1.91154e-06
1.93925e-06
1.96305e-06
2.00417e-06
2.02721e-06
2.04984e-06
2.08101e-06
2.1042e-06
2.1315e-06
2.15003e-06
2.17715e-06
2.19465e-06
2.22416e-06
2.24101e-06
2.27197e-06
2.28699e-06
2.30609e-06
2.31984e-06
2.34486e-06
2.36729e-06
2.40026e-06
2.42301e-06
2.44664e-06
2.4655e-06
2.48819e-06
2.50521e-06
2.52116e-06
2.55526e-06
2.58391e-06
2.60842e-06
2.63588e-06
2.66037e-06
2.69031e-06
2.71362e-06
2.73945e-06
)
;

boundaryField
{
    inlet
    {
        type            fixedValue;
        value           uniform 0;
    }
    outlet
    {
        type            calculated;
        value           uniform 2.76552e-06;
    }
    yzfaces
    {
        type            empty;
    }
}


// ************************************************************************* //
