/*--------------------------------*- C++ -*----------------------------------*\
| =========                 |                                                 |
| \\      /  F ield         | foam-extend: Open Source CFD                    |
|  \\    /   O peration     | Version:     5.0                                |
|   \\  /    A nd           | Web:         http://www.foam-extend.org         |
|    \\/     M anipulation  |                                                 |
\*---------------------------------------------------------------------------*/
FoamFile
{
    version     2.0;
    format      ascii;
    class       volVectorField;
    location    "8";
    object      U.gas;
}
// * * * * * * * * * * * * * * * * * * * * * * * * * * * * * * * * * * * * * //

dimensions      [0 1 -1 0 0 0 0];

internalField   nonuniform List<vector> 
100
(
(0.00607205 0 0)
(0.00654345 0 0)
(0.0069258 0 0)
(0.00726371 0 0)
(0.0074035 0 0)
(0.00754063 0 0)
(0.00771691 0 0)
(0.00789762 0 0)
(0.00818891 0 0)
(0.00843236 0 0)
(0.00860563 0 0)
(0.00877124 0 0)
(0.00898031 0 0)
(0.0091357 0 0)
(0.00928606 0 0)
(0.00946984 0 0)
(0.00960781 0 0)
(0.00972209 0 0)
(0.00988815 0 0)
(0.0100112 0 0)
(0.0101291 0 0)
(0.010315 0 0)
(0.0104566 0 0)
(0.0105007 0 0)
(0.0105892 0 0)
(0.0106313 0 0)
(0.0107275 0 0)
(0.010818 0 0)
(0.0109191 0 0)
(0.0109984 0 0)
(0.0111138 0 0)
(0.0112386 0 0)
(0.0113318 0 0)
(0.0113902 0 0)
(0.01148 0 0)
(0.0115407 0 0)
(0.0115909 0 0)
(0.0116655 0 0)
(0.0117214 0 0)
(0.0118148 0 0)
(0.0118872 0 0)
(0.0119579 0 0)
(0.0120092 0 0)
(0.0120467 0 0)
(0.0120841 0 0)
(0.012111 0 0)
(0.012168 0 0)
(0.0122383 0 0)
(0.0123015 0 0)
(0.0123755 0 0)
(0.0124379 0 0)
(0.0124745 0 0)
(0.0125068 0 0)
(0.0125233 0 0)
(0.0125654 0 0)
(0.0126028 0 0)
(0.0126065 0 0)
(0.0126382 0 0)
(0.0126817 0 0)
(0.0127243 0 0)
(0.0127507 0 0)
(0.0128159 0 0)
(0.0128511 0 0)
(0.012913 0 0)
(0.0129414 0 0)
(0.0129437 0 0)
(0.0129632 0 0)
(0.0129871 0 0)
(0.0130287 0 0)
(0.0130644 0 0)
(0.0130815 0 0)
(0.0130852 0 0)
(0.0131086 0 0)
(0.0131529 0 0)
(0.0131802 0 0)
(0.0132068 0 0)
(0.0132462 0 0)
(0.0132712 0 0)
(0.0132961 0 0)
(0.0132912 0 0)
(0.0132973 0 0)
(0.0133245 0 0)
(0.0133381 0 0)
(0.0133366 0 0)
(0.0133525 0 0)
(0.0133577 0 0)
(0.0133621 0 0)
(0.0133914 0 0)
(0.0133852 0 0)
(0.0133691 0 0)
(0.0133792 0 0)
(0.0133907 0 0)
(0.0134093 0 0)
(0.0134349 0 0)
(0.0134299 0 0)
(0.0133888 0 0)
(0.0133781 0 0)
(0.0133886 0 0)
(0.0133925 0 0)
(0.0134291 0 0)
)
;

boundaryField
{
    inlet
    {
        type            fixedValue;
        value           uniform (0.005 0 0);
    }
    outlet
    {
        type            zeroGradient;
    }
    yzfaces
    {
        type            empty;
    }
}


// ************************************************************************* //
