/*--------------------------------*- C++ -*----------------------------------*\
| =========                 |                                                 |
| \\      /  F ield         | foam-extend: Open Source CFD                    |
|  \\    /   O peration     | Version:     5.0                                |
|   \\  /    A nd           | Web:         http://www.foam-extend.org         |
|    \\/     M anipulation  |                                                 |
\*---------------------------------------------------------------------------*/
FoamFile
{
    version     2.0;
    format      ascii;
    class       volScalarField;
    location    "9.06937";
    object      CO2.water;
}
// * * * * * * * * * * * * * * * * * * * * * * * * * * * * * * * * * * * * * //

dimensions      [0 0 0 0 0 0 0];

internalField   nonuniform List<scalar> 
100
(
5.95115e-05
1.51529e-05
3.20173e-06
6.13917e-07
1.10454e-07
1.89934e-08
3.15607e-09
5.10375e-10
8.07038e-11
1.25237e-11
1.91228e-12
2.87911e-13
4.28052e-14
6.29159e-15
9.15186e-16
1.31881e-16
1.88417e-17
2.67006e-18
3.75471e-19
5.24303e-20
7.27299e-21
1.00253e-21
1.37341e-22
1.87105e-23
2.53494e-24
3.41641e-25
4.58169e-26
6.11509e-27
8.12298e-28
1.07418e-28
1.41456e-29
1.85498e-30
2.42227e-31
3.15138e-32
4.08409e-33
5.27287e-34
6.78387e-35
8.69688e-36
1.11103e-36
1.41469e-37
1.79535e-38
2.27143e-39
2.86492e-40
3.60209e-41
4.51603e-42
5.64529e-43
7.03667e-44
8.74755e-45
1.08437e-45
1.34074e-46
1.65324e-47
2.0332e-48
2.4945e-49
3.05275e-50
3.7265e-51
4.53806e-52
5.51241e-53
6.68191e-54
8.08025e-55
9.75034e-56
1.17388e-56
1.41018e-57
1.69059e-58
2.02219e-59
2.41386e-60
2.87534e-61
3.41802e-62
4.05463e-63
4.80069e-64
5.67298e-65
6.69047e-66
7.87619e-67
9.25467e-68
1.08545e-68
1.27059e-69
1.4845e-70
1.73153e-71
2.01616e-72
2.34404e-73
2.72014e-74
3.1516e-75
3.64488e-76
4.20919e-77
4.85263e-78
5.585e-79
6.41789e-80
7.36251e-81
8.43439e-82
9.64725e-83
1.10172e-83
1.25622e-84
1.43032e-85
1.62598e-86
1.84591e-87
2.09248e-88
2.3686e-89
2.67748e-90
3.02232e-91
3.40742e-92
3.83594e-93
)
;

boundaryField
{
    inlet
    {
        type            fixedValue;
        value           uniform 0;
    }
    outlet
    {
        type            zeroGradient;
    }
    yzfaces
    {
        type            empty;
    }
}


// ************************************************************************* //
