/*--------------------------------*- C++ -*----------------------------------*\
| =========                 |                                                 |
| \\      /  F ield         | foam-extend: Open Source CFD                    |
|  \\    /   O peration     | Version:     5.0                                |
|   \\  /    A nd           | Web:         http://www.foam-extend.org         |
|    \\/     M anipulation  |                                                 |
\*---------------------------------------------------------------------------*/
FoamFile
{
    version     2.0;
    format      ascii;
    class       volScalarField;
    location    "1.6678057256696";
    object      alpha.gas;
}
// * * * * * * * * * * * * * * * * * * * * * * * * * * * * * * * * * * * * * //

dimensions      [0 0 0 0 0 0 0];

internalField   nonuniform List<scalar> 
100
(
0.128335
0.110989
0.0997745
0.0922002
0.086211
0.0806592
0.0763677
0.0723289
0.0687898
0.0652799
0.0619529
0.0586724
0.0554605
0.0525114
0.0473524
0.0428573
0.0398099
0.0379543
0.0369308
0.0362976
0.0358225
0.0352757
0.0346051
0.0337298
0.0326596
0.03141
0.0299541
0.0283436
0.0265385
0.0245488
0.022414
0.0202138
0.018024
0.0159744
0.0141927
0.0127736
0.0117422
0.0110474
0.0106095
0.010347
0.0101938
0.0101051
0.0100569
0.0100301
0.0100159
0.010008
0.0100051
0.0100032
0.0100012
0.00999755
0.00999679
0.00999517
0.00999917
0.00999926
0.0100007
0.0100001
0.0100017
0.0100003
0.0100004
0.0100013
0.00999944
0.00999941
0.00999959
0.0100013
0.0100019
0.0100004
0.0100017
0.0100014
0.0099998
0.0100011
0.00999972
0.0100009
0.0100037
0.0100016
0.0100003
0.0100004
0.0100015
0.0100012
0.0100004
0.00999929
0.00999853
0.00999983
0.00999998
0.00999914
0.0099984
0.0100012
0.0100013
0.0100032
0.0100016
0.00999965
0.0100001
0.00999984
0.00999954
0.00999848
0.00999876
0.00999798
0.00999758
0.00999872
0.00999741
0.00999566
)
;

boundaryField
{
    inlet
    {
        type            fixedValue;
        value           uniform 0.2;
    }
    outlet
    {
        type            zeroGradient;
    }
    yzfaces
    {
        type            empty;
    }
}


// ************************************************************************* //
