/*--------------------------------*- C++ -*----------------------------------*\
| =========                 |                                                 |
| \\      /  F ield         | foam-extend: Open Source CFD                    |
|  \\    /   O peration     | Version:     5.0                                |
|   \\  /    A nd           | Web:         http://www.foam-extend.org         |
|    \\/     M anipulation  |                                                 |
\*---------------------------------------------------------------------------*/
FoamFile
{
    version     2.0;
    format      ascii;
    class       volScalarField;
    location    "1.6678057256696";
    object      Cl.water;
}
// * * * * * * * * * * * * * * * * * * * * * * * * * * * * * * * * * * * * * //

dimensions      [0 0 0 0 0 0 0];

internalField   nonuniform List<scalar> 
100
(
0
0.00483022
0.00856392
0.00652241
0.00686154
0.00907301
0.00738261
0.00755595
0.00971487
0.0122652
0.00824061
0.00899132
0.0121349
0.0149748
0.00631422
0.011124
0.0157773
0.0182668
0.0192823
0.0196648
0.0198247
0.019916
0.0200077
0.0201155
0.0202467
0.0204017
0.0205819
0.0207869
0.0209704
0.021218
0.0214672
0.021752
0.0220125
0.0222739
0.0224924
0.022664
0.0227844
0.0228755
0.0229144
0.0229475
0.022971
0.0229801
0.0229892
0.0230051
0.022987
0.0230059
0.0230011
0.0230085
0.0230058
0.0229895
0.022988
0.0229859
0.0229754
0.0229816
0.0229925
0.022996
0.0230129
0.0230174
0.0230253
0.022994
0.0229945
0.0229762
0.0229857
0.0229754
0.0229751
0.0230131
0.022992
0.022999
0.0229681
0.0229839
0.0229829
0.0230102
0.0230077
0.0230265
0.023021
0.0230167
0.0230156
0.0229998
0.0230063
0.0230174
0.023032
0.0230272
0.0230214
0.0230102
0.0230255
0.0229862
0.0229891
0.0229999
0.022991
0.0230143
0.0230048
0.0229961
0.0229835
0.022972
0.0229691
0.0229587
0.0229491
0.0229498
0.0229542
0.0229558
)
;

boundaryField
{
    inlet
    {
        type            fixedValue;
        value           uniform 0;
    }
    outlet
    {
        type            zeroGradient;
    }
    yzfaces
    {
        type            empty;
    }
}


// ************************************************************************* //
