/*--------------------------------*- C++ -*----------------------------------*\
| =========                 |                                                 |
| \\      /  F ield         | foam-extend: Open Source CFD                    |
|  \\    /   O peration     | Version:     5.0                                |
|   \\  /    A nd           | Web:         http://www.foam-extend.org         |
|    \\/     M anipulation  |                                                 |
\*---------------------------------------------------------------------------*/
FoamFile
{
    version     2.0;
    format      ascii;
    class       volScalarField;
    location    "1.6678057256696";
    object      CO2.water;
}
// * * * * * * * * * * * * * * * * * * * * * * * * * * * * * * * * * * * * * //

dimensions      [0 0 0 0 0 0 0];

internalField   nonuniform List<scalar> 
100
(
0.00188114
0.00130048
0.000773059
0.00142035
0.00150623
0.00115705
0.00163912
0.00170656
0.00132944
0.000864405
0.00182663
0.00174969
0.00115216
0.000623514
0.00262488
0.0017064
0.00077611
0.000294866
9.91363e-05
3.06325e-05
8.97564e-06
2.55493e-06
7.18825e-07
1.98128e-07
4.97916e-08
1.01898e-08
2.11719e-09
4.53331e-10
9.96771e-11
2.26417e-11
5.09094e-12
1.4713e-12
5.6642e-13
2.22915e-13
8.8965e-14
3.60695e-14
1.47078e-14
6.02931e-15
2.48321e-15
1.02216e-15
4.22495e-16
1.75035e-16
7.25254e-17
2.99847e-17
1.24084e-17
5.1224e-18
2.11794e-18
8.74717e-19
3.61552e-19
1.4937e-19
6.17943e-20
2.55375e-20
1.05742e-20
4.37131e-21
1.81068e-21
7.4976e-22
3.1081e-22
1.28763e-22
5.3296e-23
2.20754e-23
9.15915e-24
3.79501e-24
1.57307e-24
6.52699e-25
2.70125e-25
1.11762e-25
4.63762e-26
1.91605e-26
7.94762e-27
3.28468e-27
1.36068e-27
5.62851e-28
2.33235e-28
9.6545e-29
4.00542e-29
1.65856e-29
6.87319e-30
2.84735e-30
1.18071e-30
4.89413e-31
2.03032e-31
8.40187e-32
3.48329e-32
1.44255e-32
5.96101e-33
2.47037e-33
1.02289e-33
4.22288e-34
1.75448e-34
7.26781e-35
3.01132e-35
1.2476e-35
5.17667e-36
2.14734e-36
8.90409e-37
3.6848e-37
1.52362e-37
6.31677e-38
2.6125e-38
1.36589e-38
)
;

boundaryField
{
    inlet
    {
        type            fixedValue;
        value           uniform 0;
    }
    outlet
    {
        type            zeroGradient;
    }
    yzfaces
    {
        type            empty;
    }
}


// ************************************************************************* //
