/*--------------------------------*- C++ -*----------------------------------*\
| =========                 |                                                 |
| \\      /  F ield         | foam-extend: Open Source CFD                    |
|  \\    /   O peration     | Version:     5.0                                |
|   \\  /    A nd           | Web:         http://www.foam-extend.org         |
|    \\/     M anipulation  |                                                 |
\*---------------------------------------------------------------------------*/
FoamFile
{
    version     2.0;
    format      ascii;
    class       volScalarField;
    location    "1.6678057256696";
    object      H2O.gas;
}
// * * * * * * * * * * * * * * * * * * * * * * * * * * * * * * * * * * * * * //

dimensions      [0 0 0 0 0 0 0];

internalField   nonuniform List<scalar> 
100
(
3.14749e-10
3.41548e-08
2.35983e-07
8.99294e-07
2.5735e-06
6.21371e-06
1.33319e-05
2.59618e-05
4.76934e-05
8.49376e-05
0.000139472
0.000219342
0.000349016
0.000570415
0.0007013
0.00107727
0.00179705
0.00285867
0.00418946
0.00573951
0.00746233
0.0093011
0.011195
0.0130786
0.0148743
0.0164956
0.0178362
0.0188444
0.0193578
0.0194095
0.0189446
0.0180492
0.0167703
0.0153223
0.0138906
0.0126468
0.0116946
0.0110348
0.0106029
0.0103444
0.0101928
0.0101038
0.0100549
0.010033
0.0100123
0.0100109
0.0100056
0.0100076
0.0100087
0.00999372
0.00999237
0.00998771
0.00998682
0.00998951
0.00999272
0.00999292
0.0100016
0.0100018
0.0100071
0.00999622
0.00999752
0.00999115
0.00999381
0.00999092
0.0099914
0.0100068
0.00999869
0.0100027
0.00999142
0.0100019
0.00999983
0.0100094
0.0100081
0.0100131
0.0100102
0.0100088
0.0100088
0.0100023
0.0100057
0.0100088
0.0100132
0.0100091
0.0100054
0.00999964
0.0100067
0.00999252
0.00999417
0.00999835
0.00999088
0.0100014
0.00999998
0.0099993
0.00999385
0.00999118
0.00998887
0.00998145
0.00997899
0.00997938
0.00997964
0.00997817
)
;

boundaryField
{
    inlet
    {
        type            fixedValue;
        value           uniform 0;
    }
    outlet
    {
        type            zeroGradient;
    }
    yzfaces
    {
        type            empty;
    }
}


// ************************************************************************* //
