/*--------------------------------*- C++ -*----------------------------------*\
| =========                 |                                                 |
| \\      /  F ield         | foam-extend: Open Source CFD                    |
|  \\    /   O peration     | Version:     5.0                                |
|   \\  /    A nd           | Web:         http://www.foam-extend.org         |
|    \\/     M anipulation  |                                                 |
\*---------------------------------------------------------------------------*/
FoamFile
{
    version     2.0;
    format      ascii;
    class       volScalarField;
    location    "1.6678057256696";
    object      Na.water;
}
// * * * * * * * * * * * * * * * * * * * * * * * * * * * * * * * * * * * * * //

dimensions      [0 0 0 0 0 0 0];

internalField   nonuniform List<scalar> 
100
(
0
0.00483152
0.00856757
0.00652193
0.0068626
0.00907913
0.00738502
0.0075526
0.00971149
0.0122645
0.00824037
0.00899233
0.0121334
0.0149714
0.00631244
0.011122
0.0157809
0.0182715
0.0192895
0.0196725
0.0198246
0.0199156
0.0199965
0.0201072
0.0202468
0.0204056
0.0205877
0.0207923
0.0209773
0.0212264
0.0214767
0.0217555
0.0220138
0.0222671
0.022483
0.0226526
0.0227827
0.022879
0.0229181
0.022948
0.0229632
0.0229713
0.0229782
0.0229913
0.022978
0.0229922
0.0229881
0.0230003
0.0229992
0.0229772
0.0229835
0.0229806
0.0229799
0.0229882
0.0229927
0.0229991
0.0230108
0.023016
0.0230225
0.0229921
0.0229977
0.0229841
0.0229877
0.0229807
0.0229754
0.0230103
0.0229935
0.0230041
0.0229836
0.0229985
0.0229853
0.0230095
0.0230023
0.0230129
0.02301
0.0230108
0.0230134
0.0229989
0.0230089
0.0230207
0.0230358
0.0230254
0.023021
0.0230119
0.0230341
0.0229933
0.0229879
0.0229951
0.0229772
0.0230004
0.0229969
0.0229944
0.0229879
0.0229845
0.0229777
0.0229652
0.0229587
0.0229626
0.0229657
0.0229649
)
;

boundaryField
{
    inlet
    {
        type            fixedValue;
        value           uniform 0;
    }
    outlet
    {
        type            zeroGradient;
    }
    yzfaces
    {
        type            empty;
    }
}


// ************************************************************************* //
