/*--------------------------------*- C++ -*----------------------------------*\
| =========                 |                                                 |
| \\      /  F ield         | foam-extend: Open Source CFD                    |
|  \\    /   O peration     | Version:     5.0                                |
|   \\  /    A nd           | Web:         http://www.foam-extend.org         |
|    \\/     M anipulation  |                                                 |
\*---------------------------------------------------------------------------*/
FoamFile
{
    version     2.0;
    format      ascii;
    class       surfaceScalarField;
    location    "1.6678057256696";
    object      phi;
}
// * * * * * * * * * * * * * * * * * * * * * * * * * * * * * * * * * * * * * //

dimensions      [0 3 -1 0 0 0 0];

internalField   nonuniform List<scalar> 
99
(
1.22398e-06
1.22425e-06
1.22477e-06
1.22122e-06
1.22167e-06
1.22931e-06
1.22447e-06
1.22621e-06
1.2209e-06
1.21855e-06
1.21996e-06
1.21745e-06
1.21979e-06
1.22108e-06
1.21835e-06
1.22121e-06
1.22227e-06
1.22362e-06
1.22309e-06
1.22413e-06
1.22394e-06
1.22522e-06
1.22537e-06
1.22771e-06
1.22947e-06
1.23091e-06
1.23289e-06
1.23193e-06
1.23111e-06
1.23068e-06
1.23075e-06
1.22956e-06
1.22963e-06
1.23114e-06
1.23106e-06
1.2318e-06
1.23001e-06
1.22951e-06
1.23055e-06
1.22918e-06
1.22977e-06
1.22942e-06
1.22838e-06
1.22816e-06
1.22694e-06
1.22878e-06
1.22864e-06
1.22888e-06
1.2301e-06
1.22804e-06
1.22849e-06
1.22843e-06
1.2282e-06
1.22965e-06
1.22909e-06
1.2287e-06
1.22794e-06
1.2263e-06
1.22613e-06
1.2264e-06
1.22575e-06
1.22576e-06
1.22413e-06
1.22548e-06
1.22378e-06
1.22474e-06
1.22623e-06
1.22413e-06
1.22379e-06
1.22355e-06
1.22249e-06
1.22145e-06
1.22119e-06
1.22231e-06
1.22205e-06
1.22178e-06
1.22003e-06
1.21915e-06
1.22011e-06
1.21981e-06
1.21987e-06
1.21913e-06
1.21838e-06
1.21812e-06
1.21483e-06
1.21788e-06
1.21781e-06
1.21887e-06
1.21981e-06
1.21828e-06
1.21902e-06
1.21983e-06
1.2185e-06
1.21921e-06
1.21937e-06
1.21727e-06
1.21774e-06
1.2187e-06
1.21888e-06
)
;

boundaryField
{
    inlet
    {
        type            calculated;
        value           uniform -1.225e-06;
    }
    outlet
    {
        type            calculated;
        value           uniform 1.22045e-06;
    }
    yzfaces
    {
        type            empty;
    }
}


// ************************************************************************* //
