/*--------------------------------*- C++ -*----------------------------------*\
| =========                 |                                                 |
| \\      /  F ield         | foam-extend: Open Source CFD                    |
|  \\    /   O peration     | Version:     5.0                                |
|   \\  /    A nd           | Web:         http://www.foam-extend.org         |
|    \\/     M anipulation  |                                                 |
\*---------------------------------------------------------------------------*/
FoamFile
{
    version     2.0;
    format      ascii;
    class       volScalarField;
    location    "1.6678057256696";
    object      S.gas;
}
// * * * * * * * * * * * * * * * * * * * * * * * * * * * * * * * * * * * * * //

dimensions      [0 0 0 0 0 0 0];

internalField   nonuniform List<scalar> 
100
(
0.641674
0.554947
0.498872
0.461001
0.431055
0.403296
0.381838
0.361645
0.343949
0.3264
0.309765
0.293362
0.277303
0.262557
0.236762
0.214287
0.199049
0.189772
0.184654
0.181488
0.179112
0.176378
0.173026
0.168649
0.163298
0.15705
0.14977
0.141718
0.132692
0.122744
0.11207
0.101069
0.0901202
0.0798722
0.0709636
0.0638678
0.0587112
0.0552371
0.0530477
0.0517352
0.050969
0.0505255
0.0502844
0.0501504
0.0500795
0.0500402
0.0500255
0.0500161
0.050006
0.0499878
0.0499839
0.0499759
0.0499958
0.0499963
0.0500034
0.0500005
0.0500085
0.0500014
0.0500022
0.0500064
0.0499972
0.049997
0.0499979
0.0500064
0.0500095
0.0500019
0.0500087
0.0500068
0.049999
0.0500054
0.0499986
0.0500046
0.0500184
0.0500082
0.0500013
0.0500022
0.0500077
0.050006
0.050002
0.0499965
0.0499926
0.0499992
0.0499999
0.0499957
0.049992
0.050006
0.0500063
0.050016
0.0500081
0.0499983
0.0500005
0.0499992
0.0499977
0.0499924
0.0499938
0.0499899
0.0499879
0.0499936
0.049987
0.0499783
)
;

boundaryField
{
    inlet
    {
        type            calculated;
        value           uniform 1;
    }
    outlet
    {
        type            calculated;
        value           uniform 0.0499783;
    }
    yzfaces
    {
        type            empty;
    }
}


// ************************************************************************* //
