/*--------------------------------*- C++ -*----------------------------------*\
| =========                 |                                                 |
| \\      /  F ield         | foam-extend: Open Source CFD                    |
|  \\    /   O peration     | Version:     5.0                                |
|   \\  /    A nd           | Web:         http://www.foam-extend.org         |
|    \\/     M anipulation  |                                                 |
\*---------------------------------------------------------------------------*/
FoamFile
{
    version     2.0;
    format      ascii;
    class       volVectorField;
    location    "1.6678057256696";
    object      U.gas;
}
// * * * * * * * * * * * * * * * * * * * * * * * * * * * * * * * * * * * * * //

dimensions      [0 1 -1 0 0 0 0];

internalField   nonuniform List<vector> 
100
(
(0.00772101 0 0)
(0.00876627 0 0)
(0.00957049 0 0)
(0.0101441 0 0)
(0.0106277 0 0)
(0.0111579 0 0)
(0.0115391 0 0)
(0.0118928 0 0)
(0.0121852 0 0)
(0.012462 0 0)
(0.0127352 0 0)
(0.0129894 0 0)
(0.0132154 0 0)
(0.0133954 0 0)
(0.0138716 0 0)
(0.0138895 0 0)
(0.0136239 0 0)
(0.013308 0 0)
(0.0130561 0 0)
(0.0129115 0 0)
(0.0128281 0 0)
(0.0127889 0 0)
(0.0127451 0 0)
(0.012692 0 0)
(0.0126106 0 0)
(0.0124789 0 0)
(0.0122957 0 0)
(0.0120241 0 0)
(0.0116682 0 0)
(0.0112155 0 0)
(0.0106495 0 0)
(0.00995965 0 0)
(0.00916754 0 0)
(0.00830938 0 0)
(0.00744208 0 0)
(0.00664315 0 0)
(0.00598208 0 0)
(0.00549063 0 0)
(0.00516184 0 0)
(0.00495392 0 0)
(0.00482879 0 0)
(0.00475749 0 0)
(0.00471396 0 0)
(0.00468826 0 0)
(0.00467206 0 0)
(0.0046666 0 0)
(0.00466609 0 0)
(0.00466447 0 0)
(0.00466649 0 0)
(0.00466452 0 0)
(0.0046603 0 0)
(0.00466057 0 0)
(0.00465889 0 0)
(0.00466287 0 0)
(0.00466524 0 0)
(0.0046641 0 0)
(0.00466155 0 0)
(0.0046578 0 0)
(0.00465267 0 0)
(0.0046534 0 0)
(0.00465361 0 0)
(0.00465089 0 0)
(0.00464827 0 0)
(0.00464761 0 0)
(0.00464745 0 0)
(0.00464697 0 0)
(0.00465107 0 0)
(0.00465073 0 0)
(0.00464592 0 0)
(0.0046437 0 0)
(0.00464157 0 0)
(0.00463649 0 0)
(0.00463415 0 0)
(0.00463741 0 0)
(0.00463843 0 0)
(0.00463704 0 0)
(0.00463295 0 0)
(0.00462851 0 0)
(0.00462919 0 0)
(0.0046298 0 0)
(0.00462898 0 0)
(0.00462732 0 0)
(0.00462547 0 0)
(0.00462325 0 0)
(0.00461536 0 0)
(0.00461457 0 0)
(0.00462164 0 0)
(0.00462383 0 0)
(0.00462867 0 0)
(0.00462648 0 0)
(0.00462388 0 0)
(0.0046275 0 0)
(0.00462617 0 0)
(0.00462444 0 0)
(0.00462601 0 0)
(0.00462287 0 0)
(0.00461925 0 0)
(0.00462105 0 0)
(0.00462302 0 0)
(0.0046279 0 0)
)
;

boundaryField
{
    inlet
    {
        type            fixedValue;
        value           uniform (0.005 0 0);
    }
    outlet
    {
        type            zeroGradient;
    }
    yzfaces
    {
        type            empty;
    }
}


// ************************************************************************* //
