/*--------------------------------*- C++ -*----------------------------------*\
| =========                 |                                                 |
| \\      /  F ield         | foam-extend: Open Source CFD                    |
|  \\    /   O peration     | Version:     5.0                                |
|   \\  /    A nd           | Web:         http://www.foam-extend.org         |
|    \\/     M anipulation  |                                                 |
\*---------------------------------------------------------------------------*/
FoamFile
{
    version     2.0;
    format      ascii;
    class       volVectorField;
    location    "1.6678057256696";
    object      U.water;
}
// * * * * * * * * * * * * * * * * * * * * * * * * * * * * * * * * * * * * * //

dimensions      [0 1 -1 0 0 0 0];

internalField   nonuniform List<vector> 
100
(
(0.000121527 0 0)
(0.000295635 0 0)
(0.000446109 0 0)
(0.000585123 0 0)
(0.000710738 0 0)
(0.000841342 0 0)
(0.000973243 0 0)
(0.00109722 0 0)
(0.00122403 0 0)
(0.00135229 0 0)
(0.00149462 0 0)
(0.00164681 0 0)
(0.00181169 0 0)
(0.00198568 0 0)
(0.00221973 0 0)
(0.00254845 0 0)
(0.00284022 0 0)
(0.00304374 0 0)
(0.00316725 0 0)
(0.00323884 0 0)
(0.00328717 0 0)
(0.00332994 0 0)
(0.00338096 0 0)
(0.00344713 0 0)
(0.00353215 0 0)
(0.00363174 0 0)
(0.00374796 0 0)
(0.00387542 0 0)
(0.00401047 0 0)
(0.00415776 0 0)
(0.00431321 0 0)
(0.00446579 0 0)
(0.00460785 0 0)
(0.00473662 0 0)
(0.00484025 0 0)
(0.00491593 0 0)
(0.00496435 0 0)
(0.00499187 0 0)
(0.0050126 0 0)
(0.00502345 0 0)
(0.00502845 0 0)
(0.00503266 0 0)
(0.00503191 0 0)
(0.00503052 0 0)
(0.00502824 0 0)
(0.00502985 0 0)
(0.00503353 0 0)
(0.00503383 0 0)
(0.00503685 0 0)
(0.00503513 0 0)
(0.0050319 0 0)
(0.00503272 0 0)
(0.00503219 0 0)
(0.00503461 0 0)
(0.00503639 0 0)
(0.0050344 0 0)
(0.00503208 0 0)
(0.00502712 0 0)
(0.0050235 0 0)
(0.00502368 0 0)
(0.00502284 0 0)
(0.00502161 0 0)
(0.00501828 0 0)
(0.00501771 0 0)
(0.00501695 0 0)
(0.00501539 0 0)
(0.00502044 0 0)
(0.00501916 0 0)
(0.00501417 0 0)
(0.00501303 0 0)
(0.00501037 0 0)
(0.00500612 0 0)
(0.00500346 0 0)
(0.00500514 0 0)
(0.00500692 0 0)
(0.00500585 0 0)
(0.00500173 0 0)
(0.0049963 0 0)
(0.00499643 0 0)
(0.00499781 0 0)
(0.00499736 0 0)
(0.004996 0 0)
(0.0049929 0 0)
(0.00499083 0 0)
(0.0049836 0 0)
(0.00498314 0 0)
(0.00498916 0 0)
(0.00499117 0 0)
(0.00499522 0 0)
(0.00499408 0 0)
(0.00499252 0 0)
(0.00499567 0 0)
(0.00499462 0 0)
(0.00499336 0 0)
(0.00499515 0 0)
(0.00499115 0 0)
(0.00498783 0 0)
(0.0049908 0 0)
(0.00499315 0 0)
(0.00499665 0 0)
)
;

boundaryField
{
    inlet
    {
        type            fixedValue;
        value           uniform (0 0 0);
    }
    outlet
    {
        type            zeroGradient;
    }
    yzfaces
    {
        type            empty;
    }
}


// ************************************************************************* //
