/*--------------------------------*- C++ -*----------------------------------*\
| =========                 |                                                 |
| \\      /  F ield         | foam-extend: Open Source CFD                    |
|  \\    /   O peration     | Version:     5.0                                |
|   \\  /    A nd           | Web:         http://www.foam-extend.org         |
|    \\/     M anipulation  |                                                 |
\*---------------------------------------------------------------------------*/
FoamFile
{
    version     2.0;
    format      ascii;
    class       volScalarField;
    location    "4";
    object      alpha.gas;
}
// * * * * * * * * * * * * * * * * * * * * * * * * * * * * * * * * * * * * * //

dimensions      [0 0 0 0 0 0 0];

internalField   nonuniform List<scalar> 
100
(
0.15128
0.135679
0.126128
0.119837
0.113241
0.107867
0.10333
0.0988732
0.0960592
0.0926433
0.0906046
0.0880336
0.0859071
0.0839195
0.0819769
0.079973
0.0784989
0.076633
0.0751665
0.0738816
0.0724469
0.0713114
0.0699997
0.0686776
0.0676023
0.0664736
0.0654285
0.0644704
0.0634409
0.0625809
0.0615822
0.060724
0.059839
0.0589489
0.0580931
0.0572626
0.0564617
0.0556801
0.0549031
0.0541541
0.0534081
0.0526387
0.0518999
0.0511236
0.0503908
0.049662
0.04892
0.0481567
0.0474491
0.0466199
0.0458429
0.0450647
0.0442665
0.0434072
0.042573
0.0417166
0.0408485
0.0399551
0.0390395
0.0380901
0.0371322
0.0361254
0.0350503
0.033926
0.0327176
0.0314387
0.0300471
0.0285424
0.0269232
0.0251875
0.0233227
0.0213677
0.0193583
0.0173797
0.0155373
0.0139465
0.0126666
0.0117227
0.0110713
0.0106489
0.0103881
0.0102253
0.01013
0.0100762
0.010045
0.0100244
0.0100127
0.0100052
0.0100023
0.00999857
0.00999607
0.00999592
0.00999529
0.00999606
0.00999642
0.00999727
0.0099991
0.00999848
0.0100019
0.010001
)
;

boundaryField
{
    inlet
    {
        type            fixedValue;
        value           uniform 0.2;
    }
    outlet
    {
        type            zeroGradient;
    }
    yzfaces
    {
        type            empty;
    }
}


// ************************************************************************* //
