/*--------------------------------*- C++ -*----------------------------------*\
| =========                 |                                                 |
| \\      /  F ield         | foam-extend: Open Source CFD                    |
|  \\    /   O peration     | Version:     5.0                                |
|   \\  /    A nd           | Web:         http://www.foam-extend.org         |
|    \\/     M anipulation  |                                                 |
\*---------------------------------------------------------------------------*/
FoamFile
{
    version     2.0;
    format      ascii;
    class       volScalarField;
    location    "4";
    object      CO2.water;
}
// * * * * * * * * * * * * * * * * * * * * * * * * * * * * * * * * * * * * * //

dimensions      [0 0 0 0 0 0 0];

internalField   nonuniform List<scalar> 
100
(
0.00127961
0.00168937
0.0019402
0.00210543
0.00227869
0.00241984
0.002539
0.00265605
0.00272996
0.00281967
0.00287322
0.00294075
0.0029966
0.0030488
0.00309982
0.00315245
0.00319117
0.00324018
0.00327869
0.00331244
0.00335012
0.00337995
0.0034144
0.00344912
0.00347736
0.00350701
0.00353446
0.00355962
0.00358666
0.00360925
0.00363548
0.00365802
0.00368127
0.00370464
0.00372712
0.00374893
0.00376997
0.0037905
0.0038109
0.00383057
0.00385017
0.00387038
0.00388978
0.00391017
0.00392942
0.00394856
0.00396805
0.00398809
0.00400668
0.00402846
0.00404887
0.00406931
0.00409027
0.00411284
0.00413475
0.00415724
0.00418004
0.000177719
3.83054e-05
8.56081e-06
2.00331e-06
5.01391e-07
1.39619e-07
4.47982e-08
1.6631e-08
6.93581e-09
3.14802e-09
1.47856e-09
7.10462e-10
3.39168e-10
1.6135e-10
7.6279e-11
3.6052e-11
1.70701e-11
8.07708e-12
3.80235e-12
1.77147e-12
8.17439e-13
3.72512e-13
1.67341e-13
7.40646e-14
3.21107e-14
1.36121e-14
5.68994e-15
2.38747e-15
1.00207e-15
4.20735e-16
1.76145e-16
7.40309e-17
3.10545e-17
1.30395e-17
5.47213e-18
2.29658e-18
9.64614e-19
4.05493e-19
1.70259e-19
7.13351e-20
2.98649e-20
1.25505e-20
6.65506e-21
)
;

boundaryField
{
    inlet
    {
        type            fixedValue;
        value           uniform 0;
    }
    outlet
    {
        type            zeroGradient;
    }
    yzfaces
    {
        type            empty;
    }
}


// ************************************************************************* //
