/*--------------------------------*- C++ -*----------------------------------*\
| =========                 |                                                 |
| \\      /  F ield         | foam-extend: Open Source CFD                    |
|  \\    /   O peration     | Version:     5.0                                |
|   \\  /    A nd           | Web:         http://www.foam-extend.org         |
|    \\/     M anipulation  |                                                 |
\*---------------------------------------------------------------------------*/
FoamFile
{
    version     2.0;
    format      ascii;
    class       volScalarField;
    location    "4";
    object      H2O.water;
}
// * * * * * * * * * * * * * * * * * * * * * * * * * * * * * * * * * * * * * //

dimensions      [0 0 0 0 0 0 0];

internalField   nonuniform List<scalar> 
100
(
0.0278251
0.0365974
0.0412609
0.044595
0.0488746
0.0520715
0.0546692
0.0577643
0.0590878
0.0611648
0.0617838
0.0634183
0.0646694
0.0658917
0.0668654
0.0682945
0.0686149
0.0700939
0.0706791
0.0711911
0.072228
0.0727239
0.0735379
0.0743518
0.0748362
0.0754891
0.0760213
0.076477
0.0772354
0.0775745
0.0781602
0.0786167
0.0793684
0.0798078
0.0801866
0.0805379
0.0809883
0.0812613
0.0818362
0.0823414
0.0828426
0.0832517
0.0836949
0.0840801
0.084496
0.0849283
0.0854108
0.0858309
0.0861093
0.0866914
0.0870583
0.0874999
0.0879758
0.0885322
0.0889836
0.0895014
0.0899475
0.0925683
0.093024
0.0937036
0.0942853
0.094799
0.0953977
0.0961255
0.0968049
0.0976479
0.0984256
0.0993053
0.100233
0.101217
0.102258
0.103428
0.104631
0.105717
0.106812
0.107732
0.108546
0.108993
0.109337
0.109654
0.109777
0.110006
0.11006
0.110003
0.109969
0.109984
0.110029
0.110055
0.110086
0.110025
0.110048
0.11001
0.109951
0.109946
0.109903
0.10998
0.109913
0.109987
0.109925
0.109949
)
;

boundaryField
{
    inlet
    {
        type            fixedValue;
        value           uniform 0;
    }
    outlet
    {
        type            zeroGradient;
    }
    yzfaces
    {
        type            empty;
    }
}


// ************************************************************************* //
