/*--------------------------------*- C++ -*----------------------------------*\
| =========                 |                                                 |
| \\      /  F ield         | foam-extend: Open Source CFD                    |
|  \\    /   O peration     | Version:     5.0                                |
|   \\  /    A nd           | Web:         http://www.foam-extend.org         |
|    \\/     M anipulation  |                                                 |
\*---------------------------------------------------------------------------*/
FoamFile
{
    version     2.0;
    format      ascii;
    class       surfaceScalarField;
    location    "4";
    object      phi.water;
}
// * * * * * * * * * * * * * * * * * * * * * * * * * * * * * * * * * * * * * //

dimensions      [0 3 -1 0 0 0 0];

internalField   nonuniform List<scalar> 
99
(
1.2672e-07
2.22363e-07
3.02445e-07
3.59997e-07
4.36484e-07
5.12262e-07
5.82443e-07
6.67741e-07
7.18087e-07
8.01278e-07
8.40998e-07
9.11049e-07
9.69034e-07
1.03092e-06
1.08692e-06
1.1576e-06
1.20503e-06
1.28052e-06
1.33253e-06
1.38606e-06
1.44856e-06
1.49229e-06
1.5513e-06
1.61672e-06
1.66648e-06
1.72669e-06
1.78207e-06
1.83661e-06
1.89753e-06
1.93931e-06
2.00166e-06
2.05082e-06
2.10275e-06
2.15553e-06
2.21255e-06
2.26877e-06
2.31864e-06
2.37241e-06
2.42811e-06
2.47633e-06
2.52911e-06
2.58056e-06
2.63206e-06
2.69522e-06
2.74997e-06
2.80368e-06
2.85683e-06
2.92108e-06
2.96765e-06
3.04172e-06
3.10948e-06
3.17564e-06
3.24332e-06
3.32732e-06
3.40558e-06
3.48582e-06
3.57024e-06
3.65717e-06
3.7546e-06
3.84786e-06
3.94591e-06
4.04955e-06
4.15955e-06
4.27156e-06
4.40379e-06
4.52705e-06
4.67064e-06
4.82537e-06
4.98995e-06
5.1549e-06
5.33035e-06
5.49499e-06
5.64968e-06
5.79898e-06
5.92102e-06
6.01147e-06
6.08293e-06
6.12589e-06
6.15205e-06
6.16298e-06
6.17224e-06
6.17569e-06
6.18113e-06
6.17928e-06
6.18326e-06
6.18744e-06
6.18857e-06
6.17888e-06
6.18174e-06
6.19106e-06
6.19213e-06
6.18276e-06
6.18657e-06
6.19302e-06
6.19881e-06
6.20028e-06
6.19071e-06
6.19818e-06
6.20146e-06
)
;

boundaryField
{
    inlet
    {
        type            fixedValue;
        value           uniform 0;
    }
    outlet
    {
        type            calculated;
        value           uniform 6.19506e-06;
    }
    yzfaces
    {
        type            empty;
    }
}


// ************************************************************************* //
