/*--------------------------------*- C++ -*----------------------------------*\
| =========                 |                                                 |
| \\      /  F ield         | foam-extend: Open Source CFD                    |
|  \\    /   O peration     | Version:     5.0                                |
|   \\  /    A nd           | Web:         http://www.foam-extend.org         |
|    \\/     M anipulation  |                                                 |
\*---------------------------------------------------------------------------*/
FoamFile
{
    version     2.0;
    format      ascii;
    class       volVectorField;
    location    "4";
    object      U.gas;
}
// * * * * * * * * * * * * * * * * * * * * * * * * * * * * * * * * * * * * * //

dimensions      [0 1 -1 0 0 0 0];

internalField   nonuniform List<vector> 
100
(
(0.00658985 0 0)
(0.0072854 0 0)
(0.00776765 0 0)
(0.00810617 0 0)
(0.00848376 0 0)
(0.00883822 0 0)
(0.00918521 0 0)
(0.00954541 0 0)
(0.00974238 0 0)
(0.0100425 0 0)
(0.0102013 0 0)
(0.0104059 0 0)
(0.0106024 0 0)
(0.0108041 0 0)
(0.0109895 0 0)
(0.0111743 0 0)
(0.0113094 0 0)
(0.0115184 0 0)
(0.0116578 0 0)
(0.0117587 0 0)
(0.011912 0 0)
(0.0120066 0 0)
(0.0121146 0 0)
(0.0122381 0 0)
(0.0123328 0 0)
(0.0124468 0 0)
(0.0125434 0 0)
(0.0126242 0 0)
(0.0127399 0 0)
(0.0128009 0 0)
(0.0128868 0 0)
(0.0129529 0 0)
(0.0130101 0 0)
(0.0130601 0 0)
(0.0131121 0 0)
(0.0131752 0 0)
(0.0132163 0 0)
(0.0132536 0 0)
(0.0133027 0 0)
(0.013331 0 0)
(0.013353 0 0)
(0.0133767 0 0)
(0.0133806 0 0)
(0.013408 0 0)
(0.0134333 0 0)
(0.0134432 0 0)
(0.0134392 0 0)
(0.0134436 0 0)
(0.0134267 0 0)
(0.0134346 0 0)
(0.0134333 0 0)
(0.0134298 0 0)
(0.0134131 0 0)
(0.0134098 0 0)
(0.0133996 0 0)
(0.0133783 0 0)
(0.013356 0 0)
(0.0133223 0 0)
(0.0132807 0 0)
(0.0132355 0 0)
(0.0131656 0 0)
(0.0130889 0 0)
(0.0129935 0 0)
(0.0128689 0 0)
(0.0127339 0 0)
(0.0125543 0 0)
(0.0123341 0 0)
(0.0120733 0 0)
(0.0117535 0 0)
(0.0113567 0 0)
(0.0108751 0 0)
(0.0102962 0 0)
(0.00961532 0 0)
(0.00885728 0 0)
(0.00805881 0 0)
(0.0072609 0 0)
(0.00654214 0 0)
(0.00594706 0 0)
(0.00550039 0 0)
(0.0051893 0 0)
(0.00498718 0 0)
(0.00486507 0 0)
(0.0047879 0 0)
(0.0047398 0 0)
(0.00471213 0 0)
(0.00469911 0 0)
(0.00469166 0 0)
(0.0046839 0 0)
(0.00467826 0 0)
(0.00468128 0 0)
(0.00468231 0 0)
(0.00467635 0 0)
(0.00467275 0 0)
(0.00467483 0 0)
(0.00467971 0 0)
(0.00468412 0 0)
(0.00468254 0 0)
(0.00468318 0 0)
(0.0046866 0 0)
(0.00468845 0 0)
)
;

boundaryField
{
    inlet
    {
        type            fixedValue;
        value           uniform (0.005 0 0);
    }
    outlet
    {
        type            zeroGradient;
    }
    yzfaces
    {
        type            empty;
    }
}


// ************************************************************************* //
