/*--------------------------------*- C++ -*----------------------------------*\
| =========                 |                                                 |
| \\      /  F ield         | foam-extend: Open Source CFD                    |
|  \\    /   O peration     | Version:     5.0                                |
|   \\  /    A nd           | Web:         http://www.foam-extend.org         |
|    \\/     M anipulation  |                                                 |
\*---------------------------------------------------------------------------*/
FoamFile
{
    version     2.0;
    format      ascii;
    class       volVectorField;
    location    "4";
    object      U.water;
}
// * * * * * * * * * * * * * * * * * * * * * * * * * * * * * * * * * * * * * //

dimensions      [0 1 -1 0 0 0 0];

internalField   nonuniform List<vector> 
100
(
(6.00978e-05 0 0)
(0.00014305 0 0)
(0.000213754 0 0)
(0.000272026 0 0)
(0.000325201 0 0)
(0.0003869 0 0)
(0.000447044 0 0)
(0.000508693 0 0)
(0.000566711 0 0)
(0.000618449 0 0)
(0.000671389 0 0)
(0.000714603 0 0)
(0.000766782 0 0)
(0.000815837 0 0)
(0.000864175 0 0)
(0.000914825 0 0)
(0.000964743 0 0)
(0.0010133 0 0)
(0.00106592 0 0)
(0.00110972 0 0)
(0.00115633 0 0)
(0.00120135 0 0)
(0.00124234 0 0)
(0.00129196 0 0)
(0.00134006 0 0)
(0.00138465 0 0)
(0.00143122 0 0)
(0.00147593 0 0)
(0.00152274 0 0)
(0.00156615 0 0)
(0.00160792 0 0)
(0.00165446 0 0)
(0.00169617 0 0)
(0.00173836 0 0)
(0.00178263 0 0)
(0.00182881 0 0)
(0.00187247 0 0)
(0.00191484 0 0)
(0.00195942 0 0)
(0.0020021 0 0)
(0.00204366 0 0)
(0.00208638 0 0)
(0.00212869 0 0)
(0.00217443 0 0)
(0.00222228 0 0)
(0.00226749 0 0)
(0.00231174 0 0)
(0.00235954 0 0)
(0.00240569 0 0)
(0.00245319 0 0)
(0.00251064 0 0)
(0.00256619 0 0)
(0.00262082 0 0)
(0.00268124 0 0)
(0.00274707 0 0)
(0.002812 0 0)
(0.00287995 0 0)
(0.00294902 0 0)
(0.00302282 0 0)
(0.00310132 0 0)
(0.00318053 0 0)
(0.00326201 0 0)
(0.00334859 0 0)
(0.00343997 0 0)
(0.00354059 0 0)
(0.00364651 0 0)
(0.00375609 0 0)
(0.0038777 0 0)
(0.00400801 0 0)
(0.00414225 0 0)
(0.00428066 0 0)
(0.00442009 0 0)
(0.00455058 0 0)
(0.00467349 0 0)
(0.00478344 0 0)
(0.00487086 0 0)
(0.00493731 0 0)
(0.00498256 0 0)
(0.00501022 0 0)
(0.00502688 0 0)
(0.00503716 0 0)
(0.00504491 0 0)
(0.00504892 0 0)
(0.00504752 0 0)
(0.00504571 0 0)
(0.00504877 0 0)
(0.00505237 0 0)
(0.0050503 0 0)
(0.00504787 0 0)
(0.00505218 0 0)
(0.00505576 0 0)
(0.00505067 0 0)
(0.00504626 0 0)
(0.00504928 0 0)
(0.00505439 0 0)
(0.0050584 0 0)
(0.00505586 0 0)
(0.00505536 0 0)
(0.00505947 0 0)
(0.00505792 0 0)
)
;

boundaryField
{
    inlet
    {
        type            fixedValue;
        value           uniform (0 0 0);
    }
    outlet
    {
        type            zeroGradient;
    }
    yzfaces
    {
        type            empty;
    }
}


// ************************************************************************* //
