/*--------------------------------*- C++ -*----------------------------------*\
| =========                 |                                                 |
| \\      /  F ield         | foam-extend: Open Source CFD                    |
|  \\    /   O peration     | Version:     5.0                                |
|   \\  /    A nd           | Web:         http://www.foam-extend.org         |
|    \\/     M anipulation  |                                                 |
\*---------------------------------------------------------------------------*/
FoamFile
{
    version     2.0;
    format      ascii;
    class       volScalarField;
    location    "1";
    object      alpha.gas;
}
// * * * * * * * * * * * * * * * * * * * * * * * * * * * * * * * * * * * * * //

dimensions      [0 0 0 0 0 0 0];

internalField   nonuniform List<scalar> 
100
(
0.113643
0.0956933
0.0846322
0.0761066
0.069552
0.0640019
0.0592298
0.0531753
0.047709
0.0433288
0.0400643
0.0376499
0.03573
0.0340119
0.0322845
0.0304384
0.0283532
0.026037
0.0234975
0.0208236
0.0181512
0.0156957
0.0136725
0.012191
0.0112243
0.0106564
0.0103399
0.0101746
0.0100887
0.0100468
0.0100231
0.0100122
0.0100067
0.0100045
0.0100016
0.0100001
0.00999819
0.0099991
0.0100008
0.0100027
0.0100006
0.0100022
0.0100016
0.0100031
0.0100028
0.0100019
0.0100013
0.0100023
0.0100024
0.0100016
0.0100013
0.0100021
0.0100018
0.00999837
0.00999904
0.00999919
0.0100005
0.0100023
0.010003
0.0100023
0.0100025
0.0100034
0.0100014
0.00999968
0.00999946
0.00999873
0.00999941
0.0100003
0.0100002
0.0099978
0.00999937
0.0100016
0.0100016
0.0100017
0.00999943
0.00999957
0.00999846
0.00999986
0.0100003
0.00999978
0.00999826
0.0100003
0.0100011
0.0100012
0.0100012
0.0100005
0.0100005
0.0100003
0.0100014
0.0100016
0.0100019
0.0099994
0.00999872
0.00999856
0.00999943
0.00999967
0.00999862
0.00999946
0.0100003
0.00999855
)
;

boundaryField
{
    inlet
    {
        type            fixedValue;
        value           uniform 0.2;
    }
    outlet
    {
        type            zeroGradient;
    }
    yzfaces
    {
        type            empty;
    }
}


// ************************************************************************* //
