/*--------------------------------*- C++ -*----------------------------------*\
| =========                 |                                                 |
| \\      /  F ield         | foam-extend: Open Source CFD                    |
|  \\    /   O peration     | Version:     5.0                                |
|   \\  /    A nd           | Web:         http://www.foam-extend.org         |
|    \\/     M anipulation  |                                                 |
\*---------------------------------------------------------------------------*/
FoamFile
{
    version     2.0;
    format      ascii;
    class       volScalarField;
    location    "1";
    object      Cl.water;
}
// * * * * * * * * * * * * * * * * * * * * * * * * * * * * * * * * * * * * * //

dimensions      [0 0 0 0 0 0 0];

internalField   nonuniform List<scalar> 
100
(
2.10962e-15
0.00643343
0.0107331
0.00602072
0.00799787
0.0116615
0.0145373
0.00607545
0.0104934
0.0152653
0.0179285
0.0191732
0.0197293
0.0200326
0.0202891
0.0205277
0.0207819
0.0210634
0.0213582
0.0216828
0.0220091
0.0223101
0.0225437
0.0227382
0.0228566
0.0229159
0.0229587
0.0229795
0.0229965
0.0229914
0.0229892
0.0229865
0.022982
0.0229729
0.0229808
0.0229988
0.0229985
0.0230061
0.0230035
0.0230087
0.0230153
0.0229987
0.0229916
0.0230028
0.0229969
0.023003
0.0230031
0.0229925
0.0230105
0.0230155
0.0230218
0.0230351
0.0230265
0.023009
0.0229894
0.0229836
0.023004
0.0230011
0.0230008
0.0230156
0.0229997
0.0230074
0.0230137
0.023009
0.0230178
0.0230135
0.0230291
0.0230042
0.0229983
0.0230069
0.0230126
0.0229891
0.0229899
0.0229786
0.0229923
0.0229948
0.0230025
0.0229932
0.0230001
0.0230077
0.0230054
0.0230069
0.022995
0.0229875
0.0230061
0.0229987
0.0229879
0.0229974
0.022993
0.0229879
0.0229988
0.0230145
0.0230105
0.0229981
0.0229815
0.0229835
0.0229935
0.0229848
0.0229838
0.0230057
)
;

boundaryField
{
    inlet
    {
        type            fixedValue;
        value           uniform 0;
    }
    outlet
    {
        type            zeroGradient;
    }
    yzfaces
    {
        type            empty;
    }
}


// ************************************************************************* //
