/*--------------------------------*- C++ -*----------------------------------*\
| =========                 |                                                 |
| \\      /  F ield         | foam-extend: Open Source CFD                    |
|  \\    /   O peration     | Version:     5.0                                |
|   \\  /    A nd           | Web:         http://www.foam-extend.org         |
|    \\/     M anipulation  |                                                 |
\*---------------------------------------------------------------------------*/
FoamFile
{
    version     2.0;
    format      ascii;
    class       volScalarField;
    location    "1";
    object      CO2.water;
}
// * * * * * * * * * * * * * * * * * * * * * * * * * * * * * * * * * * * * * //

dimensions      [0 0 0 0 0 0 0];

internalField   nonuniform List<scalar> 
100
(
0.00226754
0.00135265
0.000700568
0.00193115
0.00168169
0.00102887
0.000534918
0.00252164
0.00171413
0.000793913
0.000304246
0.000103079
3.20634e-05
9.46828e-06
2.72775e-06
7.80777e-07
2.23283e-07
6.33635e-08
1.74044e-08
4.41338e-09
9.35396e-10
1.06859e-10
0
0
4.71378e-12
1.09367e-11
9.9107e-12
6.82231e-12
4.24151e-12
2.48746e-12
1.40001e-12
7.62453e-13
4.03758e-13
2.08306e-13
1.05191e-13
5.2161e-14
2.54108e-14
1.22021e-14
5.77786e-15
2.70311e-15
1.24698e-15
5.6738e-16
2.54588e-16
1.12414e-16
4.87903e-17
2.07962e-17
8.68563e-18
3.53666e-18
1.39892e-18
5.34173e-19
1.95841e-19
6.83579e-20
2.22941e-20
6.55726e-21
1.55918e-21
1.70125e-22
0
0
0
0
0
0
0
0
0
0
0
0
0
0
0
0
0
0
0
0
0
0
0
0
0
0
0
0
0
0
0
0
0
0
0
0
0
0
0
0
0
0
0
0
)
;

boundaryField
{
    inlet
    {
        type            fixedValue;
        value           uniform 0;
    }
    outlet
    {
        type            zeroGradient;
    }
    yzfaces
    {
        type            empty;
    }
}


// ************************************************************************* //
