/*--------------------------------*- C++ -*----------------------------------*\
| =========                 |                                                 |
| \\      /  F ield         | foam-extend: Open Source CFD                    |
|  \\    /   O peration     | Version:     5.0                                |
|   \\  /    A nd           | Web:         http://www.foam-extend.org         |
|    \\/     M anipulation  |                                                 |
\*---------------------------------------------------------------------------*/
FoamFile
{
    version     2.0;
    format      ascii;
    class       volScalarField;
    location    "1";
    object      H2O.gas;
}
// * * * * * * * * * * * * * * * * * * * * * * * * * * * * * * * * * * * * * //

dimensions      [0 0 0 0 0 0 0];

internalField   nonuniform List<scalar> 
100
(
1.08866e-08
2.72529e-06
1.551e-05
4.30394e-05
9.83212e-05
0.000211141
0.000435375
0.000636167
0.00106574
0.00192705
0.00328953
0.00509897
0.00721561
0.00949177
0.0117833
0.0139047
0.0156501
0.0168584
0.0173476
0.0170851
0.0161321
0.0147483
0.0132827
0.0120603
0.0111836
0.0106404
0.0103365
0.0101709
0.0100887
0.0100442
0.0100226
0.0100109
0.0100044
0.00999535
0.00999628
0.0100002
0.00999491
0.00999772
0.00999858
0.010004
0.0100056
0.0100008
0.0099991
0.0100046
0.0100013
0.0100025
0.0100013
0.00999858
0.0100059
0.0100055
0.010005
0.0100097
0.0100064
0.0099998
0.00999257
0.00998934
0.00999918
0.010003
0.0100045
0.0100094
0.010002
0.0100063
0.0100076
0.0100024
0.0100076
0.010004
0.0100104
0.0100009
0.00999791
0.0100014
0.0100047
0.00999568
0.0099972
0.00999462
0.00999407
0.00999475
0.010001
0.00999892
0.0100025
0.0100032
0.00999849
0.00999929
0.00999864
0.00999449
0.0100039
0.0100009
0.00999792
0.0100006
0.00999783
0.00999527
0.0100018
0.0100054
0.0100003
0.00999514
0.00999047
0.00999086
0.0099932
0.00999168
0.00999383
0.0100002
)
;

boundaryField
{
    inlet
    {
        type            fixedValue;
        value           uniform 0;
    }
    outlet
    {
        type            zeroGradient;
    }
    yzfaces
    {
        type            empty;
    }
}


// ************************************************************************* //
