/*--------------------------------*- C++ -*----------------------------------*\
| =========                 |                                                 |
| \\      /  F ield         | foam-extend: Open Source CFD                    |
|  \\    /   O peration     | Version:     5.0                                |
|   \\  /    A nd           | Web:         http://www.foam-extend.org         |
|    \\/     M anipulation  |                                                 |
\*---------------------------------------------------------------------------*/
FoamFile
{
    version     2.0;
    format      ascii;
    class       volScalarField;
    location    "1";
    object      Na.water;
}
// * * * * * * * * * * * * * * * * * * * * * * * * * * * * * * * * * * * * * //

dimensions      [0 0 0 0 0 0 0];

internalField   nonuniform List<scalar> 
100
(
2.10963e-15
0.00643184
0.0107316
0.00602215
0.00799663
0.0116572
0.0145386
0.00607906
0.0104981
0.0152737
0.0179428
0.0191817
0.0197375
0.0200295
0.02029
0.0205257
0.0207809
0.0210703
0.0213618
0.0216842
0.0220105
0.022313
0.0225434
0.0227396
0.022848
0.022905
0.0229522
0.0229693
0.0229914
0.0229938
0.0230015
0.0229997
0.0229925
0.0229817
0.0229833
0.0229892
0.0229827
0.0229956
0.0229947
0.0229957
0.0230061
0.0229967
0.0229974
0.0230079
0.0229909
0.0229984
0.023
0.022992
0.0230112
0.0230101
0.0230164
0.0230239
0.023013
0.0230058
0.0229947
0.0229856
0.0229998
0.0230045
0.0230058
0.0230209
0.0230085
0.023014
0.0230183
0.023008
0.0230147
0.0230108
0.0230245
0.0230034
0.0229974
0.0230072
0.023014
0.0229849
0.0229847
0.0229752
0.022979
0.0229802
0.0229909
0.0229865
0.0229986
0.0230039
0.0229989
0.0229954
0.0229906
0.0229838
0.0230048
0.0230014
0.0229922
0.0230064
0.0229988
0.0229894
0.0230033
0.023012
0.0229997
0.0229942
0.0229834
0.0229846
0.0229899
0.0229804
0.0229878
0.0230053
)
;

boundaryField
{
    inlet
    {
        type            fixedValue;
        value           uniform 0;
    }
    outlet
    {
        type            zeroGradient;
    }
    yzfaces
    {
        type            empty;
    }
}


// ************************************************************************* //
