/*--------------------------------*- C++ -*----------------------------------*\
| =========                 |                                                 |
| \\      /  F ield         | foam-extend: Open Source CFD                    |
|  \\    /   O peration     | Version:     5.0                                |
|   \\  /    A nd           | Web:         http://www.foam-extend.org         |
|    \\/     M anipulation  |                                                 |
\*---------------------------------------------------------------------------*/
FoamFile
{
    version     2.0;
    format      ascii;
    class       surfaceScalarField;
    location    "1";
    object      phi;
}
// * * * * * * * * * * * * * * * * * * * * * * * * * * * * * * * * * * * * * //

dimensions      [0 3 -1 0 0 0 0];

internalField   nonuniform List<scalar> 
99
(
1.22719e-06
1.22091e-06
1.21067e-06
1.21351e-06
1.21543e-06
1.21177e-06
1.21576e-06
1.21737e-06
1.21654e-06
1.21603e-06
1.21696e-06
1.2167e-06
1.21742e-06
1.21674e-06
1.21968e-06
1.21927e-06
1.21846e-06
1.2169e-06
1.21841e-06
1.21774e-06
1.21707e-06
1.21661e-06
1.21682e-06
1.2146e-06
1.21378e-06
1.21348e-06
1.21397e-06
1.21338e-06
1.21504e-06
1.21447e-06
1.21551e-06
1.21499e-06
1.21324e-06
1.2154e-06
1.21706e-06
1.21681e-06
1.21711e-06
1.21709e-06
1.21756e-06
1.21659e-06
1.2159e-06
1.21572e-06
1.21349e-06
1.21306e-06
1.21472e-06
1.21614e-06
1.21646e-06
1.21867e-06
1.21984e-06
1.21959e-06
1.22037e-06
1.2198e-06
1.21885e-06
1.21809e-06
1.21691e-06
1.21881e-06
1.21847e-06
1.21697e-06
1.21696e-06
1.21594e-06
1.21629e-06
1.21715e-06
1.21779e-06
1.21892e-06
1.21901e-06
1.218e-06
1.21697e-06
1.21745e-06
1.21583e-06
1.21503e-06
1.21373e-06
1.2131e-06
1.21197e-06
1.21198e-06
1.21104e-06
1.21216e-06
1.2133e-06
1.21288e-06
1.21215e-06
1.21402e-06
1.21299e-06
1.2132e-06
1.21335e-06
1.21356e-06
1.2125e-06
1.21162e-06
1.21402e-06
1.21269e-06
1.21178e-06
1.21396e-06
1.21459e-06
1.21347e-06
1.21356e-06
1.21268e-06
1.21395e-06
1.21463e-06
1.2156e-06
1.21495e-06
1.21571e-06
)
;

boundaryField
{
    inlet
    {
        type            calculated;
        value           uniform -1.225e-06;
    }
    outlet
    {
        type            calculated;
        value           uniform 1.21651e-06;
    }
    yzfaces
    {
        type            empty;
    }
}


// ************************************************************************* //
