/*--------------------------------*- C++ -*----------------------------------*\
| =========                 |                                                 |
| \\      /  F ield         | foam-extend: Open Source CFD                    |
|  \\    /   O peration     | Version:     5.0                                |
|   \\  /    A nd           | Web:         http://www.foam-extend.org         |
|    \\/     M anipulation  |                                                 |
\*---------------------------------------------------------------------------*/
FoamFile
{
    version     2.0;
    format      ascii;
    class       surfaceScalarField;
    location    "1";
    object      phi.water;
}
// * * * * * * * * * * * * * * * * * * * * * * * * * * * * * * * * * * * * * //

dimensions      [0 3 -1 0 0 0 0];

internalField   nonuniform List<scalar> 
99
(
4.08141e-07
7.02145e-07
9.6973e-07
1.25461e-06
1.52448e-06
1.79125e-06
2.0602e-06
2.4674e-06
2.89286e-06
3.27932e-06
3.5919e-06
3.82791e-06
4.02571e-06
4.19469e-06
4.37685e-06
4.56032e-06
4.76192e-06
4.97953e-06
5.22246e-06
5.44985e-06
5.65482e-06
5.8219e-06
5.9412e-06
6.00366e-06
6.04493e-06
6.0669e-06
6.08105e-06
6.08397e-06
6.09535e-06
6.09411e-06
6.09973e-06
6.09808e-06
6.09192e-06
6.10376e-06
6.10934e-06
6.10747e-06
6.10958e-06
6.10915e-06
6.11061e-06
6.10344e-06
6.10084e-06
6.10219e-06
6.09018e-06
6.0877e-06
6.0962e-06
6.10294e-06
6.10583e-06
6.11584e-06
6.11942e-06
6.11815e-06
6.121e-06
6.11783e-06
6.11482e-06
6.11455e-06
6.11206e-06
6.12006e-06
6.11502e-06
6.10673e-06
6.10457e-06
6.10012e-06
6.10312e-06
6.10538e-06
6.10868e-06
6.11384e-06
6.11357e-06
6.10759e-06
6.10395e-06
6.11028e-06
6.10116e-06
6.09509e-06
6.09128e-06
6.09103e-06
6.08572e-06
6.08595e-06
6.08068e-06
6.08394e-06
6.08857e-06
6.08646e-06
6.08145e-06
6.09141e-06
6.08777e-06
6.08952e-06
6.09195e-06
6.09142e-06
6.08392e-06
6.08105e-06
6.0932e-06
6.08685e-06
6.0842e-06
6.09414e-06
6.09356e-06
6.08752e-06
6.09078e-06
6.08963e-06
6.09764e-06
6.09989e-06
6.10456e-06
6.10165e-06
6.10248e-06
)
;

boundaryField
{
    inlet
    {
        type            fixedValue;
        value           uniform 0;
    }
    outlet
    {
        type            calculated;
        value           uniform 6.1041e-06;
    }
    yzfaces
    {
        type            empty;
    }
}


// ************************************************************************* //
