/*--------------------------------*- C++ -*----------------------------------*\
| =========                 |                                                 |
| \\      /  F ield         | foam-extend: Open Source CFD                    |
|  \\    /   O peration     | Version:     5.0                                |
|   \\  /    A nd           | Web:         http://www.foam-extend.org         |
|    \\/     M anipulation  |                                                 |
\*---------------------------------------------------------------------------*/
FoamFile
{
    version     2.0;
    format      ascii;
    class       volScalarField;
    location    "1";
    object      S.gas;
}
// * * * * * * * * * * * * * * * * * * * * * * * * * * * * * * * * * * * * * //

dimensions      [0 0 0 0 0 0 0];

internalField   nonuniform List<scalar> 
100
(
0.568217
0.478467
0.423161
0.380533
0.34776
0.320009
0.296149
0.265876
0.238545
0.216644
0.200322
0.18825
0.17865
0.17006
0.161423
0.152192
0.141766
0.130185
0.117488
0.104118
0.0907562
0.0784787
0.0683623
0.0609548
0.0561213
0.053282
0.0516996
0.0508729
0.0504436
0.0502341
0.0501157
0.0500608
0.0500335
0.0500225
0.0500081
0.0500004
0.0499909
0.0499955
0.0500038
0.0500135
0.0500028
0.0500109
0.0500082
0.0500155
0.0500139
0.0500097
0.0500064
0.0500115
0.0500122
0.0500082
0.0500065
0.0500103
0.0500088
0.0499919
0.0499952
0.0499959
0.0500026
0.0500114
0.0500151
0.0500113
0.0500127
0.0500172
0.0500072
0.0499984
0.0499973
0.0499937
0.049997
0.0500017
0.0500012
0.049989
0.0499968
0.0500078
0.0500081
0.0500083
0.0499971
0.0499978
0.0499923
0.0499993
0.0500013
0.0499989
0.0499913
0.0500017
0.0500055
0.0500061
0.0500059
0.0500027
0.0500024
0.0500013
0.050007
0.050008
0.0500097
0.049997
0.0499936
0.0499928
0.0499972
0.0499983
0.0499931
0.0499973
0.0500016
0.0499928
)
;

boundaryField
{
    inlet
    {
        type            calculated;
        value           uniform 1;
    }
    outlet
    {
        type            calculated;
        value           uniform 0.0499928;
    }
    yzfaces
    {
        type            empty;
    }
}


// ************************************************************************* //
