/*--------------------------------*- C++ -*----------------------------------*\
| =========                 |                                                 |
| \\      /  F ield         | foam-extend: Open Source CFD                    |
|  \\    /   O peration     | Version:     5.0                                |
|   \\  /    A nd           | Web:         http://www.foam-extend.org         |
|    \\/     M anipulation  |                                                 |
\*---------------------------------------------------------------------------*/
FoamFile
{
    version     2.0;
    format      ascii;
    class       volVectorField;
    location    "1";
    object      U.gas;
}
// * * * * * * * * * * * * * * * * * * * * * * * * * * * * * * * * * * * * * //

dimensions      [0 1 -1 0 0 0 0];

internalField   nonuniform List<vector> 
100
(
(0.00866737 0 0)
(0.00994636 0 0)
(0.0107967 0 0)
(0.0115282 0 0)
(0.0121333 0 0)
(0.0126115 0 0)
(0.0129896 0 0)
(0.0135848 0 0)
(0.0138595 0 0)
(0.0138323 0 0)
(0.0136147 0 0)
(0.0133374 0 0)
(0.0130767 0 0)
(0.0128419 0 0)
(0.0126241 0 0)
(0.012371 0 0)
(0.0120412 0 0)
(0.0115927 0 0)
(0.0110095 0 0)
(0.0102606 0 0)
(0.00934023 0 0)
(0.00830083 0 0)
(0.00725383 0 0)
(0.00633362 0 0)
(0.00563512 0 0)
(0.00517711 0 0)
(0.00491085 0 0)
(0.004764 0 0)
(0.00468905 0 0)
(0.00465066 0 0)
(0.00463244 0 0)
(0.00462253 0 0)
(0.00461297 0 0)
(0.00461081 0 0)
(0.00461667 0 0)
(0.00461837 0 0)
(0.00461795 0 0)
(0.00461739 0 0)
(0.00461847 0 0)
(0.00461829 0 0)
(0.00461671 0 0)
(0.00461446 0 0)
(0.00461049 0 0)
(0.00460476 0 0)
(0.00460773 0 0)
(0.00461399 0 0)
(0.00461721 0 0)
(0.00462208 0 0)
(0.00462868 0 0)
(0.00462984 0 0)
(0.00463002 0 0)
(0.00462975 0 0)
(0.00462786 0 0)
(0.00462527 0 0)
(0.00461987 0 0)
(0.00462125 0 0)
(0.00462443 0 0)
(0.00462107 0 0)
(0.00461874 0 0)
(0.0046176 0 0)
(0.00461632 0 0)
(0.00461885 0 0)
(0.00462175 0 0)
(0.0046241 0 0)
(0.00462533 0 0)
(0.00462364 0 0)
(0.00461909 0 0)
(0.00461835 0 0)
(0.00461741 0 0)
(0.00461193 0 0)
(0.00460697 0 0)
(0.00460464 0 0)
(0.00460184 0 0)
(0.00460023 0 0)
(0.00459866 0 0)
(0.00459739 0 0)
(0.00460153 0 0)
(0.0046024 0 0)
(0.00460085 0 0)
(0.0046036 0 0)
(0.00460445 0 0)
(0.00460199 0 0)
(0.00460445 0 0)
(0.00460547 0 0)
(0.00460397 0 0)
(0.00460117 0 0)
(0.00460354 0 0)
(0.00460476 0 0)
(0.00460104 0 0)
(0.00460405 0 0)
(0.00460861 0 0)
(0.00460768 0 0)
(0.00460502 0 0)
(0.00460354 0 0)
(0.00460412 0 0)
(0.00460813 0 0)
(0.00461131 0 0)
(0.00461077 0 0)
(0.00461114 0 0)
(0.00461498 0 0)
)
;

boundaryField
{
    inlet
    {
        type            fixedValue;
        value           uniform (0.005 0 0);
    }
    outlet
    {
        type            zeroGradient;
    }
    yzfaces
    {
        type            empty;
    }
}


// ************************************************************************* //
