/*--------------------------------*- C++ -*----------------------------------*\
| =========                 |                                                 |
| \\      /  F ield         | foam-extend: Open Source CFD                    |
|  \\    /   O peration     | Version:     5.0                                |
|   \\  /    A nd           | Web:         http://www.foam-extend.org         |
|    \\/     M anipulation  |                                                 |
\*---------------------------------------------------------------------------*/
FoamFile
{
    version     2.0;
    format      ascii;
    class       volVectorField;
    location    "1";
    object      U.water;
}
// * * * * * * * * * * * * * * * * * * * * * * * * * * * * * * * * * * * * * //

dimensions      [0 1 -1 0 0 0 0];

internalField   nonuniform List<vector> 
100
(
(0.000184192 0 0)
(0.000454662 0 0)
(0.000682483 0 0)
(0.000904741 0 0)
(0.00113081 0 0)
(0.00134957 0 0)
(0.00157321 0 0)
(0.00184397 0 0)
(0.00218142 0 0)
(0.00251194 0 0)
(0.00279857 0 0)
(0.00302546 0 0)
(0.00320381 0 0)
(0.0033542 0 0)
(0.00349934 0 0)
(0.0036502 0 0)
(0.00380772 0 0)
(0.00397893 0 0)
(0.00416599 0 0)
(0.00435706 0 0)
(0.0045327 0 0)
(0.00468277 0 0)
(0.00479832 0 0)
(0.00487305 0 0)
(0.00491549 0 0)
(0.00494101 0 0)
(0.00495632 0 0)
(0.00496395 0 0)
(0.00497015 0 0)
(0.00497446 0 0)
(0.00497639 0 0)
(0.004978 0 0)
(0.00497362 0 0)
(0.0049746 0 0)
(0.00498248 0 0)
(0.00498541 0 0)
(0.00498556 0 0)
(0.0049862 0 0)
(0.0049871 0 0)
(0.00498604 0 0)
(0.00498257 0 0)
(0.00498081 0 0)
(0.00497584 0 0)
(0.00497044 0 0)
(0.00497292 0 0)
(0.0049792 0 0)
(0.00498277 0 0)
(0.00498795 0 0)
(0.00499488 0 0)
(0.00499678 0 0)
(0.00499791 0 0)
(0.00499838 0 0)
(0.00499521 0 0)
(0.00499167 0 0)
(0.00498779 0 0)
(0.00498926 0 0)
(0.00499244 0 0)
(0.00498868 0 0)
(0.00498555 0 0)
(0.00498339 0 0)
(0.00498203 0 0)
(0.0049845 0 0)
(0.00498756 0 0)
(0.00499122 0 0)
(0.00499379 0 0)
(0.00499191 0 0)
(0.00498777 0 0)
(0.00498662 0 0)
(0.00498422 0 0)
(0.00497931 0 0)
(0.00497506 0 0)
(0.00497104 0 0)
(0.0049674 0 0)
(0.00496508 0 0)
(0.00496316 0 0)
(0.00496361 0 0)
(0.00496826 0 0)
(0.00496977 0 0)
(0.00496737 0 0)
(0.00496968 0 0)
(0.00497142 0 0)
(0.00496979 0 0)
(0.00497045 0 0)
(0.00497116 0 0)
(0.00496942 0 0)
(0.0049654 0 0)
(0.00496853 0 0)
(0.00497075 0 0)
(0.00496615 0 0)
(0.00496872 0 0)
(0.00497452 0 0)
(0.00497352 0 0)
(0.00497144 0 0)
(0.00496982 0 0)
(0.00497065 0 0)
(0.00497461 0 0)
(0.00497798 0 0)
(0.00497871 0 0)
(0.00497891 0 0)
(0.00498206 0 0)
)
;

boundaryField
{
    inlet
    {
        type            fixedValue;
        value           uniform (0 0 0);
    }
    outlet
    {
        type            zeroGradient;
    }
    yzfaces
    {
        type            empty;
    }
}


// ************************************************************************* //
