/*--------------------------------*- C++ -*----------------------------------*\
| =========                 |                                                 |
| \\      /  F ield         | foam-extend: Open Source CFD                    |
|  \\    /   O peration     | Version:     5.0                                |
|   \\  /    A nd           | Web:         http://www.foam-extend.org         |
|    \\/     M anipulation  |                                                 |
\*---------------------------------------------------------------------------*/
FoamFile
{
    version     2.0;
    format      ascii;
    class       volScalarField;
    location    "10";
    object      alpha.water;
}
// * * * * * * * * * * * * * * * * * * * * * * * * * * * * * * * * * * * * * //

dimensions      [0 0 0 0 0 0 0];

internalField   nonuniform List<scalar> 
100
(
0.00212226
0.00315605
0.00436392
0.00541488
0.00640273
0.00734931
0.00826297
0.00914637
0.0100023
0.0108348
0.0116437
0.0124329
0.013203
0.0139528
0.0146852
0.0154031
0.0161031
0.0167913
0.017458
0.0181166
0.0187593
0.0193942
0.0200097
0.0206201
0.0212147
0.0218008
0.0223747
0.02294
0.0234946
0.0240412
0.0245774
0.0251038
0.0256181
0.0261317
0.0266335
0.0271245
0.0276147
0.0280997
0.0285693
0.0290383
0.029497
0.0299439
0.0303922
0.0308338
0.0312664
0.0316932
0.0321184
0.0325327
0.0329537
0.0333509
0.0337578
0.0341603
0.0345519
0.034931
0.0353199
0.0356966
0.0360617
0.0364368
0.0368017
0.0371594
0.0375132
0.0378631
0.038206
0.038552
0.0388877
0.0392254
0.039561
0.0398832
0.040209
0.0405318
0.0408444
0.0411655
0.04148
0.0417823
0.0420923
0.0423909
0.0426901
0.0429942
0.0432813
0.0435768
0.0438637
0.0441475
0.0444297
0.0447096
0.0449913
0.0452708
0.0455288
0.0458072
0.0460611
0.0463284
0.0465807
0.0468421
0.0471065
0.047357
0.0476093
0.0478599
0.0481108
0.0483578
0.0486014
0.0488451
)
;

boundaryField
{
    inlet
    {
        type            fixedValue;
        value           uniform 0;
    }
    outlet
    {
        type            zeroGradient;
    }
    yzfaces
    {
        type            empty;
    }
}


// ************************************************************************* //
