/*--------------------------------*- C++ -*----------------------------------*\
| =========                 |                                                 |
| \\      /  F ield         | foam-extend: Open Source CFD                    |
|  \\    /   O peration     | Version:     5.0                                |
|   \\  /    A nd           | Web:         http://www.foam-extend.org         |
|    \\/     M anipulation  |                                                 |
\*---------------------------------------------------------------------------*/
FoamFile
{
    version     2.0;
    format      ascii;
    class       volScalarField;
    location    "10";
    object      H2O.gas;
}
// * * * * * * * * * * * * * * * * * * * * * * * * * * * * * * * * * * * * * //

dimensions      [0 0 0 0 0 0 0];

internalField   nonuniform List<scalar> 
100
(
0.000385361
0.000383348
0.000351966
0.000350604
0.000348852
0.000347072
0.000345383
0.000343797
0.000342266
0.000340724
0.000339325
0.000337932
0.000336562
0.000335294
0.000334008
0.000332687
0.000331461
0.000330177
0.000329069
0.000327876
0.000326755
0.000325572
0.000324539
0.000323395
0.000322357
0.000321298
0.00032031
0.000319296
0.000318322
0.000317354
0.000316384
0.000315477
0.000314597
0.000313697
0.000312821
0.000311997
0.000311089
0.000310183
0.000309384
0.000308508
0.000307728
0.000307004
0.000306197
0.000305405
0.000304607
0.000303847
0.000303057
0.000302341
0.000301509
0.000300911
0.000300162
0.000299394
0.000298705
0.000298069
0.000297336
0.000296691
0.000296117
0.000295403
0.000294768
0.000294163
0.000293555
0.000292946
0.000292347
0.000291717
0.000291121
0.000290506
0.000289918
0.00028937
0.000288772
0.000288221
0.000287715
0.000287116
0.000286544
0.000286059
0.000285496
0.000284988
0.000284467
0.000283881
0.000283413
0.000282862
0.000282381
0.000281867
0.000281382
0.00028089
0.000280372
0.000279868
0.000279513
0.000278986
0.000278608
0.000278129
0.000277734
0.000277271
0.000276791
0.000276377
0.00027595
0.000275507
0.000275059
0.000274612
0.000274214
0.000273784
)
;

boundaryField
{
    inlet
    {
        type            fixedValue;
        value           uniform 0;
    }
    outlet
    {
        type            zeroGradient;
    }
    yzfaces
    {
        type            empty;
    }
}


// ************************************************************************* //
