/*--------------------------------*- C++ -*----------------------------------*\
| =========                 |                                                 |
| \\      /  F ield         | foam-extend: Open Source CFD                    |
|  \\    /   O peration     | Version:     5.0                                |
|   \\  /    A nd           | Web:         http://www.foam-extend.org         |
|    \\/     M anipulation  |                                                 |
\*---------------------------------------------------------------------------*/
FoamFile
{
    version     2.0;
    format      ascii;
    class       volScalarField;
    location    "10";
    object      H2O.water;
}
// * * * * * * * * * * * * * * * * * * * * * * * * * * * * * * * * * * * * * //

dimensions      [0 0 0 0 0 0 0];

internalField   nonuniform List<scalar> 
100
(
0.00206652
0.00307316
0.00435106
0.0054129
0.00640342
0.00735115
0.00826549
0.00915
0.0100074
0.01084
0.0116504
0.0124402
0.0132107
0.0139633
0.0146974
0.0154144
0.016116
0.0168033
0.0174768
0.0181353
0.0187805
0.019414
0.0200361
0.0206455
0.0212429
0.0218303
0.0224083
0.0229752
0.0235315
0.0240802
0.0246195
0.0251491
0.0256701
0.0261846
0.0266904
0.0271868
0.0276775
0.0281604
0.0286356
0.0291041
0.0295675
0.0300221
0.0304712
0.0309148
0.0313514
0.031782
0.0322081
0.0326278
0.033042
0.0334523
0.0338563
0.0342549
0.0346503
0.0350388
0.0354236
0.035804
0.0361786
0.0365499
0.0369177
0.0372792
0.037638
0.0379929
0.038342
0.0386899
0.0390323
0.0393703
0.039708
0.0400387
0.0403676
0.0406931
0.0410143
0.0413332
0.041648
0.0419591
0.0422701
0.0425744
0.0428774
0.0431774
0.0434741
0.0437689
0.0440598
0.0443484
0.0446358
0.0449186
0.0451994
0.0454793
0.0457537
0.046028
0.0462986
0.046567
0.0468336
0.0470968
0.047359
0.0476188
0.0478751
0.0481314
0.0483845
0.0486349
0.0488846
0.0491306
)
;

boundaryField
{
    inlet
    {
        type            fixedValue;
        value           uniform 0;
    }
    outlet
    {
        type            zeroGradient;
    }
    yzfaces
    {
        type            empty;
    }
}


// ************************************************************************* //
