/*--------------------------------*- C++ -*----------------------------------*\
| =========                 |                                                 |
| \\      /  F ield         | foam-extend: Open Source CFD                    |
|  \\    /   O peration     | Version:     5.0                                |
|   \\  /    A nd           | Web:         http://www.foam-extend.org         |
|    \\/     M anipulation  |                                                 |
\*---------------------------------------------------------------------------*/
FoamFile
{
    version     2.0;
    format      ascii;
    class       surfaceScalarField;
    location    "10";
    object      phi;
}
// * * * * * * * * * * * * * * * * * * * * * * * * * * * * * * * * * * * * * //

dimensions      [0 3 -1 0 0 0 0];

internalField   nonuniform List<scalar> 
99
(
0.000122498
0.000122506
0.000122492
0.000122487
0.0001225
0.000122494
0.000122502
0.000122508
0.000122518
0.000122537
0.000122546
0.000122553
0.000122562
0.000122537
0.000122549
0.000122548
0.000122521
0.000122546
0.000122574
0.000122551
0.00012257
0.000122546
0.000122541
0.000122572
0.000122544
0.000122566
0.000122557
0.000122598
0.000122591
0.000122568
0.000122567
0.000122569
0.000122573
0.000122593
0.000122571
0.000122558
0.000122586
0.000122556
0.000122565
0.000122595
0.000122573
0.000122591
0.000122581
0.00012258
0.000122579
0.000122549
0.00012259
0.000122573
0.000122577
0.000122546
0.00012252
0.000122498
0.0001225
0.000122494
0.000122496
0.000122509
0.000122502
0.000122513
0.000122504
0.000122504
0.000122502
0.000122488
0.000122487
0.000122484
0.000122516
0.000122496
0.000122515
0.000122513
0.000122495
0.000122519
0.000122482
0.000122479
0.000122507
0.000122487
0.000122512
0.00012252
0.000122474
0.000122488
0.00012248
0.000122484
0.000122495
0.000122481
0.000122452
0.000122464
0.000122473
0.00012246
0.00012248
0.000122465
0.000122495
0.000122486
0.000122515
0.000122507
0.000122486
0.000122466
0.000122486
0.000122501
0.000122506
0.000122515
0.000122521
)
;

boundaryField
{
    inlet
    {
        type            calculated;
        value           uniform -0.0001225;
    }
    outlet
    {
        type            calculated;
        value           uniform 0.000122523;
    }
    yzfaces
    {
        type            empty;
    }
}


// ************************************************************************* //
