/*--------------------------------*- C++ -*----------------------------------*\
| =========                 |                                                 |
| \\      /  F ield         | foam-extend: Open Source CFD                    |
|  \\    /   O peration     | Version:     5.0                                |
|   \\  /    A nd           | Web:         http://www.foam-extend.org         |
|    \\/     M anipulation  |                                                 |
\*---------------------------------------------------------------------------*/
FoamFile
{
    version     2.0;
    format      ascii;
    class       volVectorField;
    location    "10";
    object      U.water;
}
// * * * * * * * * * * * * * * * * * * * * * * * * * * * * * * * * * * * * * //

dimensions      [0 1 -1 0 0 0 0];

internalField   nonuniform List<vector> 
100
(
(4.7699e-05 0 0)
(0.000103751 0 0)
(0.000152169 0 0)
(0.000206695 0 0)
(0.000256754 0 0)
(0.000305209 0 0)
(0.000352761 0 0)
(0.000399659 0 0)
(0.0004459 0 0)
(0.000491611 0 0)
(0.000536904 0 0)
(0.000581663 0 0)
(0.000626041 0 0)
(0.000669983 0 0)
(0.000713491 0 0)
(0.000756709 0 0)
(0.000799612 0 0)
(0.000842182 0 0)
(0.000884741 0 0)
(0.000926511 0 0)
(0.000968224 0 0)
(0.0010096 0 0)
(0.00105083 0 0)
(0.00109159 0 0)
(0.00113246 0 0)
(0.00117278 0 0)
(0.00121301 0 0)
(0.00125306 0 0)
(0.00129297 0 0)
(0.00133232 0 0)
(0.00137158 0 0)
(0.00141061 0 0)
(0.00144935 0 0)
(0.00148786 0 0)
(0.00152651 0 0)
(0.00156451 0 0)
(0.0016025 0 0)
(0.00164074 0 0)
(0.00167864 0 0)
(0.00171621 0 0)
(0.00175386 0 0)
(0.00179096 0 0)
(0.00182767 0 0)
(0.00186467 0 0)
(0.00190151 0 0)
(0.00193775 0 0)
(0.00197424 0 0)
(0.0020109 0 0)
(0.00204698 0 0)
(0.00208333 0 0)
(0.00211805 0 0)
(0.00215385 0 0)
(0.00218978 0 0)
(0.00222519 0 0)
(0.00225997 0 0)
(0.00229576 0 0)
(0.00233074 0 0)
(0.00236528 0 0)
(0.00240073 0 0)
(0.0024354 0 0)
(0.00246975 0 0)
(0.00250379 0 0)
(0.00253775 0 0)
(0.0025716 0 0)
(0.00260606 0 0)
(0.0026398 0 0)
(0.00267386 0 0)
(0.00270802 0 0)
(0.00274089 0 0)
(0.00277438 0 0)
(0.00280761 0 0)
(0.00284018 0 0)
(0.00287412 0 0)
(0.00290728 0 0)
(0.00293985 0 0)
(0.00297342 0 0)
(0.00300533 0 0)
(0.00303767 0 0)
(0.0030709 0 0)
(0.00310283 0 0)
(0.00313567 0 0)
(0.00316779 0 0)
(0.00319927 0 0)
(0.00323119 0 0)
(0.00326355 0 0)
(0.00329582 0 0)
(0.00332776 0 0)
(0.00335837 0 0)
(0.00339092 0 0)
(0.00342149 0 0)
(0.00345287 0 0)
(0.00348343 0 0)
(0.00351483 0 0)
(0.00354603 0 0)
(0.00357639 0 0)
(0.00360779 0 0)
(0.0036391 0 0)
(0.00367026 0 0)
(0.00370112 0 0)
(0.00373153 0 0)
)
;

boundaryField
{
    inlet
    {
        type            fixedValue;
        value           uniform (0 0 0);
    }
    outlet
    {
        type            zeroGradient;
    }
    yzfaces
    {
        type            empty;
    }
}


// ************************************************************************* //
