/*--------------------------------*- C++ -*----------------------------------*\
| =========                 |                                                 |
| \\      /  F ield         | foam-extend: Open Source CFD                    |
|  \\    /   O peration     | Version:     5.0                                |
|   \\  /    A nd           | Web:         http://www.foam-extend.org         |
|    \\/     M anipulation  |                                                 |
\*---------------------------------------------------------------------------*/
FoamFile
{
    version     2.0;
    format      ascii;
    class       volScalarField;
    location    "7.84746";
    object      CO2.water;
}
// * * * * * * * * * * * * * * * * * * * * * * * * * * * * * * * * * * * * * //

dimensions      [0 0 0 0 0 0 0];

internalField   nonuniform List<scalar> 
100
(
6.63922e-05
9.65695e-06
1.1397e-06
1.21087e-07
1.2049e-08
1.14545e-09
1.05181e-10
9.39689e-12
8.20848e-13
7.03619e-14
5.93412e-15
4.93332e-16
4.04898e-17
3.28536e-18
2.63848e-19
2.09865e-20
1.65461e-21
1.29416e-22
1.0044e-23
7.73904e-25
5.92375e-26
4.50537e-27
3.40574e-28
2.56012e-29
1.91374e-30
1.42315e-31
1.05313e-32
7.75536e-34
5.68455e-35
4.14791e-36
3.01358e-37
2.1808e-38
1.57165e-39
1.12835e-40
8.06906e-42
5.74926e-43
4.08237e-44
2.88856e-45
2.03741e-46
1.43223e-47
1.00358e-48
7.00961e-50
4.8815e-51
3.38911e-52
2.3461e-53
1.6199e-54
1.11531e-55
7.65914e-57
5.24558e-58
3.58384e-59
2.44203e-60
1.66009e-61
1.12571e-62
7.6162e-64
5.14049e-65
3.46164e-66
2.32554e-67
1.55904e-68
1.04289e-69
6.96163e-71
4.63728e-72
3.08343e-73
2.04572e-74
1.35464e-75
8.9517e-77
5.90386e-78
3.88631e-79
2.55373e-80
1.67492e-81
1.09667e-82
7.16711e-84
4.67601e-85
3.04528e-86
1.97985e-87
1.2851e-88
8.32761e-90
5.38727e-91
3.47913e-92
2.24297e-93
1.44345e-94
9.27436e-96
5.94876e-97
3.81047e-98
2.43696e-99
1.55641e-100
9.92678e-102
6.32285e-103
4.02169e-104
2.55511e-105
1.62115e-106
1.02732e-107
6.49962e-109
4.10605e-110
2.59043e-111
1.63201e-112
1.02699e-113
6.45444e-115
4.05269e-116
2.54149e-117
1.59225e-118
)
;

boundaryField
{
    inlet
    {
        type            fixedValue;
        value           uniform 0;
    }
    outlet
    {
        type            zeroGradient;
    }
    yzfaces
    {
        type            empty;
    }
}


// ************************************************************************* //
