/*--------------------------------*- C++ -*----------------------------------*\
| =========                 |                                                 |
| \\      /  F ield         | foam-extend: Open Source CFD                    |
|  \\    /   O peration     | Version:     5.0                                |
|   \\  /    A nd           | Web:         http://www.foam-extend.org         |
|    \\/     M anipulation  |                                                 |
\*---------------------------------------------------------------------------*/
FoamFile
{
    version     2.0;
    format      ascii;
    class       volScalarField;
    location    "3";
    object      alpha.gas;
}
// * * * * * * * * * * * * * * * * * * * * * * * * * * * * * * * * * * * * * //

dimensions      [0 0 0 0 0 0 0];

internalField   nonuniform List<scalar> 
100
(
0.145845
0.123757
0.115751
0.104391
0.101664
0.0966037
0.091422
0.0916308
0.0837285
0.0803197
0.0815423
0.0806162
0.0763949
0.0723245
0.069648
0.0686908
0.0676524
0.0687091
0.0645846
0.0628053
0.0637107
0.0573111
0.0527649
0.0514725
0.0460667
0.0406162
0.0306547
0.00796995
0.0271338
0.0267556
0.0266485
0.0266541
0.0267121
0.0267862
0.0268503
0.0268982
0.0269168
0.0268939
0.0268271
0.026692
0.0264896
0.0261984
0.0258088
0.0253098
0.0246917
0.0239299
0.0229983
0.0219101
0.0206465
0.0192346
0.0177031
0.0161481
0.0146687
0.0133517
0.0122873
0.0114927
0.0109394
0.0105721
0.0103424
0.0102
0.0101175
0.0100676
0.010038
0.0100216
0.0100141
0.0100073
0.0100061
0.0100035
0.0100002
0.0099998
0.0100013
0.0100032
0.0100026
0.010002
0.0100043
0.010003
0.010004
0.0100032
0.0100028
0.0100051
0.0100031
0.0100029
0.0100038
0.0100039
0.0100013
0.0100019
0.0100003
0.00999849
0.00999905
0.00999615
0.00999823
0.00999908
0.0100012
0.00999945
0.0100008
0.0100008
0.0100012
0.0100022
0.0100012
0.0100018
)
;

boundaryField
{
    inlet
    {
        type            fixedValue;
        value           uniform 0.2;
    }
    outlet
    {
        type            zeroGradient;
    }
    yzfaces
    {
        type            empty;
    }
}


// ************************************************************************* //
