/*--------------------------------*- C++ -*----------------------------------*\
| =========                 |                                                 |
| \\      /  F ield         | foam-extend: Open Source CFD                    |
|  \\    /   O peration     | Version:     5.0                                |
|   \\  /    A nd           | Web:         http://www.foam-extend.org         |
|    \\/     M anipulation  |                                                 |
\*---------------------------------------------------------------------------*/
FoamFile
{
    version     2.0;
    format      ascii;
    class       volScalarField;
    location    "3";
    object      H2O.gas;
}
// * * * * * * * * * * * * * * * * * * * * * * * * * * * * * * * * * * * * * //

dimensions      [0 0 0 0 0 0 0];

internalField   nonuniform List<scalar> 
100
(
0.000284029
0.000241014
0.000225423
0.000203298
0.000197987
0.000188133
0.000178042
0.000178448
0.000163059
0.00015642
0.000158801
0.000156998
0.000148777
0.00014085
0.000135637
0.000133773
0.000131751
0.000133809
0.000125777
0.000122311
0.000124075
0.000111612
0.000102758
0.000100241
8.97135e-05
7.90989e-05
5.96992e-05
1.55212e-05
0.0013196
0.0022492
0.00332511
0.00453348
0.00584966
0.0072704
0.00876242
0.0103131
0.0118818
0.0134295
0.0149411
0.0163511
0.0176346
0.0187772
0.0197131
0.0204137
0.0208781
0.0210575
0.0208986
0.020444
0.0196767
0.0186316
0.0173632
0.0159683
0.0146053
0.0133327
0.0122881
0.0115025
0.010952
0.0105781
0.0103463
0.0102066
0.0101298
0.0100762
0.0100501
0.0100262
0.0100161
0.0100056
0.0100026
0.0100029
0.00999965
0.0099928
0.00999213
0.00999939
0.0100052
0.0100072
0.0100053
0.0100079
0.0100018
0.0100072
0.0100059
0.0100046
0.0100021
0.0100078
0.0100089
0.0100047
0.0100054
0.00999466
0.0100029
0.00999237
0.00999263
0.00999813
0.00999064
0.00999197
0.00999428
0.00999494
0.00999012
0.00999948
0.0100027
0.0100017
0.00999616
0.00999461
)
;

boundaryField
{
    inlet
    {
        type            fixedValue;
        value           uniform 0;
    }
    outlet
    {
        type            zeroGradient;
    }
    yzfaces
    {
        type            empty;
    }
}


// ************************************************************************* //
