/*--------------------------------*- C++ -*----------------------------------*\
| =========                 |                                                 |
| \\      /  F ield         | foam-extend: Open Source CFD                    |
|  \\    /   O peration     | Version:     5.0                                |
|   \\  /    A nd           | Web:         http://www.foam-extend.org         |
|    \\/     M anipulation  |                                                 |
\*---------------------------------------------------------------------------*/
FoamFile
{
    version     2.0;
    format      ascii;
    class       surfaceScalarField;
    location    "3";
    object      phi;
}
// * * * * * * * * * * * * * * * * * * * * * * * * * * * * * * * * * * * * * //

dimensions      [0 3 -1 0 0 0 0];

internalField   nonuniform List<scalar> 
99
(
1.2256e-06
1.20908e-06
1.20502e-06
1.21175e-06
1.21007e-06
1.21263e-06
1.21552e-06
1.21787e-06
1.21385e-06
1.21121e-06
1.21696e-06
1.22106e-06
1.22137e-06
1.21918e-06
1.21928e-06
1.21815e-06
1.21807e-06
1.21714e-06
1.2176e-06
1.21644e-06
1.21719e-06
1.2154e-06
1.21319e-06
1.21343e-06
1.2129e-06
1.21173e-06
1.21179e-06
1.21125e-06
1.21249e-06
1.21217e-06
1.21331e-06
1.2135e-06
1.21307e-06
1.21253e-06
1.21269e-06
1.21185e-06
1.21187e-06
1.21271e-06
1.21329e-06
1.21361e-06
1.2142e-06
1.21441e-06
1.21471e-06
1.21689e-06
1.21604e-06
1.21557e-06
1.21581e-06
1.21562e-06
1.21577e-06
1.21591e-06
1.21685e-06
1.21766e-06
1.21615e-06
1.21617e-06
1.21674e-06
1.21433e-06
1.21397e-06
1.2127e-06
1.2144e-06
1.21444e-06
1.2152e-06
1.21512e-06
1.21427e-06
1.2132e-06
1.21243e-06
1.21212e-06
1.21231e-06
1.2122e-06
1.21106e-06
1.2119e-06
1.21142e-06
1.21182e-06
1.21344e-06
1.21421e-06
1.21352e-06
1.21314e-06
1.21505e-06
1.21399e-06
1.21332e-06
1.21459e-06
1.21423e-06
1.21357e-06
1.2129e-06
1.21238e-06
1.21138e-06
1.21025e-06
1.21057e-06
1.21026e-06
1.21169e-06
1.21211e-06
1.21104e-06
1.21247e-06
1.21215e-06
1.21177e-06
1.21297e-06
1.21352e-06
1.21361e-06
1.21279e-06
1.21225e-06
)
;

boundaryField
{
    inlet
    {
        type            calculated;
        value           uniform -1.225e-06;
    }
    outlet
    {
        type            calculated;
        value           uniform 1.2095e-06;
    }
    yzfaces
    {
        type            empty;
    }
}


// ************************************************************************* //
