/*--------------------------------*- C++ -*----------------------------------*\
| =========                 |                                                 |
| \\      /  F ield         | foam-extend: Open Source CFD                    |
|  \\    /   O peration     | Version:     5.0                                |
|   \\  /    A nd           | Web:         http://www.foam-extend.org         |
|    \\/     M anipulation  |                                                 |
\*---------------------------------------------------------------------------*/
FoamFile
{
    version     2.0;
    format      ascii;
    class       volVectorField;
    location    "3";
    object      U.gas;
}
// * * * * * * * * * * * * * * * * * * * * * * * * * * * * * * * * * * * * * //

dimensions      [0 1 -1 0 0 0 0];

internalField   nonuniform List<vector> 
100
(
(0.00682422 0 0)
(0.00759313 0 0)
(0.00831049 0 0)
(0.00922123 0 0)
(0.00923636 0 0)
(0.0096097 0 0)
(0.0102223 0 0)
(0.0101256 0 0)
(0.0107668 0 0)
(0.0109279 0 0)
(0.0109192 0 0)
(0.0111983 0 0)
(0.0114118 0 0)
(0.0118002 0 0)
(0.0120722 0 0)
(0.0119541 0 0)
(0.0121168 0 0)
(0.0120749 0 0)
(0.0124025 0 0)
(0.0123705 0 0)
(0.0125946 0 0)
(0.0130538 0 0)
(0.0132488 0 0)
(0.0134692 0 0)
(0.0137079 0 0)
(0.013978 0 0)
(0.0145438 0 0)
(0.0122203 0 0)
(0.0113815 0 0)
(0.0110626 0 0)
(0.0109483 0 0)
(0.0109175 0 0)
(0.010915 0 0)
(0.010924 0 0)
(0.0109411 0 0)
(0.010956 0 0)
(0.0109663 0 0)
(0.0109774 0 0)
(0.0109815 0 0)
(0.0109754 0 0)
(0.0109499 0 0)
(0.0109079 0 0)
(0.0108411 0 0)
(0.0107526 0 0)
(0.010629 0 0)
(0.0104547 0 0)
(0.0102342 0 0)
(0.00995168 0 0)
(0.00960044 0 0)
(0.00916791 0 0)
(0.00865363 0 0)
(0.00805751 0 0)
(0.00741061 0 0)
(0.00676263 0 0)
(0.00617035 0 0)
(0.00567785 0 0)
(0.00530313 0 0)
(0.00504188 0 0)
(0.00487194 0 0)
(0.00476856 0 0)
(0.00470312 0 0)
(0.00466621 0 0)
(0.00464073 0 0)
(0.00462286 0 0)
(0.00461197 0 0)
(0.00460712 0 0)
(0.0046042 0 0)
(0.0046032 0 0)
(0.00459931 0 0)
(0.00459786 0 0)
(0.004598 0 0)
(0.0045979 0 0)
(0.00460273 0 0)
(0.00460786 0 0)
(0.00460833 0 0)
(0.00460726 0 0)
(0.00460881 0 0)
(0.00461037 0 0)
(0.00460653 0 0)
(0.00460676 0 0)
(0.00460986 0 0)
(0.0046088 0 0)
(0.00460567 0 0)
(0.00460225 0 0)
(0.00459985 0 0)
(0.00459503 0 0)
(0.0045945 0 0)
(0.00459363 0 0)
(0.00459481 0 0)
(0.0045992 0 0)
(0.00459662 0 0)
(0.00459851 0 0)
(0.00460085 0 0)
(0.0045992 0 0)
(0.00459889 0 0)
(0.00460351 0 0)
(0.004606 0 0)
(0.00460461 0 0)
(0.00460269 0 0)
(0.00459861 0 0)
)
;

boundaryField
{
    inlet
    {
        type            fixedValue;
        value           uniform (0.005 0 0);
    }
    outlet
    {
        type            zeroGradient;
    }
    yzfaces
    {
        type            empty;
    }
}


// ************************************************************************* //
