/*--------------------------------*- C++ -*----------------------------------*\
| =========                 |                                                 |
| \\      /  F ield         | foam-extend: Open Source CFD                    |
|  \\    /   O peration     | Version:     5.0                                |
|   \\  /    A nd           | Web:         http://www.foam-extend.org         |
|    \\/     M anipulation  |                                                 |
\*---------------------------------------------------------------------------*/
FoamFile
{
    version     2.0;
    format      ascii;
    class       volVectorField;
    location    "3";
    object      U.water;
}
// * * * * * * * * * * * * * * * * * * * * * * * * * * * * * * * * * * * * * //

dimensions      [0 1 -1 0 0 0 0];

internalField   nonuniform List<vector> 
100
(
(7.11924e-05 0 0)
(0.000170772 0 0)
(0.000268315 0 0)
(0.000393609 0 0)
(0.000496602 0 0)
(0.000529658 0 0)
(0.000618453 0 0)
(0.000697888 0 0)
(0.000744312 0 0)
(0.000855895 0 0)
(0.000906062 0 0)
(0.000937366 0 0)
(0.00100009 0 0)
(0.00108395 0 0)
(0.00120231 0 0)
(0.00127656 0 0)
(0.00129924 0 0)
(0.00133446 0 0)
(0.00137867 0 0)
(0.00145555 0 0)
(0.00150938 0 0)
(0.00164047 0 0)
(0.00183505 0 0)
(0.00203624 0 0)
(0.00227891 0 0)
(0.0026075 0 0)
(0.00317266 0 0)
(0.0037502 0 0)
(0.00393633 0 0)
(0.00400399 0 0)
(0.00402786 0 0)
(0.00403551 0 0)
(0.00403301 0 0)
(0.00402639 0 0)
(0.00402029 0 0)
(0.00401447 0 0)
(0.0040102 0 0)
(0.00401142 0 0)
(0.00401682 0 0)
(0.00402531 0 0)
(0.00403943 0 0)
(0.00405921 0 0)
(0.00408563 0 0)
(0.00412354 0 0)
(0.00416741 0 0)
(0.00421601 0 0)
(0.00427696 0 0)
(0.00434822 0 0)
(0.00442806 0 0)
(0.00451514 0 0)
(0.00460659 0 0)
(0.00469707 0 0)
(0.00477353 0 0)
(0.00483524 0 0)
(0.00488623 0 0)
(0.00491768 0 0)
(0.00493561 0 0)
(0.00494738 0 0)
(0.00495769 0 0)
(0.00496693 0 0)
(0.00497207 0 0)
(0.00497542 0 0)
(0.00497471 0 0)
(0.00497148 0 0)
(0.00496809 0 0)
(0.00496601 0 0)
(0.0049659 0 0)
(0.00496613 0 0)
(0.00496365 0 0)
(0.00496307 0 0)
(0.00496384 0 0)
(0.00496368 0 0)
(0.00496776 0 0)
(0.00497263 0 0)
(0.00497278 0 0)
(0.00497054 0 0)
(0.00497375 0 0)
(0.00497549 0 0)
(0.00497197 0 0)
(0.00497325 0 0)
(0.00497503 0 0)
(0.00497291 0 0)
(0.00497023 0 0)
(0.00496783 0 0)
(0.00496469 0 0)
(0.00496037 0 0)
(0.00495866 0 0)
(0.00495873 0 0)
(0.00496106 0 0)
(0.0049648 0 0)
(0.00496355 0 0)
(0.00496421 0 0)
(0.00496648 0 0)
(0.00496507 0 0)
(0.00496685 0 0)
(0.00497035 0 0)
(0.0049716 0 0)
(0.00497012 0 0)
(0.0049673 0 0)
(0.00496045 0 0)
)
;

boundaryField
{
    inlet
    {
        type            fixedValue;
        value           uniform (0 0 0);
    }
    outlet
    {
        type            zeroGradient;
    }
    yzfaces
    {
        type            empty;
    }
}


// ************************************************************************* //
