/*--------------------------------*- C++ -*----------------------------------*\
| =========                 |                                                 |
| \\      /  F ield         | foam-extend: Open Source CFD                    |
|  \\    /   O peration     | Version:     5.0                                |
|   \\  /    A nd           | Web:         http://www.foam-extend.org         |
|    \\/     M anipulation  |                                                 |
\*---------------------------------------------------------------------------*/
FoamFile
{
    version     2.0;
    format      ascii;
    class       volScalarField;
    location    "6";
    object      H2O.water;
}
// * * * * * * * * * * * * * * * * * * * * * * * * * * * * * * * * * * * * * //

dimensions      [0 0 0 0 0 0 0];

internalField   nonuniform List<scalar> 
100
(
0.00327872
0.0051809
0.00686959
0.00843189
0.00990034
0.0112924
0.0126199
0.0138911
0.0151106
0.016284
0.017416
0.018508
0.0195648
0.0205875
0.0215788
0.0225408
0.023475
0.0243833
0.0252666
0.0261273
0.0269646
0.0277825
0.028578
0.029357
0.0301155
0.0308583
0.0315834
0.0322933
0.0329871
0.0336666
0.0343333
0.0349842
0.0356246
0.0362505
0.0368654
0.0374682
0.0380591
0.0386412
0.0392114
0.0397728
0.0403229
0.0408657
0.0413975
0.0419218
0.0424349
0.0429431
0.0434409
0.0439313
0.0444152
0.0448909
0.0453588
0.0458209
0.0462757
0.0467246
0.047167
0.047602
0.0480318
0.0484564
0.0488743
0.0492867
0.0496941
0.0500949
0.0504918
0.0508846
0.0512694
0.0516522
0.0520289
0.0524004
0.0527679
0.0531317
0.0534909
0.0538444
0.0541967
0.0545417
0.0548853
0.0552232
0.055558
0.055891
0.0562174
0.0565425
0.0568622
0.0571805
0.0574933
0.0578056
0.0581116
0.0584159
0.0587175
0.0590171
0.059312
0.0596041
0.0598933
0.0601815
0.0604638
0.0607455
0.0610242
0.0613004
0.061573
0.0618437
0.0621116
0.0623782
)
;

boundaryField
{
    inlet
    {
        type            fixedValue;
        value           uniform 0;
    }
    outlet
    {
        type            zeroGradient;
    }
    yzfaces
    {
        type            empty;
    }
}


// ************************************************************************* //
