/*--------------------------------*- C++ -*----------------------------------*\
| =========                 |                                                 |
| \\      /  F ield         | foam-extend: Open Source CFD                    |
|  \\    /   O peration     | Version:     5.0                                |
|   \\  /    A nd           | Web:         http://www.foam-extend.org         |
|    \\/     M anipulation  |                                                 |
\*---------------------------------------------------------------------------*/
FoamFile
{
    version     2.0;
    format      ascii;
    class       surfaceScalarField;
    location    "6";
    object      phi;
}
// * * * * * * * * * * * * * * * * * * * * * * * * * * * * * * * * * * * * * //

dimensions      [0 3 -1 0 0 0 0];

internalField   nonuniform List<scalar> 
99
(
0.000122506
0.000122501
0.000122502
0.000122511
0.000122516
0.000122532
0.000122534
0.000122534
0.000122541
0.000122545
0.000122521
0.000122557
0.000122548
0.000122566
0.000122573
0.000122591
0.000122581
0.000122573
0.000122562
0.000122564
0.000122549
0.000122574
0.000122577
0.000122575
0.00012257
0.000122535
0.00012253
0.000122555
0.00012254
0.000122554
0.000122533
0.000122535
0.000122525
0.000122535
0.000122523
0.000122516
0.000122528
0.000122507
0.000122522
0.000122519
0.00012251
0.000122512
0.000122483
0.000122518
0.000122529
0.000122517
0.00012255
0.000122554
0.000122574
0.000122576
0.000122542
0.000122556
0.000122558
0.000122576
0.00012259
0.000122576
0.000122566
0.000122548
0.000122533
0.000122528
0.00012251
0.000122507
0.000122497
0.000122501
0.000122503
0.000122483
0.000122479
0.000122475
0.000122487
0.000122472
0.000122468
0.000122477
0.000122465
0.000122486
0.000122483
0.000122487
0.000122488
0.000122492
0.000122485
0.000122482
0.000122483
0.000122471
0.000122472
0.000122477
0.00012245
0.000122438
0.000122419
0.000122406
0.000122386
0.000122414
0.00012242
0.000122434
0.000122435
0.00012243
0.000122423
0.000122436
0.000122435
0.000122438
0.000122431
)
;

boundaryField
{
    inlet
    {
        type            calculated;
        value           uniform -0.0001225;
    }
    outlet
    {
        type            calculated;
        value           uniform 0.000122434;
    }
    yzfaces
    {
        type            empty;
    }
}


// ************************************************************************* //
