/*--------------------------------*- C++ -*----------------------------------*\
| =========                 |                                                 |
| \\      /  F ield         | foam-extend: Open Source CFD                    |
|  \\    /   O peration     | Version:     5.0                                |
|   \\  /    A nd           | Web:         http://www.foam-extend.org         |
|    \\/     M anipulation  |                                                 |
\*---------------------------------------------------------------------------*/
FoamFile
{
    version     2.0;
    format      ascii;
    class       volScalarField;
    location    "6";
    object      alpha.gas;
}
// * * * * * * * * * * * * * * * * * * * * * * * * * * * * * * * * * * * * * //

dimensions      [0 0 0 0 0 0 0];

internalField   nonuniform List<scalar> 
100
(
0.160574
0.147074
0.138187
0.130893
0.125915
0.12098
0.115827
0.111775
0.108117
0.104843
0.101845
0.099291
0.0970274
0.0947819
0.092773
0.090722
0.088389
0.0865974
0.0854366
0.084059
0.0830473
0.0821077
0.0808002
0.0793109
0.0778493
0.0764621
0.0753954
0.0742869
0.0731723
0.0718581
0.0708338
0.0700639
0.0691521
0.0682083
0.0672451
0.0661632
0.0650139
0.0640493
0.0627053
0.0615663
0.060368
0.0587915
0.0569711
0.0548124
0.0523011
0.0488839
0.0438903
0.0357506
0.0186085
0.0346229
0.0351909
0.0357305
0.0361325
0.036376
0.0364722
0.0364735
0.0363726
0.0362393
0.0360306
0.0358158
0.0356047
0.0353975
0.0351737
0.034995
0.034819
0.0346432
0.0344915
0.0343613
0.0342349
0.0341256
0.0340311
0.033942
0.0338633
0.033802
0.0337655
0.033744
0.033731
0.0337156
0.0336848
0.033648
0.0335951
0.033526
0.0334297
0.0333237
0.0331926
0.0329965
0.0327534
0.0324957
0.0321717
0.0317658
0.0313276
0.0308208
0.0302067
0.0295067
0.0287129
0.0278075
0.0267887
0.0256259
0.0243042
0.0228305
)
;

boundaryField
{
    inlet
    {
        type            fixedValue;
        value           uniform 0.2;
    }
    outlet
    {
        type            zeroGradient;
    }
    yzfaces
    {
        type            empty;
    }
}


// ************************************************************************* //
