/*--------------------------------*- C++ -*----------------------------------*\
| =========                 |                                                 |
| \\      /  F ield         | foam-extend: Open Source CFD                    |
|  \\    /   O peration     | Version:     5.0                                |
|   \\  /    A nd           | Web:         http://www.foam-extend.org         |
|    \\/     M anipulation  |                                                 |
\*---------------------------------------------------------------------------*/
FoamFile
{
    version     2.0;
    format      ascii;
    class       volScalarField;
    location    "6";
    object      Cl.water;
}
// * * * * * * * * * * * * * * * * * * * * * * * * * * * * * * * * * * * * * //

dimensions      [0 0 0 0 0 0 0];

internalField   nonuniform List<scalar> 
100
(
0.00451733
0.00603396
0.00700569
0.00785284
0.008488
0.00905503
0.00958703
0.0101042
0.0105328
0.0108719
0.0112333
0.0115353
0.0117996
0.0120432
0.0122577
0.01247
0.01272
0.013013
0.0131207
0.0133026
0.013426
0.0135225
0.013647
0.013799
0.0139658
0.0141354
0.0142777
0.0144039
0.0145243
0.0146577
0.0148009
0.0149068
0.0150081
0.0151124
0.0152317
0.0153411
0.0154979
0.0155865
0.0157673
0.0158962
0.0160167
0.0162047
0.0164265
0.0166752
0.0169502
0.017332
0.0178743
0.0187541
0.020441
0.0189945
0.0189263
0.0188666
0.0188225
0.0187886
0.018784
0.0187828
0.0187921
0.0188074
0.0188321
0.0188592
0.0188842
0.0189051
0.0189336
0.0189522
0.0189729
0.0189936
0.0190122
0.0190249
0.0190424
0.0190517
0.0190598
0.0190726
0.0190789
0.0190817
0.0190832
0.0190814
0.0190847
0.0190872
0.0190892
0.0191
0.0191061
0.0191146
0.0191282
0.0191403
0.0191554
0.019177
0.0192053
0.0192361
0.0192694
0.019322
0.0193688
0.0194274
0.0195007
0.0195813
0.0196693
0.0197748
0.0198932
0.0200218
0.0201754
0.0203438
)
;

boundaryField
{
    inlet
    {
        type            fixedValue;
        value           uniform 0;
    }
    outlet
    {
        type            zeroGradient;
    }
    yzfaces
    {
        type            empty;
    }
}


// ************************************************************************* //
