/*--------------------------------*- C++ -*----------------------------------*\
| =========                 |                                                 |
| \\      /  F ield         | foam-extend: Open Source CFD                    |
|  \\    /   O peration     | Version:     5.0                                |
|   \\  /    A nd           | Web:         http://www.foam-extend.org         |
|    \\/     M anipulation  |                                                 |
\*---------------------------------------------------------------------------*/
FoamFile
{
    version     2.0;
    format      ascii;
    class       volScalarField;
    location    "6";
    object      CO2.gas;
}
// * * * * * * * * * * * * * * * * * * * * * * * * * * * * * * * * * * * * * //

dimensions      [0 0 0 0 0 0 0];

internalField   nonuniform List<scalar> 
100
(
0.160196
0.146022
0.136381
0.129496
0.125515
0.120609
0.114776
0.111372
0.107789
0.104146
0.101314
0.0988364
0.0965961
0.0942698
0.0921685
0.0899504
0.0875818
0.0863513
0.0850332
0.0838367
0.0828856
0.0818444
0.0803719
0.0787644
0.0773225
0.0760339
0.0751159
0.0739785
0.0728344
0.0714575
0.0705409
0.0698502
0.0689411
0.0679852
0.0670519
0.0658999
0.0648578
0.0637972
0.0625832
0.0614464
0.0601928
0.0586336
0.0568601
0.0547057
0.0521993
0.0487887
0.0438048
0.0356809
0.0185723
0.034532
0.0350817
0.0355889
0.035944
0.0361437
0.0361471
0.036057
0.0358327
0.0355417
0.0351362
0.0346792
0.0341816
0.0336329
0.0330012
0.0323741
0.0316784
0.0309182
0.0301125
0.0292647
0.0283483
0.0273932
0.0263854
0.0253287
0.0242359
0.0231075
0.0219545
0.020782
0.01959
0.0183802
0.017154
0.0159155
0.0146948
0.0134772
0.012273
0.0111057
0.00997131
0.00887301
0.00782513
0.00684209
0.00591651
0.00505379
0.00426604
0.00355358
0.00291287
0.0023475
0.0018567
0.00143553
0.00108115
0.000788938
0.000554452
0.000371642
)
;

boundaryField
{
    inlet
    {
        type            fixedValue;
        value           uniform 0.2;
    }
    outlet
    {
        type            zeroGradient;
    }
    yzfaces
    {
        type            empty;
    }
}


// ************************************************************************* //
