/*--------------------------------*- C++ -*----------------------------------*\
| =========                 |                                                 |
| \\      /  F ield         | foam-extend: Open Source CFD                    |
|  \\    /   O peration     | Version:     5.0                                |
|   \\  /    A nd           | Web:         http://www.foam-extend.org         |
|    \\/     M anipulation  |                                                 |
\*---------------------------------------------------------------------------*/
FoamFile
{
    version     2.0;
    format      ascii;
    class       volScalarField;
    location    "6";
    object      CO2.water;
}
// * * * * * * * * * * * * * * * * * * * * * * * * * * * * * * * * * * * * * //

dimensions      [0 0 0 0 0 0 0];

internalField   nonuniform List<scalar> 
100
(
0.00103299
0.00138083
0.00160243
0.00179589
0.00194232
0.00207167
0.00219338
0.00231177
0.0024105
0.00248681
0.00256924
0.0026382
0.00269792
0.00275239
0.00280245
0.00285119
0.00290902
0.00297583
0.00300138
0.0030435
0.00307115
0.00309232
0.00312048
0.00315479
0.00319362
0.00323283
0.00326656
0.00329386
0.00332168
0.00335304
0.0033856
0.00341008
0.00343407
0.00345763
0.00348386
0.00350734
0.00354394
0.00356347
0.00360598
0.00363575
0.00366515
0.003706
0.00375632
0.00381296
0.00387583
0.00396312
0.00408814
0.00428951
0.00467543
0.000579086
0.00017964
5.52646e-05
1.73717e-05
5.63907e-06
1.88921e-06
6.51067e-07
2.29367e-07
8.21303e-08
2.97082e-08
1.08101e-08
3.93624e-09
1.42988e-09
5.162e-10
1.8461e-10
6.51653e-11
2.26183e-11
7.68887e-12
2.54557e-12
8.14872e-13
2.50235e-13
7.306e-14
2.00514e-14
5.06618e-15
1.15253e-15
2.31537e-16
5.68063e-17
4.67553e-17
5.42962e-17
5.28852e-17
4.45169e-17
3.41349e-17
2.46638e-17
1.71582e-17
1.16367e-17
7.76171e-18
5.11491e-18
3.34379e-18
2.1722e-18
1.4036e-18
9.02879e-19
5.78554e-19
3.69498e-19
2.34912e-19
1.48829e-19
9.38965e-20
5.89633e-20
3.6837e-20
2.28675e-20
1.41129e-20
8.63813e-21
)
;

boundaryField
{
    inlet
    {
        type            fixedValue;
        value           uniform 0;
    }
    outlet
    {
        type            zeroGradient;
    }
    yzfaces
    {
        type            empty;
    }
}


// ************************************************************************* //
