/*--------------------------------*- C++ -*----------------------------------*\
| =========                 |                                                 |
| \\      /  F ield         | foam-extend: Open Source CFD                    |
|  \\    /   O peration     | Version:     5.0                                |
|   \\  /    A nd           | Web:         http://www.foam-extend.org         |
|    \\/     M anipulation  |                                                 |
\*---------------------------------------------------------------------------*/
FoamFile
{
    version     2.0;
    format      ascii;
    class       volScalarField;
    location    "6";
    object      H2O.gas;
}
// * * * * * * * * * * * * * * * * * * * * * * * * * * * * * * * * * * * * * //

dimensions      [0 0 0 0 0 0 0];

internalField   nonuniform List<scalar> 
100
(
1.69051e-07
8.65997e-07
2.92745e-06
2.4024e-05
0.000172376
0.000147242
0.000151766
0.000167552
0.000178567
0.000184634
0.000188779
0.000188038
0.000185633
0.000181935
0.000178733
0.000174803
0.000170516
0.000168423
0.000166013
0.000163724
0.000161732
0.000159822
0.000156953
0.000153663
0.000150713
0.000147907
0.000145856
0.000143186
0.000140507
0.00013778
0.000135975
0.000134677
0.000133003
0.000131285
0.000129594
0.000127537
0.00012635
0.000123837
0.000122117
0.000119898
0.000117202
0.000114207
0.00011095
0.000106746
0.000101855
9.51999e-05
8.54751e-05
6.96232e-05
3.62396e-05
8.67845e-05
0.000107755
0.000137866
0.000179878
0.000237249
0.000313421
0.000413302
0.000540842
0.000701455
0.000899137
0.00113982
0.00142896
0.00176956
0.00216683
0.00262539
0.00314689
0.00373119
0.00438354
0.005105
0.00588567
0.00673387
0.00764317
0.0086093
0.00962715
0.0106962
0.0118124
0.0129653
0.0141418
0.0153376
0.0165355
0.0177301
0.0189071
0.02005
0.0211566
0.0222205
0.0232201
0.0241194
0.0249268
0.0256559
0.0262618
0.0267077
0.0270575
0.0272646
0.0272898
0.0271543
0.0268543
0.0263723
0.0257058
0.0248358
0.0237495
0.0224602
)
;

boundaryField
{
    inlet
    {
        type            fixedValue;
        value           uniform 0;
    }
    outlet
    {
        type            zeroGradient;
    }
    yzfaces
    {
        type            empty;
    }
}


// ************************************************************************* //
