/*--------------------------------*- C++ -*----------------------------------*\
| =========                 |                                                 |
| \\      /  F ield         | foam-extend: Open Source CFD                    |
|  \\    /   O peration     | Version:     5.0                                |
|   \\  /    A nd           | Web:         http://www.foam-extend.org         |
|    \\/     M anipulation  |                                                 |
\*---------------------------------------------------------------------------*/
FoamFile
{
    version     2.0;
    format      ascii;
    class       volScalarField;
    location    "6";
    object      Na.water;
}
// * * * * * * * * * * * * * * * * * * * * * * * * * * * * * * * * * * * * * //

dimensions      [0 0 0 0 0 0 0];

internalField   nonuniform List<scalar> 
100
(
0.00451567
0.00603567
0.0070084
0.00785151
0.00849535
0.00905793
0.00959227
0.0101123
0.0105401
0.0108782
0.0112341
0.0115347
0.0117951
0.0120334
0.0122514
0.0124676
0.0127148
0.0130083
0.0131161
0.0133072
0.0134293
0.0135214
0.0136399
0.0137896
0.0139585
0.0141307
0.0142859
0.0144078
0.0145258
0.0146598
0.0147897
0.0148995
0.0150105
0.0151155
0.0152291
0.015337
0.0154896
0.0155755
0.0157648
0.0158963
0.0160195
0.0162014
0.0164203
0.0166669
0.0169416
0.0173231
0.017874
0.0187551
0.0204428
0.0189962
0.0189278
0.0188653
0.0188205
0.0187866
0.0187818
0.0187762
0.0187877
0.0187976
0.0188233
0.0188471
0.0188675
0.0188937
0.0189267
0.01894
0.0189575
0.018978
0.0189959
0.0190091
0.0190294
0.019043
0.0190591
0.0190698
0.0190787
0.0190882
0.0190945
0.0191
0.0190998
0.0191012
0.0191047
0.0191078
0.0191073
0.0191178
0.0191278
0.0191364
0.0191551
0.019181
0.0192074
0.0192307
0.0192687
0.019321
0.0193731
0.0194295
0.0194994
0.0195813
0.0196723
0.0197713
0.0198897
0.0200263
0.0201774
0.0203431
)
;

boundaryField
{
    inlet
    {
        type            fixedValue;
        value           uniform 0;
    }
    outlet
    {
        type            zeroGradient;
    }
    yzfaces
    {
        type            empty;
    }
}


// ************************************************************************* //
