/*--------------------------------*- C++ -*----------------------------------*\
| =========                 |                                                 |
| \\      /  F ield         | foam-extend: Open Source CFD                    |
|  \\    /   O peration     | Version:     5.0                                |
|   \\  /    A nd           | Web:         http://www.foam-extend.org         |
|    \\/     M anipulation  |                                                 |
\*---------------------------------------------------------------------------*/
FoamFile
{
    version     2.0;
    format      ascii;
    class       volScalarField;
    location    "6";
    object      Ns;
}
// * * * * * * * * * * * * * * * * * * * * * * * * * * * * * * * * * * * * * //

dimensions      [0 -3 0 0 1 0 0];

internalField   nonuniform List<scalar> 
100
(
0.10263
0.410512
3.68189
1.2177
0.905
2.56962
3.26736
0.551699
1.76139
4.28645
2.07824
0.864066
0.519194
2.15115
0.49506
1.51795
0.296797
0.396771
0.464081
0.00353546
0.787949
0.175102
0.359156
0.924705
0.914359
0.622021
0.426529
1.28321
0.459412
0.349772
0.00942923
1.7511
0.126671
1.23032
0.236807
0.165524
0.649865
0.0698471
5.50959e-05
0.207644
0.601481
0.312189
0.370959
0.450919
4.79619
8.2645
16.9067
34.3705
124.864
176.674
178.661
173.023
174.198
170.698
171.988
175.793
168.176
175.085
175.552
170.755
174.198
172.308
172.836
171.277
172.859
172.41
177.148
173.007
171.027
176.03
166.862
177.104
175.307
173.712
176.885
169.581
174.508
175.048
177.051
169.203
172.344
174.614
171.274
170.591
171.567
171.293
168.592
173.799
176.277
171.158
176.855
180.506
168.117
178.085
172.388
172.864
179.396
171.156
172.945
165.302
)
;

boundaryField
{
    inlet
    {
        type            fixedValue;
        value           uniform 0;
    }
    outlet
    {
        type            zeroGradient;
    }
    yzfaces
    {
        type            empty;
    }
}


// ************************************************************************* //
