/*--------------------------------*- C++ -*----------------------------------*\
| =========                 |                                                 |
| \\      /  F ield         | foam-extend: Open Source CFD                    |
|  \\    /   O peration     | Version:     5.0                                |
|   \\  /    A nd           | Web:         http://www.foam-extend.org         |
|    \\/     M anipulation  |                                                 |
\*---------------------------------------------------------------------------*/
FoamFile
{
    version     2.0;
    format      ascii;
    class       surfaceScalarField;
    location    "6";
    object      phi;
}
// * * * * * * * * * * * * * * * * * * * * * * * * * * * * * * * * * * * * * //

dimensions      [0 3 -1 0 0 0 0];

internalField   nonuniform List<scalar> 
99
(
1.21339e-06
1.21263e-06
1.21635e-06
1.22162e-06
1.2204e-06
1.21601e-06
1.21985e-06
1.21488e-06
1.21003e-06
1.20846e-06
1.21153e-06
1.21074e-06
1.20938e-06
1.21536e-06
1.21396e-06
1.21312e-06
1.21064e-06
1.21661e-06
1.20699e-06
1.20741e-06
1.21019e-06
1.20442e-06
1.2016e-06
1.19379e-06
1.19286e-06
1.1931e-06
1.1909e-06
1.19085e-06
1.19093e-06
1.19125e-06
1.1952e-06
1.19625e-06
1.19754e-06
1.19801e-06
1.19802e-06
1.19879e-06
1.20043e-06
1.19919e-06
1.20002e-06
1.1978e-06
1.20258e-06
1.20919e-06
1.20847e-06
1.20874e-06
1.20651e-06
1.20531e-06
1.20341e-06
1.19816e-06
1.20449e-06
1.20495e-06
1.20387e-06
1.2048e-06
1.20635e-06
1.20484e-06
1.20634e-06
1.20717e-06
1.20729e-06
1.20789e-06
1.2061e-06
1.20568e-06
1.20396e-06
1.20334e-06
1.20465e-06
1.20353e-06
1.20211e-06
1.20102e-06
1.20015e-06
1.19771e-06
1.19816e-06
1.19795e-06
1.19867e-06
1.19844e-06
1.19907e-06
1.19962e-06
1.19819e-06
1.19829e-06
1.19782e-06
1.1972e-06
1.1971e-06
1.19738e-06
1.19605e-06
1.19615e-06
1.19507e-06
1.19548e-06
1.19553e-06
1.19719e-06
1.19688e-06
1.19602e-06
1.19542e-06
1.19525e-06
1.19658e-06
1.19723e-06
1.1989e-06
1.20028e-06
1.20023e-06
1.20083e-06
1.20032e-06
1.20117e-06
1.20083e-06
)
;

boundaryField
{
    inlet
    {
        type            calculated;
        value           uniform -1.225e-06;
    }
    outlet
    {
        type            calculated;
        value           uniform 1.20199e-06;
    }
    yzfaces
    {
        type            empty;
    }
}


// ************************************************************************* //
