/*--------------------------------*- C++ -*----------------------------------*\
| =========                 |                                                 |
| \\      /  F ield         | foam-extend: Open Source CFD                    |
|  \\    /   O peration     | Version:     5.0                                |
|   \\  /    A nd           | Web:         http://www.foam-extend.org         |
|    \\/     M anipulation  |                                                 |
\*---------------------------------------------------------------------------*/
FoamFile
{
    version     2.0;
    format      ascii;
    class       surfaceScalarField;
    location    "6";
    object      phi.water;
}
// * * * * * * * * * * * * * * * * * * * * * * * * * * * * * * * * * * * * * //

dimensions      [0 3 -1 0 0 0 0];

internalField   nonuniform List<scalar> 
99
(
9.02298e-08
1.55703e-07
2.11112e-07
2.67168e-07
3.08167e-07
3.54346e-07
4.14027e-07
4.61998e-07
5.11267e-07
5.62334e-07
6.12698e-07
6.58487e-07
7.002e-07
7.51142e-07
7.96197e-07
8.42654e-07
8.97428e-07
9.48811e-07
9.72457e-07
1.01257e-06
1.04051e-06
1.06758e-06
1.10692e-06
1.14879e-06
1.19658e-06
1.2454e-06
1.28011e-06
1.32309e-06
1.36629e-06
1.42105e-06
1.46844e-06
1.50165e-06
1.54341e-06
1.58679e-06
1.63159e-06
1.68514e-06
1.74548e-06
1.79266e-06
1.8603e-06
1.91356e-06
1.99803e-06
2.1013e-06
2.20586e-06
2.35015e-06
2.51281e-06
2.74952e-06
3.12206e-06
3.88878e-06
4.11219e-06
4.12063e-06
4.05958e-06
4.00741e-06
3.96964e-06
3.93963e-06
3.93431e-06
3.93442e-06
3.94447e-06
3.95822e-06
3.97369e-06
3.99391e-06
4.00851e-06
4.02679e-06
4.05532e-06
4.06887e-06
4.08099e-06
4.09454e-06
4.10835e-06
4.11211e-06
4.12737e-06
4.13802e-06
4.15016e-06
4.15822e-06
4.16822e-06
4.17632e-06
4.1749e-06
4.17768e-06
4.17789e-06
4.17699e-06
4.1792e-06
4.18361e-06
4.18401e-06
4.19154e-06
4.19674e-06
4.20909e-06
4.22109e-06
4.24645e-06
4.26943e-06
4.29003e-06
4.32064e-06
4.36064e-06
4.40812e-06
4.45977e-06
4.52617e-06
4.59995e-06
4.67607e-06
4.76636e-06
4.86049e-06
4.97282e-06
5.09167e-06
)
;

boundaryField
{
    inlet
    {
        type            fixedValue;
        value           uniform 0;
    }
    outlet
    {
        type            calculated;
        value           uniform 5.24854e-06;
    }
    yzfaces
    {
        type            empty;
    }
}


// ************************************************************************* //
