/*--------------------------------*- C++ -*----------------------------------*\
| =========                 |                                                 |
| \\      /  F ield         | foam-extend: Open Source CFD                    |
|  \\    /   O peration     | Version:     5.0                                |
|   \\  /    A nd           | Web:         http://www.foam-extend.org         |
|    \\/     M anipulation  |                                                 |
\*---------------------------------------------------------------------------*/
FoamFile
{
    version     2.0;
    format      ascii;
    class       volVectorField;
    location    "6";
    object      U.gas;
}
// * * * * * * * * * * * * * * * * * * * * * * * * * * * * * * * * * * * * * //

dimensions      [0 1 -1 0 0 0 0];

internalField   nonuniform List<vector> 
100
(
(0.0061876 0 0)
(0.00669673 0 0)
(0.00710803 0 0)
(0.00750045 0 0)
(0.007778 0 0)
(0.00804349 0 0)
(0.00835714 0 0)
(0.00860945 0 0)
(0.00881784 0 0)
(0.00901909 0 0)
(0.00923823 0 0)
(0.00943278 0 0)
(0.00959361 0 0)
(0.00978662 0 0)
(0.00996132 0 0)
(0.0101181 0 0)
(0.0103013 0 0)
(0.0104577 0 0)
(0.0105282 0 0)
(0.0106083 0 0)
(0.0106896 0 0)
(0.0107689 0 0)
(0.0108483 0 0)
(0.0109328 0 0)
(0.0110181 0 0)
(0.0111326 0 0)
(0.0112063 0 0)
(0.0112921 0 0)
(0.0113877 0 0)
(0.0115095 0 0)
(0.0116066 0 0)
(0.0116858 0 0)
(0.0117799 0 0)
(0.0118692 0 0)
(0.0119527 0 0)
(0.0120508 0 0)
(0.0121597 0 0)
(0.0122283 0 0)
(0.0123433 0 0)
(0.0124032 0 0)
(0.0125383 0 0)
(0.0127261 0 0)
(0.0128866 0 0)
(0.0130636 0 0)
(0.0132111 0 0)
(0.0134296 0 0)
(0.0137387 0 0)
(0.0141627 0 0)
(0.0127993 0 0)
(0.0123728 0 0)
(0.0123022 0 0)
(0.0123758 0 0)
(0.0124687 0 0)
(0.0125317 0 0)
(0.012574 0 0)
(0.0126087 0 0)
(0.0126264 0 0)
(0.0126231 0 0)
(0.012611 0 0)
(0.0125755 0 0)
(0.0125402 0 0)
(0.0125057 0 0)
(0.0124856 0 0)
(0.0124514 0 0)
(0.0124165 0 0)
(0.0123836 0 0)
(0.0123465 0 0)
(0.0123067 0 0)
(0.0122801 0 0)
(0.0122611 0 0)
(0.0122472 0 0)
(0.0122365 0 0)
(0.0122249 0 0)
(0.0122181 0 0)
(0.0122029 0 0)
(0.0121895 0 0)
(0.0121824 0 0)
(0.0121739 0 0)
(0.0121708 0 0)
(0.0121693 0 0)
(0.0121599 0 0)
(0.0121469 0 0)
(0.0121354 0 0)
(0.0121187 0 0)
(0.0121087 0 0)
(0.0121055 0 0)
(0.0120858 0 0)
(0.0120444 0 0)
(0.0120023 0 0)
(0.011952 0 0)
(0.0118927 0 0)
(0.0118321 0 0)
(0.0117607 0 0)
(0.011664 0 0)
(0.0115353 0 0)
(0.0113738 0 0)
(0.0111735 0 0)
(0.0109332 0 0)
(0.0106348 0 0)
(0.0102714 0 0)
)
;

boundaryField
{
    inlet
    {
        type            fixedValue;
        value           uniform (0.005 0 0);
    }
    outlet
    {
        type            zeroGradient;
    }
    yzfaces
    {
        type            empty;
    }
}


// ************************************************************************* //
