/*--------------------------------*- C++ -*----------------------------------*\
| =========                 |                                                 |
| \\      /  F ield         | foam-extend: Open Source CFD                    |
|  \\    /   O peration     | Version:     5.0                                |
|   \\  /    A nd           | Web:         http://www.foam-extend.org         |
|    \\/     M anipulation  |                                                 |
\*---------------------------------------------------------------------------*/
FoamFile
{
    version     2.0;
    format      ascii;
    class       volVectorField;
    location    "6";
    object      U.water;
}
// * * * * * * * * * * * * * * * * * * * * * * * * * * * * * * * * * * * * * //

dimensions      [0 1 -1 0 0 0 0];

internalField   nonuniform List<vector> 
100
(
(4.2914e-05 0 0)
(0.000100143 0 0)
(0.00014856 0 0)
(0.000192963 0 0)
(0.000234488 0 0)
(0.000270246 0 0)
(0.000311733 0 0)
(0.00035645 0 0)
(0.000396221 0 0)
(0.000436623 0 0)
(0.000477659 0 0)
(0.000517248 0 0)
(0.000553165 0 0)
(0.000590159 0 0)
(0.000628741 0 0)
(0.000665343 0 0)
(0.00070575 0 0)
(0.000750475 0 0)
(0.000783214 0 0)
(0.000808575 0 0)
(0.000837748 0 0)
(0.000859626 0 0)
(0.000885088 0 0)
(0.000916573 0 0)
(0.000952898 0 0)
(0.000992731 0 0)
(0.00102855 0 0)
(0.00106024 0 0)
(0.00109511 0 0)
(0.00113368 0 0)
(0.00117617 0 0)
(0.00121097 0 0)
(0.00124155 0 0)
(0.00127622 0 0)
(0.00131225 0 0)
(0.00135217 0 0)
(0.00139813 0 0)
(0.00144335 0 0)
(0.00148926 0 0)
(0.00154016 0 0)
(0.00159588 0 0)
(0.00167279 0 0)
(0.00175932 0 0)
(0.00186054 0 0)
(0.00198716 0 0)
(0.00215079 0 0)
(0.00240209 0 0)
(0.00282872 0 0)
(0.00324969 0 0)
(0.00335632 0 0)
(0.0033388 0 0)
(0.00329297 0 0)
(0.00325638 0 0)
(0.00322877 0 0)
(0.00321384 0 0)
(0.00321185 0 0)
(0.00321609 0 0)
(0.00322626 0 0)
(0.00323792 0 0)
(0.00325246 0 0)
(0.00326673 0 0)
(0.00328003 0 0)
(0.00329856 0 0)
(0.00331622 0 0)
(0.00332703 0 0)
(0.00333739 0 0)
(0.00334858 0 0)
(0.00335577 0 0)
(0.00336316 0 0)
(0.00337354 0 0)
(0.00338271 0 0)
(0.00339085 0 0)
(0.00339838 0 0)
(0.00340592 0 0)
(0.00340878 0 0)
(0.0034094 0 0)
(0.00341063 0 0)
(0.00341049 0 0)
(0.00341096 0 0)
(0.00341365 0 0)
(0.00341576 0 0)
(0.00341896 0 0)
(0.00342393 0 0)
(0.00343118 0 0)
(0.00344112 0 0)
(0.0034561 0 0)
(0.00347583 0 0)
(0.00349428 0 0)
(0.00351531 0 0)
(0.0035434 0 0)
(0.00357905 0 0)
(0.00361977 0 0)
(0.00366777 0 0)
(0.00372502 0 0)
(0.00378655 0 0)
(0.00385468 0 0)
(0.0039301 0 0)
(0.00401451 0 0)
(0.00410903 0 0)
(0.00421203 0 0)
)
;

boundaryField
{
    inlet
    {
        type            fixedValue;
        value           uniform (0 0 0);
    }
    outlet
    {
        type            zeroGradient;
    }
    yzfaces
    {
        type            empty;
    }
}


// ************************************************************************* //
