/*--------------------------------*- C++ -*----------------------------------*\
| =========                 |                                                 |
| \\      /  F ield         | foam-extend: Open Source CFD                    |
|  \\    /   O peration     | Version:     5.0                                |
|   \\  /    A nd           | Web:         http://www.foam-extend.org         |
|    \\/     M anipulation  |                                                 |
\*---------------------------------------------------------------------------*/
FoamFile
{
    version     2.0;
    format      ascii;
    class       surfaceScalarField;
    location    "3";
    object      phi;
}
// * * * * * * * * * * * * * * * * * * * * * * * * * * * * * * * * * * * * * //

dimensions      [0 3 -1 0 0 0 0];

internalField   nonuniform List<scalar> 
99
(
0.000122516
0.000122509
0.000122497
0.000122502
0.000122487
0.000122503
0.000122484
0.000122486
0.000122483
0.000122484
0.000122473
0.000122462
0.000122453
0.000122479
0.000122484
0.000122472
0.000122491
0.000122509
0.00012252
0.000122508
0.000122475
0.000122465
0.000122472
0.00012245
0.000122442
0.000122436
0.000122434
0.000122453
0.000122432
0.000122435
0.000122424
0.000122407
0.000122399
0.000122393
0.000122404
0.000122403
0.000122401
0.000122414
0.000122416
0.000122413
0.000122426
0.000122437
0.000122429
0.000122431
0.000122427
0.000122407
0.000122404
0.000122392
0.00012239
0.000122399
0.000122403
0.000122405
0.000122397
0.000122396
0.000122401
0.000122401
0.000122408
0.000122392
0.00012239
0.000122381
0.000122381
0.000122379
0.000122368
0.000122364
0.000122361
0.000122361
0.000122364
0.000122363
0.000122366
0.000122351
0.000122339
0.000122329
0.000122326
0.000122327
0.00012234
0.00012236
0.000122371
0.000122375
0.000122384
0.000122371
0.000122383
0.000122393
0.000122387
0.000122388
0.00012238
0.000122385
0.000122376
0.000122382
0.000122384
0.000122393
0.000122395
0.000122395
0.000122394
0.000122385
0.000122387
0.000122377
0.000122368
0.000122367
0.000122367
)
;

boundaryField
{
    inlet
    {
        type            calculated;
        value           uniform -0.0001225;
    }
    outlet
    {
        type            calculated;
        value           uniform 0.00012237;
    }
    yzfaces
    {
        type            empty;
    }
}


// ************************************************************************* //
