/*--------------------------------*- C++ -*----------------------------------*\
| =========                 |                                                 |
| \\      /  F ield         | foam-extend: Open Source CFD                    |
|  \\    /   O peration     | Version:     5.0                                |
|   \\  /    A nd           | Web:         http://www.foam-extend.org         |
|    \\/     M anipulation  |                                                 |
\*---------------------------------------------------------------------------*/
FoamFile
{
    version     2.0;
    format      ascii;
    class       volScalarField;
    location    "5";
    object      CO2.gas;
}
// * * * * * * * * * * * * * * * * * * * * * * * * * * * * * * * * * * * * * //

dimensions      [0 0 0 0 0 0 0];

internalField   nonuniform List<scalar> 
100
(
0.156133
0.141143
0.131547
0.124326
0.117065
0.111812
0.108575
0.104919
0.101728
0.0984322
0.0961163
0.0928276
0.090585
0.0886781
0.0863906
0.084612
0.083159
0.081267
0.0803786
0.0789322
0.0776433
0.0764944
0.0755842
0.0741676
0.0725465
0.0711996
0.0699421
0.0688342
0.0675548
0.0663904
0.0654972
0.0645184
0.0633888
0.0625287
0.0613607
0.0602356
0.0591437
0.0579333
0.0565605
0.0550511
0.0531422
0.0508731
0.0480859
0.0439581
0.0368074
0.0227815
0.02437
0.0241648
0.0235074
0.0226879
0.0217369
0.0207649
0.0197191
0.0186317
0.0175181
0.0163511
0.0151622
0.0139519
0.0127561
0.0115915
0.0104592
0.00936206
0.00832003
0.00733097
0.00640163
0.00554517
0.00475214
0.00403178
0.00337325
0.00278537
0.00226895
0.00181437
0.00142472
0.0010939
0.000819669
0.000596328
0.000418927
0.000282785
0.000182028
0.0001106
6.28676e-05
3.30961e-05
1.60344e-05
7.11035e-06
2.89561e-06
1.09181e-06
3.87614e-07
1.324e-07
4.43603e-08
1.48706e-08
5.0666e-09
1.77927e-09
6.46939e-10
2.45024e-10
9.55688e-11
3.8262e-11
1.56116e-11
6.43512e-12
2.66807e-12
9.95132e-13
)
;

boundaryField
{
    inlet
    {
        type            fixedValue;
        value           uniform 0.2;
    }
    outlet
    {
        type            zeroGradient;
    }
    yzfaces
    {
        type            empty;
    }
}


// ************************************************************************* //
