/*--------------------------------*- C++ -*----------------------------------*\
| =========                 |                                                 |
| \\      /  F ield         | foam-extend: Open Source CFD                    |
|  \\    /   O peration     | Version:     5.0                                |
|   \\  /    A nd           | Web:         http://www.foam-extend.org         |
|    \\/     M anipulation  |                                                 |
\*---------------------------------------------------------------------------*/
FoamFile
{
    version     2.0;
    format      ascii;
    class       volScalarField;
    location    "5";
    object      Na.water;
}
// * * * * * * * * * * * * * * * * * * * * * * * * * * * * * * * * * * * * * //

dimensions      [0 0 0 0 0 0 0];

internalField   nonuniform List<scalar> 
100
(
0.0049195
0.0066302
0.00771823
0.00859722
0.00929804
0.00993918
0.0104464
0.0108365
0.0112024
0.0115236
0.0118388
0.0120844
0.012378
0.0126562
0.0129005
0.0131323
0.0133591
0.0134955
0.0136972
0.0138268
0.0139872
0.0141302
0.0142597
0.0143705
0.0145032
0.014669
0.0148244
0.0149868
0.0151324
0.0152899
0.0154179
0.0155253
0.0156586
0.0157667
0.0158844
0.0160184
0.0161467
0.0162926
0.0164586
0.0166278
0.0168139
0.0171101
0.0174239
0.0178908
0.0186957
0.0202006
0.0206716
0.020926
0.0210362
0.0211072
0.0211231
0.0211419
0.0211307
0.021139
0.0211556
0.0211588
0.0211682
0.021162
0.0211592
0.0211518
0.0211546
0.0211502
0.0211435
0.0211418
0.0211479
0.0211605
0.0211606
0.0211855
0.0212006
0.0212109
0.0212602
0.021269
0.0213165
0.0213609
0.0214372
0.0215089
0.0216057
0.021735
0.0218828
0.022027
0.0221712
0.0223222
0.0224902
0.022621
0.0227544
0.0228394
0.0228941
0.022935
0.0229682
0.0229755
0.0229788
0.022994
0.0229895
0.0230147
0.0230021
0.023008
0.023029
0.023021
0.0230137
0.0229912
)
;

boundaryField
{
    inlet
    {
        type            fixedValue;
        value           uniform 0;
    }
    outlet
    {
        type            zeroGradient;
    }
    yzfaces
    {
        type            empty;
    }
}


// ************************************************************************* //
