/*--------------------------------*- C++ -*----------------------------------*\
| =========                 |                                                 |
| \\      /  F ield         | foam-extend: Open Source CFD                    |
|  \\    /   O peration     | Version:     5.0                                |
|   \\  /    A nd           | Web:         http://www.foam-extend.org         |
|    \\/     M anipulation  |                                                 |
\*---------------------------------------------------------------------------*/
FoamFile
{
    version     2.0;
    format      ascii;
    class       volVectorField;
    location    "5";
    object      U.gas;
}
// * * * * * * * * * * * * * * * * * * * * * * * * * * * * * * * * * * * * * //

dimensions      [0 1 -1 0 0 0 0];

internalField   nonuniform List<vector> 
100
(
(0.00636204 0 0)
(0.00699528 0 0)
(0.00747281 0 0)
(0.00789167 0 0)
(0.00824343 0 0)
(0.00862019 0 0)
(0.0089407 0 0)
(0.00920787 0 0)
(0.00947288 0 0)
(0.00973998 0 0)
(0.00993243 0 0)
(0.0101568 0 0)
(0.010366 0 0)
(0.010519 0 0)
(0.01068 0 0)
(0.0108064 0 0)
(0.0109235 0 0)
(0.0110501 0 0)
(0.0111378 0 0)
(0.011247 0 0)
(0.0114003 0 0)
(0.0115317 0 0)
(0.0116143 0 0)
(0.0117154 0 0)
(0.0118185 0 0)
(0.0119243 0 0)
(0.0120426 0 0)
(0.012156 0 0)
(0.0122713 0 0)
(0.0123678 0 0)
(0.012423 0 0)
(0.012494 0 0)
(0.0126151 0 0)
(0.0126667 0 0)
(0.0127242 0 0)
(0.012824 0 0)
(0.0129068 0 0)
(0.0129936 0 0)
(0.01309 0 0)
(0.013167 0 0)
(0.0132859 0 0)
(0.0134322 0 0)
(0.0135815 0 0)
(0.0138193 0 0)
(0.0142056 0 0)
(0.0150742 0 0)
(0.00995637 0 0)
(0.010476 0 0)
(0.0106268 0 0)
(0.010654 0 0)
(0.0106471 0 0)
(0.0106404 0 0)
(0.0106361 0 0)
(0.0106394 0 0)
(0.0106437 0 0)
(0.0106409 0 0)
(0.0106351 0 0)
(0.010631 0 0)
(0.0106375 0 0)
(0.0106348 0 0)
(0.0106254 0 0)
(0.0106154 0 0)
(0.010604 0 0)
(0.0105988 0 0)
(0.0106011 0 0)
(0.010606 0 0)
(0.0106061 0 0)
(0.0105862 0 0)
(0.0105671 0 0)
(0.0105413 0 0)
(0.0104985 0 0)
(0.0104453 0 0)
(0.0103645 0 0)
(0.0102711 0 0)
(0.0101508 0 0)
(0.00998104 0 0)
(0.00977185 0 0)
(0.0095152 0 0)
(0.00918638 0 0)
(0.00879054 0 0)
(0.0083226 0 0)
(0.00780119 0 0)
(0.00724278 0 0)
(0.00667819 0 0)
(0.00615335 0 0)
(0.00570548 0 0)
(0.00535846 0 0)
(0.00510993 0 0)
(0.00493821 0 0)
(0.00482106 0 0)
(0.00474939 0 0)
(0.00470469 0 0)
(0.00467822 0 0)
(0.00466243 0 0)
(0.00465125 0 0)
(0.00464539 0 0)
(0.00464044 0 0)
(0.00463571 0 0)
(0.00463085 0 0)
(0.00462355 0 0)
)
;

boundaryField
{
    inlet
    {
        type            fixedValue;
        value           uniform (0.005 0 0);
    }
    outlet
    {
        type            zeroGradient;
    }
    yzfaces
    {
        type            empty;
    }
}


// ************************************************************************* //
