/*--------------------------------*- C++ -*----------------------------------*\
| =========                 |                                                 |
| \\      /  F ield         | foam-extend: Open Source CFD                    |
|  \\    /   O peration     | Version:     5.0                                |
|   \\  /    A nd           | Web:         http://www.foam-extend.org         |
|    \\/     M anipulation  |                                                 |
\*---------------------------------------------------------------------------*/
FoamFile
{
    version     2.0;
    format      ascii;
    class       volVectorField;
    location    "5";
    object      U.water;
}
// * * * * * * * * * * * * * * * * * * * * * * * * * * * * * * * * * * * * * //

dimensions      [0 1 -1 0 0 0 0];

internalField   nonuniform List<vector> 
100
(
(4.96422e-05 0 0)
(0.000117873 0 0)
(0.000178271 0 0)
(0.000232207 0 0)
(0.000284476 0 0)
(0.000340868 0 0)
(0.00039332 0 0)
(0.000438292 0 0)
(0.000484669 0 0)
(0.000531251 0 0)
(0.000575345 0 0)
(0.000619199 0 0)
(0.000667468 0 0)
(0.000710796 0 0)
(0.000753842 0 0)
(0.000798062 0 0)
(0.00083785 0 0)
(0.000877463 0 0)
(0.000913331 0 0)
(0.00094609 0 0)
(0.000986206 0 0)
(0.0010267 0 0)
(0.0010598 0 0)
(0.00109175 0 0)
(0.00113218 0 0)
(0.00117906 0 0)
(0.00122789 0 0)
(0.00127397 0 0)
(0.00132036 0 0)
(0.00136915 0 0)
(0.00141337 0 0)
(0.0014527 0 0)
(0.00150005 0 0)
(0.00154705 0 0)
(0.00158814 0 0)
(0.00164113 0 0)
(0.00169666 0 0)
(0.00175217 0 0)
(0.00181768 0 0)
(0.00189197 0 0)
(0.00198152 0 0)
(0.00210021 0 0)
(0.00225481 0 0)
(0.0024749 0 0)
(0.00286004 0 0)
(0.00360142 0 0)
(0.00423126 0 0)
(0.00415367 0 0)
(0.0041367 0 0)
(0.00413997 0 0)
(0.00414652 0 0)
(0.00415498 0 0)
(0.004158 0 0)
(0.00416046 0 0)
(0.00416363 0 0)
(0.00416257 0 0)
(0.0041615 0 0)
(0.00416403 0 0)
(0.00417204 0 0)
(0.00417335 0 0)
(0.00416915 0 0)
(0.00416532 0 0)
(0.00416135 0 0)
(0.00416006 0 0)
(0.00416484 0 0)
(0.00417099 0 0)
(0.00417534 0 0)
(0.00418005 0 0)
(0.00418611 0 0)
(0.00419693 0 0)
(0.00420886 0 0)
(0.00422478 0 0)
(0.00424445 0 0)
(0.00427319 0 0)
(0.00431152 0 0)
(0.00435141 0 0)
(0.00439975 0 0)
(0.00446107 0 0)
(0.00452844 0 0)
(0.00459761 0 0)
(0.00467023 0 0)
(0.00474494 0 0)
(0.00481439 0 0)
(0.00487091 0 0)
(0.00491485 0 0)
(0.00494485 0 0)
(0.00496593 0 0)
(0.00498243 0 0)
(0.00499101 0 0)
(0.00499568 0 0)
(0.00499979 0 0)
(0.00500096 0 0)
(0.00500368 0 0)
(0.00500482 0 0)
(0.00500384 0 0)
(0.0050047 0 0)
(0.00500383 0 0)
(0.00500237 0 0)
(0.00499849 0 0)
(0.00499084 0 0)
)
;

boundaryField
{
    inlet
    {
        type            fixedValue;
        value           uniform (0 0 0);
    }
    outlet
    {
        type            zeroGradient;
    }
    yzfaces
    {
        type            empty;
    }
}


// ************************************************************************* //
