/*--------------------------------*- C++ -*----------------------------------*\
| =========                 |                                                 |
| \\      /  F ield         | foam-extend: Open Source CFD                    |
|  \\    /   O peration     | Version:     5.0                                |
|   \\  /    A nd           | Web:         http://www.foam-extend.org         |
|    \\/     M anipulation  |                                                 |
\*---------------------------------------------------------------------------*/
FoamFile
{
    version     2.0;
    format      ascii;
    class       volScalarField;
    location    "8";
    object      Cl.water;
}
// * * * * * * * * * * * * * * * * * * * * * * * * * * * * * * * * * * * * * //

dimensions      [0 0 0 0 0 0 0];

internalField   nonuniform List<scalar> 
100
(
0.00668288
0.00951762
0.0117151
0.0129303
0.0140237
0.0152265
0.01618
0.0168412
0.0168287
0.0171941
0.0177119
0.0183104
0.0188638
0.0193005
0.0197041
0.0200427
0.0205586
0.0209975
0.0214451
0.0218297
0.0220269
0.0223741
0.0227021
0.0230181
0.023163
0.0232717
0.0233489
0.0235419
0.0236409
0.0236687
0.0238755
0.0240296
0.0242872
0.0244477
0.0247341
0.0249583
0.0251336
0.0252935
0.0254593
0.0255351
0.0256931
0.0257984
0.0259624
0.0261548
0.0262447
0.0263225
0.026437
0.02659
0.0267284
0.0268919
0.027015
0.0271286
0.0272602
0.0274162
0.0275298
0.027657
0.027753
0.0278514
0.0279365
0.0280455
0.0281571
0.0282646
0.0283525
0.0284146
0.0285095
0.0286435
0.0287712
0.0288399
0.0289518
0.0290342
0.0291212
0.0292299
0.0292861
0.0293623
0.029497
0.0295566
0.0296693
0.0297734
0.0298024
0.0297894
0.029823
0.0299368
0.0300431
0.0300961
0.0301507
0.0302201
0.0302692
0.0303524
0.0303733
0.0304
0.0304995
0.0305111
0.0305999
0.0307419
0.0307983
0.0308464
0.0308794
0.0309627
0.031062
0.0311194
)
;

boundaryField
{
    inlet
    {
        type            fixedValue;
        value           uniform 0;
    }
    outlet
    {
        type            zeroGradient;
    }
    yzfaces
    {
        type            empty;
    }
}


// ************************************************************************* //
