/*--------------------------------*- C++ -*----------------------------------*\
| =========                 |                                                 |
| \\      /  F ield         | foam-extend: Open Source CFD                    |
|  \\    /   O peration     | Version:     5.0                                |
|   \\  /    A nd           | Web:         http://www.foam-extend.org         |
|    \\/     M anipulation  |                                                 |
\*---------------------------------------------------------------------------*/
FoamFile
{
    version     2.0;
    format      ascii;
    class       volScalarField;
    location    "8";
    object      H2O.water;
}
// * * * * * * * * * * * * * * * * * * * * * * * * * * * * * * * * * * * * * //

dimensions      [0 0 0 0 0 0 0];

internalField   nonuniform List<scalar> 
100
(
0.0205906
0.0263152
0.0288933
0.0313388
0.0353806
0.0396173
0.040427
0.0411736
0.0431332
0.0464616
0.0496356
0.0514357
0.053343
0.0545286
0.0561402
0.0576941
0.0583852
0.0593722
0.0601542
0.061287
0.0613545
0.0624415
0.0630143
0.0643002
0.0645359
0.0644023
0.0645526
0.0648175
0.0655505
0.0660426
0.0666176
0.0674437
0.0680741
0.0688543
0.069437
0.0699026
0.0703175
0.070778
0.0711183
0.0713403
0.0716772
0.072108
0.0724288
0.0725733
0.0730856
0.0735921
0.0737982
0.0742425
0.0746267
0.0748761
0.0752212
0.0754927
0.0757124
0.0760089
0.0762689
0.0765718
0.0767623
0.0771073
0.0771581
0.0775898
0.0779226
0.0783678
0.0786841
0.0788292
0.0789521
0.0791581
0.0794903
0.0796746
0.0797823
0.0799466
0.0801291
0.080319
0.0805113
0.0808075
0.0811139
0.0813587
0.0815015
0.0816398
0.0817794
0.0819958
0.0822438
0.0823769
0.0826273
0.0827199
0.0829132
0.0832134
0.083496
0.0836423
0.0839067
0.0840433
0.0844467
0.0845561
0.0847183
0.0849398
0.0852255
0.0853133
0.0856003
0.0859258
0.0862173
0.0864745
)
;

boundaryField
{
    inlet
    {
        type            fixedValue;
        value           uniform 0;
    }
    outlet
    {
        type            zeroGradient;
    }
    yzfaces
    {
        type            empty;
    }
}


// ************************************************************************* //
