/*--------------------------------*- C++ -*----------------------------------*\
| =========                 |                                                 |
| \\      /  F ield         | foam-extend: Open Source CFD                    |
|  \\    /   O peration     | Version:     5.0                                |
|   \\  /    A nd           | Web:         http://www.foam-extend.org         |
|    \\/     M anipulation  |                                                 |
\*---------------------------------------------------------------------------*/
FoamFile
{
    version     2.0;
    format      ascii;
    class       surfaceScalarField;
    location    "8";
    object      phi;
}
// * * * * * * * * * * * * * * * * * * * * * * * * * * * * * * * * * * * * * //

dimensions      [0 3 -1 0 0 0 0];

internalField   nonuniform List<scalar> 
99
(
1.23076e-06
1.22329e-06
1.22176e-06
1.21572e-06
1.2156e-06
1.22251e-06
1.22392e-06
1.2253e-06
1.21451e-06
1.2074e-06
1.20961e-06
1.21182e-06
1.21059e-06
1.21499e-06
1.21527e-06
1.21651e-06
1.21339e-06
1.21411e-06
1.21254e-06
1.20968e-06
1.20382e-06
1.21562e-06
1.21697e-06
1.2257e-06
1.22141e-06
1.2149e-06
1.21727e-06
1.21844e-06
1.20858e-06
1.20237e-06
1.19297e-06
1.1976e-06
1.1943e-06
1.19923e-06
1.19601e-06
1.19885e-06
1.19882e-06
1.19803e-06
1.19589e-06
1.2e-06
1.19479e-06
1.19883e-06
1.20034e-06
1.19832e-06
1.19488e-06
1.20275e-06
1.20517e-06
1.20761e-06
1.20249e-06
1.19963e-06
1.1989e-06
1.19842e-06
1.1985e-06
1.20035e-06
1.19738e-06
1.1976e-06
1.19584e-06
1.19935e-06
1.19946e-06
1.20284e-06
1.2042e-06
1.20321e-06
1.20355e-06
1.20443e-06
1.20349e-06
1.20207e-06
1.20287e-06
1.2015e-06
1.20374e-06
1.20623e-06
1.20546e-06
1.20418e-06
1.20501e-06
1.20282e-06
1.2028e-06
1.20972e-06
1.20881e-06
1.21121e-06
1.21491e-06
1.21649e-06
1.21399e-06
1.21336e-06
1.20875e-06
1.20821e-06
1.20584e-06
1.20296e-06
1.20314e-06
1.20289e-06
1.20095e-06
1.19853e-06
1.19664e-06
1.19774e-06
1.19586e-06
1.19201e-06
1.19024e-06
1.18823e-06
1.1863e-06
1.18672e-06
1.1893e-06
)
;

boundaryField
{
    inlet
    {
        type            calculated;
        value           uniform -1.225e-06;
    }
    outlet
    {
        type            calculated;
        value           uniform 1.19008e-06;
    }
    yzfaces
    {
        type            empty;
    }
}


// ************************************************************************* //
