/*--------------------------------*- C++ -*----------------------------------*\
| =========                 |                                                 |
| \\      /  F ield         | foam-extend: Open Source CFD                    |
|  \\    /   O peration     | Version:     5.0                                |
|   \\  /    A nd           | Web:         http://www.foam-extend.org         |
|    \\/     M anipulation  |                                                 |
\*---------------------------------------------------------------------------*/
FoamFile
{
    version     2.0;
    format      ascii;
    class       surfaceScalarField;
    location    "8";
    object      phi.water;
}
// * * * * * * * * * * * * * * * * * * * * * * * * * * * * * * * * * * * * * //

dimensions      [0 3 -1 0 0 0 0];

internalField   nonuniform List<scalar> 
99
(
7.62623e-08
1.25846e-07
1.61657e-07
1.94127e-07
2.39353e-07
2.87304e-07
3.22548e-07
3.31468e-07
3.56559e-07
4.02442e-07
4.51968e-07
4.88261e-07
5.28519e-07
5.73017e-07
6.12014e-07
6.62175e-07
6.95155e-07
7.30983e-07
7.5894e-07
7.91666e-07
8.23957e-07
8.69578e-07
9.03139e-07
9.32361e-07
9.43527e-07
9.51627e-07
9.74294e-07
9.8967e-07
9.92234e-07
1.02301e-06
1.04326e-06
1.08775e-06
1.11933e-06
1.16216e-06
1.19479e-06
1.23005e-06
1.25627e-06
1.27892e-06
1.29841e-06
1.32953e-06
1.34761e-06
1.38406e-06
1.41703e-06
1.4367e-06
1.45749e-06
1.49184e-06
1.52544e-06
1.55327e-06
1.57322e-06
1.59887e-06
1.63304e-06
1.65772e-06
1.68935e-06
1.71724e-06
1.73028e-06
1.75932e-06
1.78461e-06
1.81658e-06
1.84402e-06
1.87846e-06
1.90615e-06
1.92751e-06
1.9492e-06
1.9736e-06
2.00206e-06
2.0205e-06
2.0507e-06
2.07821e-06
2.11017e-06
2.14178e-06
2.16433e-06
2.18279e-06
2.21146e-06
2.23445e-06
2.25962e-06
2.30269e-06
2.32127e-06
2.34707e-06
2.37832e-06
2.40355e-06
2.41626e-06
2.44335e-06
2.45516e-06
2.4827e-06
2.49994e-06
2.51646e-06
2.54012e-06
2.56341e-06
2.57974e-06
2.60361e-06
2.62672e-06
2.66058e-06
2.68711e-06
2.70527e-06
2.73016e-06
2.75376e-06
2.78363e-06
2.82165e-06
2.86583e-06
)
;

boundaryField
{
    inlet
    {
        type            fixedValue;
        value           uniform 0;
    }
    outlet
    {
        type            calculated;
        value           uniform 2.91545e-06;
    }
    yzfaces
    {
        type            empty;
    }
}


// ************************************************************************* //
