/*--------------------------------*- C++ -*----------------------------------*\
| =========                 |                                                 |
| \\      /  F ield         | foam-extend: Open Source CFD                    |
|  \\    /   O peration     | Version:     5.0                                |
|   \\  /    A nd           | Web:         http://www.foam-extend.org         |
|    \\/     M anipulation  |                                                 |
\*---------------------------------------------------------------------------*/
FoamFile
{
    version     2.0;
    format      ascii;
    class       volVectorField;
    location    "8";
    object      U.gas;
}
// * * * * * * * * * * * * * * * * * * * * * * * * * * * * * * * * * * * * * //

dimensions      [0 1 -1 0 0 0 0];

internalField   nonuniform List<vector> 
100
(
(0.00604292 0 0)
(0.00649299 0 0)
(0.00677353 0 0)
(0.00698176 0 0)
(0.00720516 0 0)
(0.00747952 0 0)
(0.00765246 0 0)
(0.00771081 0 0)
(0.00780514 0 0)
(0.00798553 0 0)
(0.00822136 0 0)
(0.0084277 0 0)
(0.00863431 0 0)
(0.00880034 0 0)
(0.00893657 0 0)
(0.00907546 0 0)
(0.00921253 0 0)
(0.00936002 0 0)
(0.00948664 0 0)
(0.00960288 0 0)
(0.00970402 0 0)
(0.00987429 0 0)
(0.00996636 0 0)
(0.0101123 0 0)
(0.0101874 0 0)
(0.0102124 0 0)
(0.0102358 0 0)
(0.0102672 0 0)
(0.0102829 0 0)
(0.0103122 0 0)
(0.0103682 0 0)
(0.0104311 0 0)
(0.0104747 0 0)
(0.0105716 0 0)
(0.0106466 0 0)
(0.0106879 0 0)
(0.0107188 0 0)
(0.010779 0 0)
(0.0108309 0 0)
(0.0108711 0 0)
(0.0109174 0 0)
(0.0109638 0 0)
(0.0110418 0 0)
(0.0111056 0 0)
(0.0111783 0 0)
(0.0112247 0 0)
(0.0112263 0 0)
(0.0112345 0 0)
(0.011263 0 0)
(0.0113047 0 0)
(0.0113332 0 0)
(0.0113473 0 0)
(0.0113664 0 0)
(0.0114057 0 0)
(0.011438 0 0)
(0.0114537 0 0)
(0.0114682 0 0)
(0.0114917 0 0)
(0.0114999 0 0)
(0.01153 0 0)
(0.0115575 0 0)
(0.0116025 0 0)
(0.0116339 0 0)
(0.0116466 0 0)
(0.011652 0 0)
(0.0116795 0 0)
(0.0117321 0 0)
(0.0117827 0 0)
(0.0118222 0 0)
(0.0118542 0 0)
(0.0118643 0 0)
(0.0118719 0 0)
(0.0118762 0 0)
(0.0118813 0 0)
(0.0118877 0 0)
(0.0119125 0 0)
(0.0119339 0 0)
(0.0119401 0 0)
(0.0119373 0 0)
(0.011958 0 0)
(0.0120108 0 0)
(0.0120263 0 0)
(0.0120304 0 0)
(0.0120186 0 0)
(0.0120231 0 0)
(0.0120435 0 0)
(0.012065 0 0)
(0.0120633 0 0)
(0.0120787 0 0)
(0.0120677 0 0)
(0.012071 0 0)
(0.012084 0 0)
(0.012067 0 0)
(0.0120715 0 0)
(0.0120951 0 0)
(0.0120708 0 0)
(0.0120471 0 0)
(0.0120428 0 0)
(0.0120492 0 0)
(0.0120298 0 0)
)
;

boundaryField
{
    inlet
    {
        type            fixedValue;
        value           uniform (0.005 0 0);
    }
    outlet
    {
        type            zeroGradient;
    }
    yzfaces
    {
        type            empty;
    }
}


// ************************************************************************* //
