/*--------------------------------*- C++ -*----------------------------------*\
| =========                 |                                                 |
| \\      /  F ield         | foam-extend: Open Source CFD                    |
|  \\    /   O peration     | Version:     5.0                                |
|   \\  /    A nd           | Web:         http://www.foam-extend.org         |
|    \\/     M anipulation  |                                                 |
\*---------------------------------------------------------------------------*/
FoamFile
{
    version     2.0;
    format      ascii;
    class       volVectorField;
    location    "8";
    object      U.gas;
}
// * * * * * * * * * * * * * * * * * * * * * * * * * * * * * * * * * * * * * //

dimensions      [0 1 -1 0 0 0 0];

internalField   nonuniform List<vector> 
100
(
(0.00605905 0 0)
(0.0064898 0 0)
(0.00676059 0 0)
(0.00701313 0 0)
(0.00731026 0 0)
(0.00761582 0 0)
(0.00782984 0 0)
(0.00790786 0 0)
(0.00806199 0 0)
(0.00827068 0 0)
(0.00849488 0 0)
(0.00868451 0 0)
(0.00888008 0 0)
(0.0090792 0 0)
(0.00927125 0 0)
(0.00947515 0 0)
(0.0095966 0 0)
(0.00972219 0 0)
(0.00982775 0 0)
(0.00993297 0 0)
(0.0100236 0 0)
(0.0101661 0 0)
(0.0103234 0 0)
(0.0104257 0 0)
(0.0104881 0 0)
(0.0104829 0 0)
(0.0105335 0 0)
(0.0105894 0 0)
(0.0105964 0 0)
(0.010641 0 0)
(0.0106464 0 0)
(0.010743 0 0)
(0.0108369 0 0)
(0.0109449 0 0)
(0.0110413 0 0)
(0.0111128 0 0)
(0.011181 0 0)
(0.0112302 0 0)
(0.0112644 0 0)
(0.0113378 0 0)
(0.011387 0 0)
(0.0114531 0 0)
(0.0115438 0 0)
(0.0115805 0 0)
(0.0116032 0 0)
(0.0116747 0 0)
(0.0117833 0 0)
(0.0118507 0 0)
(0.0118903 0 0)
(0.0119063 0 0)
(0.0119521 0 0)
(0.0119838 0 0)
(0.012034 0 0)
(0.012077 0 0)
(0.0120972 0 0)
(0.0121362 0 0)
(0.0121646 0 0)
(0.0122124 0 0)
(0.0122675 0 0)
(0.012329 0 0)
(0.0123835 0 0)
(0.0124094 0 0)
(0.0124347 0 0)
(0.0124749 0 0)
(0.0125139 0 0)
(0.0125223 0 0)
(0.0125545 0 0)
(0.0125855 0 0)
(0.012618 0 0)
(0.0126726 0 0)
(0.0126998 0 0)
(0.0127066 0 0)
(0.0127371 0 0)
(0.0127522 0 0)
(0.0127603 0 0)
(0.0128267 0 0)
(0.0128675 0 0)
(0.0128907 0 0)
(0.0129425 0 0)
(0.0129885 0 0)
(0.0129945 0 0)
(0.013008 0 0)
(0.0129831 0 0)
(0.0129818 0 0)
(0.0129714 0 0)
(0.0129543 0 0)
(0.0129548 0 0)
(0.0129676 0 0)
(0.0129673 0 0)
(0.0129656 0 0)
(0.0129511 0 0)
(0.0129649 0 0)
(0.0129696 0 0)
(0.0129458 0 0)
(0.0129247 0 0)
(0.0129125 0 0)
(0.0129086 0 0)
(0.0129099 0 0)
(0.0129372 0 0)
(0.0129734 0 0)
)
;

boundaryField
{
    inlet
    {
        type            fixedValue;
        value           uniform (0.005 0 0);
    }
    outlet
    {
        type            zeroGradient;
    }
    yzfaces
    {
        type            empty;
    }
}


// ************************************************************************* //
