/*--------------------------------*- C++ -*----------------------------------*\
| =========                 |                                                 |
| \\      /  F ield         | foam-extend: Open Source CFD                    |
|  \\    /   O peration     | Version:     5.0                                |
|   \\  /    A nd           | Web:         http://www.foam-extend.org         |
|    \\/     M anipulation  |                                                 |
\*---------------------------------------------------------------------------*/
FoamFile
{
    version     2.0;
    format      ascii;
    class       volVectorField;
    location    "8";
    object      U.water;
}
// * * * * * * * * * * * * * * * * * * * * * * * * * * * * * * * * * * * * * //

dimensions      [0 1 -1 0 0 0 0];

internalField   nonuniform List<vector> 
100
(
(3.62601e-05 0 0)
(8.25698e-05 0 0)
(0.000117764 0 0)
(0.000146289 0 0)
(0.000177174 0 0)
(0.000213967 0 0)
(0.000247212 0 0)
(0.00026857 0 0)
(0.000282426 0 0)
(0.000309972 0 0)
(0.000348076 0 0)
(0.000384028 0 0)
(0.00041492 0 0)
(0.000449338 0 0)
(0.000483918 0 0)
(0.00051909 0 0)
(0.000554079 0 0)
(0.000581879 0 0)
(0.000608645 0 0)
(0.000633432 0 0)
(0.000659484 0 0)
(0.000690732 0 0)
(0.000722452 0 0)
(0.000748523 0 0)
(0.000765651 0 0)
(0.000774332 0 0)
(0.000785797 0 0)
(0.000801796 0 0)
(0.000810821 0 0)
(0.000823048 0 0)
(0.000844745 0 0)
(0.000869819 0 0)
(0.000900971 0 0)
(0.000930844 0 0)
(0.000961545 0 0)
(0.000989226 0 0)
(0.0010146 0 0)
(0.00103468 0 0)
(0.00105217 0 0)
(0.00107249 0 0)
(0.00109319 0 0)
(0.00111493 0 0)
(0.00114268 0 0)
(0.00116503 0 0)
(0.00118145 0 0)
(0.00120358 0 0)
(0.00123076 0 0)
(0.00125659 0 0)
(0.00127674 0 0)
(0.00129544 0 0)
(0.00131892 0 0)
(0.00134348 0 0)
(0.00136581 0 0)
(0.00139021 0 0)
(0.00140802 0 0)
(0.00142457 0 0)
(0.00144653 0 0)
(0.00146956 0 0)
(0.0014938 0 0)
(0.00151861 0 0)
(0.0015441 0 0)
(0.00156449 0 0)
(0.00158227 0 0)
(0.00160141 0 0)
(0.00162269 0 0)
(0.00164232 0 0)
(0.00166184 0 0)
(0.00168496 0 0)
(0.0017091 0 0)
(0.00173484 0 0)
(0.00175746 0 0)
(0.00177483 0 0)
(0.00179376 0 0)
(0.00181479 0 0)
(0.00183425 0 0)
(0.0018611 0 0)
(0.00188675 0 0)
(0.00190509 0 0)
(0.00192802 0 0)
(0.00195126 0 0)
(0.0019679 0 0)
(0.00198367 0 0)
(0.00200028 0 0)
(0.00201557 0 0)
(0.00203419 0 0)
(0.00204826 0 0)
(0.00206428 0 0)
(0.00208315 0 0)
(0.00209986 0 0)
(0.0021162 0 0)
(0.00213547 0 0)
(0.00215827 0 0)
(0.00218302 0 0)
(0.00220157 0 0)
(0.00221923 0 0)
(0.00223932 0 0)
(0.0022608 0 0)
(0.00228802 0 0)
(0.00232115 0 0)
(0.00235691 0 0)
)
;

boundaryField
{
    inlet
    {
        type            fixedValue;
        value           uniform (0 0 0);
    }
    outlet
    {
        type            zeroGradient;
    }
    yzfaces
    {
        type            empty;
    }
}


// ************************************************************************* //
