/*--------------------------------*- C++ -*----------------------------------*\
| =========                 |                                                 |
| \\      /  F ield         | foam-extend: Open Source CFD                    |
|  \\    /   O peration     | Version:     5.0                                |
|   \\  /    A nd           | Web:         http://www.foam-extend.org         |
|    \\/     M anipulation  |                                                 |
\*---------------------------------------------------------------------------*/
FoamFile
{
    version     2.0;
    format      ascii;
    class       volScalarField;
    location    "10";
    object      alpha.gas;
}
// * * * * * * * * * * * * * * * * * * * * * * * * * * * * * * * * * * * * * //

dimensions      [0 0 0 0 0 0 0];

internalField   nonuniform List<scalar> 
100
(
0.171379
0.157839
0.150538
0.146055
0.141432
0.136959
0.133276
0.129531
0.126187
0.123236
0.120704
0.118079
0.115536
0.11319
0.11051
0.10799
0.106
0.10403
0.101977
0.100162
0.0986255
0.0973182
0.0956148
0.0941522
0.0927781
0.0914392
0.0900953
0.0887872
0.0875985
0.0870093
0.0866121
0.0863829
0.0860746
0.0856663
0.0850495
0.0844643
0.0837876
0.0831615
0.0822795
0.0812683
0.0803865
0.0795224
0.0786266
0.0778048
0.0771579
0.0764272
0.0759634
0.0753536
0.0748544
0.0743388
0.07377
0.0730932
0.072442
0.0717191
0.0712256
0.0706203
0.0702493
0.0699064
0.0695579
0.0691649
0.0687655
0.0682659
0.0677729
0.0671885
0.0666371
0.0662679
0.0659029
0.0654905
0.0651774
0.0648646
0.0645004
0.0641063
0.0636624
0.0632033
0.0627434
0.0623456
0.0619657
0.0616884
0.0613774
0.0610723
0.0606742
0.0603153
0.0599943
0.0596442
0.0592319
0.0589006
0.0586034
0.0582942
0.0579763
0.057667
0.0573546
0.0570486
0.0566732
0.0563323
0.0560564
0.0557986
0.0555031
0.0552524
0.0550041
0.0547194
)
;

boundaryField
{
    inlet
    {
        type            fixedValue;
        value           uniform 0.2;
    }
    outlet
    {
        type            zeroGradient;
    }
    yzfaces
    {
        type            empty;
    }
}


// ************************************************************************* //
