/*--------------------------------*- C++ -*----------------------------------*\
| =========                 |                                                 |
| \\      /  F ield         | foam-extend: Open Source CFD                    |
|  \\    /   O peration     | Version:     5.0                                |
|   \\  /    A nd           | Web:         http://www.foam-extend.org         |
|    \\/     M anipulation  |                                                 |
\*---------------------------------------------------------------------------*/
FoamFile
{
    version     2.0;
    format      ascii;
    class       volScalarField;
    location    "10";
    object      CO2.gas;
}
// * * * * * * * * * * * * * * * * * * * * * * * * * * * * * * * * * * * * * //

dimensions      [0 0 0 0 0 0 0];

internalField   nonuniform List<scalar> 
100
(
0.171045
0.157531
0.150244
0.14577
0.141157
0.136692
0.133017
0.129279
0.125941
0.122996
0.120469
0.117849
0.115311
0.11297
0.110294
0.10778
0.105793
0.103828
0.101778
0.099967
0.0984335
0.0971287
0.0954286
0.0939689
0.0925974
0.0912611
0.0899198
0.0886143
0.0874279
0.0868399
0.0864434
0.0862147
0.0859069
0.0854994
0.0848839
0.0842998
0.0836245
0.0829995
0.0821192
0.0811101
0.08023
0.0793676
0.0784735
0.0776533
0.0770076
0.0762783
0.0758155
0.0752069
0.0747086
0.074194
0.0736263
0.0729509
0.0723009
0.0715794
0.0710869
0.0704827
0.0701125
0.0697702
0.0694224
0.0690302
0.0686315
0.0681329
0.067641
0.0670576
0.0665073
0.0661388
0.0657745
0.065363
0.0650505
0.0647382
0.0643748
0.0639814
0.0635384
0.0630802
0.0626212
0.0622242
0.061845
0.0615683
0.0612579
0.0609533
0.0605561
0.0601978
0.0598775
0.059528
0.0591165
0.0587859
0.0584893
0.0581807
0.0578634
0.0575547
0.0572429
0.0569375
0.0565628
0.0562226
0.0559472
0.0556899
0.055395
0.0551448
0.054897
0.0546128
)
;

boundaryField
{
    inlet
    {
        type            fixedValue;
        value           uniform 0.2;
    }
    outlet
    {
        type            zeroGradient;
    }
    yzfaces
    {
        type            empty;
    }
}


// ************************************************************************* //
