/*--------------------------------*- C++ -*----------------------------------*\
| =========                 |                                                 |
| \\      /  F ield         | foam-extend: Open Source CFD                    |
|  \\    /   O peration     | Version:     5.0                                |
|   \\  /    A nd           | Web:         http://www.foam-extend.org         |
|    \\/     M anipulation  |                                                 |
\*---------------------------------------------------------------------------*/
FoamFile
{
    version     2.0;
    format      ascii;
    class       volScalarField;
    location    "10";
    object      CO2.water;
}
// * * * * * * * * * * * * * * * * * * * * * * * * * * * * * * * * * * * * * //

dimensions      [0 0 0 0 0 0 0];

internalField   nonuniform List<scalar> 
100
(
0.000751722
0.00110735
0.00129911
0.00141684
0.00153826
0.00165575
0.00175247
0.00185083
0.00193867
0.00201617
0.00208266
0.00215162
0.00221841
0.00228003
0.00235042
0.00241659
0.00246888
0.0025206
0.00257454
0.0026222
0.00266255
0.00269689
0.00274163
0.00278004
0.00281613
0.0028513
0.0028866
0.00292095
0.00295217
0.00296765
0.00297808
0.0029841
0.0029922
0.00300292
0.00301912
0.00303449
0.00305226
0.00306871
0.00309188
0.00311843
0.00314159
0.00316429
0.00318782
0.0032094
0.00322639
0.00324558
0.00325776
0.00327378
0.00328689
0.00330043
0.00331537
0.00333315
0.00335025
0.00336924
0.0033822
0.0033981
0.00340784
0.00341685
0.003426
0.00343632
0.00344681
0.00345994
0.00347288
0.00348823
0.00350272
0.00351241
0.003522
0.00353283
0.00354105
0.00354927
0.00355883
0.00356919
0.00358085
0.0035929
0.00360498
0.00361543
0.00362541
0.00363269
0.00364086
0.00364887
0.00365933
0.00366876
0.00367719
0.00368638
0.00369721
0.00370591
0.00371372
0.00372184
0.00373019
0.00373831
0.00374652
0.00375455
0.00376441
0.00377337
0.00378061
0.00378738
0.00379514
0.00380173
0.00380825
0.00381573
)
;

boundaryField
{
    inlet
    {
        type            fixedValue;
        value           uniform 0;
    }
    outlet
    {
        type            zeroGradient;
    }
    yzfaces
    {
        type            empty;
    }
}


// ************************************************************************* //
