/*--------------------------------*- C++ -*----------------------------------*\
| =========                 |                                                 |
| \\      /  F ield         | foam-extend: Open Source CFD                    |
|  \\    /   O peration     | Version:     5.0                                |
|   \\  /    A nd           | Web:         http://www.foam-extend.org         |
|    \\/     M anipulation  |                                                 |
\*---------------------------------------------------------------------------*/
FoamFile
{
    version     2.0;
    format      ascii;
    class       volScalarField;
    location    "10";
    object      H2O.gas;
}
// * * * * * * * * * * * * * * * * * * * * * * * * * * * * * * * * * * * * * //

dimensions      [0 0 0 0 0 0 0];

internalField   nonuniform List<scalar> 
100
(
0.000333755
0.000307386
0.000293167
0.000284438
0.000275435
0.000266723
0.000259551
0.000252258
0.000245745
0.000239999
0.000235068
0.000229955
0.000225003
0.000220434
0.000215214
0.000210308
0.000206431
0.000202596
0.000198596
0.000195063
0.00019207
0.000189524
0.000186207
0.000183359
0.000180683
0.000178075
0.000175458
0.000172911
0.000170595
0.000169448
0.000168674
0.000168228
0.000167628
0.000166833
0.000165631
0.000164492
0.000163174
0.000161955
0.000160237
0.000158268
0.00015655
0.000154868
0.000153123
0.000151523
0.000150263
0.00014884
0.000147937
0.000146749
0.000145777
0.000144773
0.000143665
0.000142347
0.000141079
0.000139671
0.00013871
0.000137531
0.000136808
0.000136141
0.000135462
0.000134697
0.000133919
0.000132946
0.000131986
0.000130848
0.000129774
0.000129055
0.000128344
0.000127541
0.000126931
0.000126322
0.000125613
0.000124845
0.000123981
0.000123087
0.000122191
0.000121416
0.000120676
0.000120136
0.000119531
0.000118936
0.000118161
0.000117462
0.000116837
0.000116155
0.000115352
0.000114707
0.000114128
0.000113526
0.000112907
0.000112305
0.000111696
0.0001111
0.000110369
0.000109706
0.000109168
0.000108666
0.000108091
0.000107602
0.000107119
0.000106564
)
;

boundaryField
{
    inlet
    {
        type            fixedValue;
        value           uniform 0;
    }
    outlet
    {
        type            zeroGradient;
    }
    yzfaces
    {
        type            empty;
    }
}


// ************************************************************************* //
