/*--------------------------------*- C++ -*----------------------------------*\
| =========                 |                                                 |
| \\      /  F ield         | foam-extend: Open Source CFD                    |
|  \\    /   O peration     | Version:     5.0                                |
|   \\  /    A nd           | Web:         http://www.foam-extend.org         |
|    \\/     M anipulation  |                                                 |
\*---------------------------------------------------------------------------*/
FoamFile
{
    version     2.0;
    format      ascii;
    class       surfaceScalarField;
    location    "10";
    object      phi;
}
// * * * * * * * * * * * * * * * * * * * * * * * * * * * * * * * * * * * * * //

dimensions      [0 3 -1 0 0 0 0];

internalField   nonuniform List<scalar> 
99
(
1.22572e-06
1.23071e-06
1.23258e-06
1.22666e-06
1.21593e-06
1.21547e-06
1.21702e-06
1.21894e-06
1.22083e-06
1.21578e-06
1.20705e-06
1.21049e-06
1.21285e-06
1.20912e-06
1.21588e-06
1.21272e-06
1.21156e-06
1.21394e-06
1.21756e-06
1.22241e-06
1.21892e-06
1.21371e-06
1.21133e-06
1.21094e-06
1.21255e-06
1.20649e-06
1.21177e-06
1.20596e-06
1.21008e-06
1.20853e-06
1.20338e-06
1.20641e-06
1.20314e-06
1.19815e-06
1.20231e-06
1.20148e-06
1.20318e-06
1.2019e-06
1.19907e-06
1.20475e-06
1.20334e-06
1.20099e-06
1.20455e-06
1.20672e-06
1.20535e-06
1.2066e-06
1.20776e-06
1.20415e-06
1.20362e-06
1.20562e-06
1.20713e-06
1.20905e-06
1.20891e-06
1.20987e-06
1.2138e-06
1.21589e-06
1.21736e-06
1.21638e-06
1.21403e-06
1.21482e-06
1.21381e-06
1.21143e-06
1.21217e-06
1.21078e-06
1.21167e-06
1.21681e-06
1.21337e-06
1.21343e-06
1.21305e-06
1.21214e-06
1.20895e-06
1.21002e-06
1.20747e-06
1.20817e-06
1.20824e-06
1.20793e-06
1.20568e-06
1.205e-06
1.20247e-06
1.19872e-06
1.20053e-06
1.20134e-06
1.20466e-06
1.20175e-06
1.20147e-06
1.20497e-06
1.20327e-06
1.20164e-06
1.20219e-06
1.20179e-06
1.20287e-06
1.19973e-06
1.20046e-06
1.20054e-06
1.20126e-06
1.20081e-06
1.20189e-06
1.20336e-06
1.20313e-06
)
;

boundaryField
{
    inlet
    {
        type            calculated;
        value           uniform -1.225e-06;
    }
    outlet
    {
        type            calculated;
        value           uniform 1.20138e-06;
    }
    yzfaces
    {
        type            empty;
    }
}


// ************************************************************************* //
