/*--------------------------------*- C++ -*----------------------------------*\
| =========                 |                                                 |
| \\      /  F ield         | foam-extend: Open Source CFD                    |
|  \\    /   O peration     | Version:     5.0                                |
|   \\  /    A nd           | Web:         http://www.foam-extend.org         |
|    \\/     M anipulation  |                                                 |
\*---------------------------------------------------------------------------*/
FoamFile
{
    version     2.0;
    format      ascii;
    class       surfaceScalarField;
    location    "10";
    object      phi.water;
}
// * * * * * * * * * * * * * * * * * * * * * * * * * * * * * * * * * * * * * //

dimensions      [0 3 -1 0 0 0 0];

internalField   nonuniform List<scalar> 
99
(
5.47003e-08
1.08689e-07
1.45031e-07
1.67363e-07
1.93201e-07
2.23028e-07
2.49233e-07
2.80098e-07
3.08925e-07
3.36282e-07
3.58844e-07
3.87404e-07
4.17354e-07
4.43634e-07
4.81019e-07
5.16765e-07
5.46585e-07
5.78304e-07
6.12844e-07
6.48855e-07
6.75742e-07
6.97207e-07
7.3105e-07
7.6292e-07
7.93367e-07
8.1928e-07
8.53272e-07
8.84341e-07
9.1753e-07
9.33069e-07
9.40664e-07
9.47552e-07
9.53862e-07
9.61451e-07
9.80554e-07
9.95635e-07
1.01777e-06
1.03298e-06
1.05685e-06
1.09352e-06
1.11948e-06
1.14623e-06
1.18101e-06
1.21047e-06
1.23257e-06
1.26128e-06
1.27714e-06
1.29822e-06
1.31615e-06
1.33796e-06
1.36191e-06
1.38887e-06
1.41565e-06
1.44987e-06
1.4747e-06
1.50264e-06
1.52237e-06
1.53649e-06
1.54664e-06
1.56531e-06
1.58268e-06
1.60395e-06
1.62722e-06
1.65323e-06
1.68314e-06
1.70697e-06
1.72086e-06
1.74185e-06
1.75879e-06
1.77125e-06
1.78553e-06
1.80689e-06
1.82812e-06
1.8547e-06
1.87845e-06
1.90096e-06
1.91787e-06
1.9315e-06
1.946e-06
1.95714e-06
1.98346e-06
2.00693e-06
2.03071e-06
2.0459e-06
2.07236e-06
2.09857e-06
2.11233e-06
2.12891e-06
2.14978e-06
2.16923e-06
2.18953e-06
2.20384e-06
2.22994e-06
2.25242e-06
2.2732e-06
2.28859e-06
2.31064e-06
2.33055e-06
2.34657e-06
)
;

boundaryField
{
    inlet
    {
        type            fixedValue;
        value           uniform 0;
    }
    outlet
    {
        type            calculated;
        value           uniform 2.36607e-06;
    }
    yzfaces
    {
        type            empty;
    }
}


// ************************************************************************* //
