/*--------------------------------*- C++ -*----------------------------------*\
| =========                 |                                                 |
| \\      /  F ield         | foam-extend: Open Source CFD                    |
|  \\    /   O peration     | Version:     5.0                                |
|   \\  /    A nd           | Web:         http://www.foam-extend.org         |
|    \\/     M anipulation  |                                                 |
\*---------------------------------------------------------------------------*/
FoamFile
{
    version     2.0;
    format      ascii;
    class       volVectorField;
    location    "10";
    object      U.gas;
}
// * * * * * * * * * * * * * * * * * * * * * * * * * * * * * * * * * * * * * //

dimensions      [0 1 -1 0 0 0 0];

internalField   nonuniform List<vector> 
100
(
(0.00583212 0 0)
(0.00633433 0 0)
(0.00664506 0 0)
(0.00682529 0 0)
(0.00698808 0 0)
(0.00716792 0 0)
(0.00735294 0 0)
(0.00755837 0 0)
(0.00775112 0 0)
(0.00790623 0 0)
(0.00800621 0 0)
(0.00814532 0 0)
(0.00832107 0 0)
(0.00846377 0 0)
(0.00865108 0 0)
(0.00883263 0 0)
(0.00895005 0 0)
(0.0090929 0 0)
(0.00926515 0 0)
(0.00942993 0 0)
(0.00954777 0 0)
(0.00961036 0 0)
(0.00971558 0 0)
(0.00981532 0 0)
(0.00992763 0 0)
(0.0100162 0 0)
(0.0101224 0 0)
(0.0102262 0 0)
(0.010315 0 0)
(0.0103651 0 0)
(0.0103652 0 0)
(0.0103723 0 0)
(0.0103983 0 0)
(0.010397 0 0)
(0.0104489 0 0)
(0.0105129 0 0)
(0.0105746 0 0)
(0.0106275 0 0)
(0.0106897 0 0)
(0.0107913 0 0)
(0.0108833 0 0)
(0.0109396 0 0)
(0.0110217 0 0)
(0.0111172 0 0)
(0.0111721 0 0)
(0.0112364 0 0)
(0.0112804 0 0)
(0.0113259 0 0)
(0.0113449 0 0)
(0.0113969 0 0)
(0.0114638 0 0)
(0.0115432 0 0)
(0.0116078 0 0)
(0.0116748 0 0)
(0.011731 0 0)
(0.0118181 0 0)
(0.0118574 0 0)
(0.0118861 0 0)
(0.0119012 0 0)
(0.0119304 0 0)
(0.0119625 0 0)
(0.0119906 0 0)
(0.0120226 0 0)
(0.0120728 0 0)
(0.0121139 0 0)
(0.0121657 0 0)
(0.0122042 0 0)
(0.0122228 0 0)
(0.01224 0 0)
(0.0122581 0 0)
(0.0122702 0 0)
(0.0122925 0 0)
(0.0123216 0 0)
(0.0123465 0 0)
(0.0123865 0 0)
(0.012412 0 0)
(0.0124264 0 0)
(0.0124267 0 0)
(0.012434 0 0)
(0.0124221 0 0)
(0.0124469 0 0)
(0.0124826 0 0)
(0.0125226 0 0)
(0.0125514 0 0)
(0.0125666 0 0)
(0.0125983 0 0)
(0.0126256 0 0)
(0.01263 0 0)
(0.0126454 0 0)
(0.0126646 0 0)
(0.0126878 0 0)
(0.0126951 0 0)
(0.0127097 0 0)
(0.0127314 0 0)
(0.012745 0 0)
(0.0127591 0 0)
(0.0127835 0 0)
(0.0128063 0 0)
(0.0128249 0 0)
(0.0128311 0 0)
)
;

boundaryField
{
    inlet
    {
        type            fixedValue;
        value           uniform (0.005 0 0);
    }
    outlet
    {
        type            zeroGradient;
    }
    yzfaces
    {
        type            empty;
    }
}


// ************************************************************************* //
