/*--------------------------------*- C++ -*----------------------------------*\
| =========                 |                                                 |
| \\      /  F ield         | foam-extend: Open Source CFD                    |
|  \\    /   O peration     | Version:     5.0                                |
|   \\  /    A nd           | Web:         http://www.foam-extend.org         |
|    \\/     M anipulation  |                                                 |
\*---------------------------------------------------------------------------*/
FoamFile
{
    version     2.0;
    format      ascii;
    class       volVectorField;
    location    "10";
    object      U.water;
}
// * * * * * * * * * * * * * * * * * * * * * * * * * * * * * * * * * * * * * //

dimensions      [0 1 -1 0 0 0 0];

internalField   nonuniform List<vector> 
100
(
(2.76e-05 0 0)
(6.69111e-05 0 0)
(0.000102976 0 0)
(0.000128005 0 0)
(0.000147465 0 0)
(0.000169716 0 0)
(0.000193073 0 0)
(0.000216056 0 0)
(0.000240302 0 0)
(0.000263153 0 0)
(0.000284025 0 0)
(0.000304729 0 0)
(0.000328421 0 0)
(0.000351861 0 0)
(0.000377306 0 0)
(0.000406753 0 0)
(0.00043405 0 0)
(0.000459138 0 0)
(0.000485808 0 0)
(0.000514692 0 0)
(0.00054065 0 0)
(0.000561402 0 0)
(0.000583006 0 0)
(0.000609815 0 0)
(0.000635274 0 0)
(0.000658517 0 0)
(0.000682997 0 0)
(0.000709181 0 0)
(0.000734517 0 0)
(0.00075513 0 0)
(0.000764606 0 0)
(0.00077097 0 0)
(0.000776504 0 0)
(0.000782336 0 0)
(0.000792548 0 0)
(0.00080648 0 0)
(0.000821595 0 0)
(0.000837634 0 0)
(0.00085325 0 0)
(0.000877238 0 0)
(0.000903115 0 0)
(0.000924803 0 0)
(0.00094958 0 0)
(0.000975662 0 0)
(0.000997243 0 0)
(0.00101725 0 0)
(0.00103642 0 0)
(0.00105103 0 0)
(0.00106713 0 0)
(0.00108329 0 0)
(0.00110202 0 0)
(0.00112262 0 0)
(0.00114485 0 0)
(0.00116892 0 0)
(0.00119361 0 0)
(0.00121434 0 0)
(0.00123458 0 0)
(0.00124871 0 0)
(0.00125866 0 0)
(0.0012703 0 0)
(0.00128528 0 0)
(0.00130074 0 0)
(0.00131907 0 0)
(0.00133879 0 0)
(0.0013611 0 0)
(0.00138354 0 0)
(0.00139913 0 0)
(0.00141291 0 0)
(0.00142876 0 0)
(0.00144118 0 0)
(0.00145213 0 0)
(0.00146666 0 0)
(0.00148388 0 0)
(0.0015032 0 0)
(0.00152355 0 0)
(0.0015427 0 0)
(0.00155858 0 0)
(0.00157155 0 0)
(0.00158323 0 0)
(0.00159389 0 0)
(0.00160831 0 0)
(0.0016284 0 0)
(0.00164817 0 0)
(0.00166429 0 0)
(0.00168053 0 0)
(0.00170216 0 0)
(0.00171894 0 0)
(0.00173134 0 0)
(0.00174633 0 0)
(0.00176268 0 0)
(0.00177916 0 0)
(0.00179372 0 0)
(0.00180968 0 0)
(0.00182931 0 0)
(0.00184716 0 0)
(0.00186194 0 0)
(0.00187665 0 0)
(0.00189403 0 0)
(0.00190916 0 0)
(0.00192262 0 0)
)
;

boundaryField
{
    inlet
    {
        type            fixedValue;
        value           uniform (0 0 0);
    }
    outlet
    {
        type            zeroGradient;
    }
    yzfaces
    {
        type            empty;
    }
}


// ************************************************************************* //
