/*--------------------------------*- C++ -*----------------------------------*\
| =========                 |                                                 |
| \\      /  F ield         | foam-extend: Open Source CFD                    |
|  \\    /   O peration     | Version:     5.0                                |
|   \\  /    A nd           | Web:         http://www.foam-extend.org         |
|    \\/     M anipulation  |                                                 |
\*---------------------------------------------------------------------------*/
FoamFile
{
    version     2.0;
    format      ascii;
    class       volScalarField;
    location    "2";
    object      alpha.gas;
}
// * * * * * * * * * * * * * * * * * * * * * * * * * * * * * * * * * * * * * //

dimensions      [0 0 0 0 0 0 0];

internalField   nonuniform List<scalar> 
100
(
0.134359
0.117186
0.106763
0.0986293
0.0923471
0.0871888
0.0832866
0.0794257
0.0764333
0.0734271
0.0707055
0.0683275
0.0662081
0.064048
0.0620515
0.0601608
0.0583665
0.0566282
0.0551124
0.0535145
0.051931
0.0504167
0.0489007
0.0473364
0.0458619
0.0443393
0.0428409
0.041306
0.0397384
0.0381351
0.0364935
0.0347592
0.0329753
0.0310922
0.0290947
0.0269628
0.024724
0.0224093
0.0200612
0.0177881
0.0157128
0.0139521
0.0125809
0.0116036
0.0109572
0.0105553
0.0103142
0.0101758
0.0100971
0.0100534
0.0100289
0.0100171
0.0100096
0.0100076
0.0100047
0.0100045
0.0100038
0.0100038
0.0100044
0.0100026
0.0100021
0.0100028
0.00999902
0.00999895
0.00999767
0.00999877
0.00999692
0.00999644
0.00999578
0.00999605
0.00999625
0.00999641
0.00999803
0.00999798
0.00999877
0.0100011
0.0100021
0.0100002
0.00999952
0.00999919
0.0100007
0.00999903
0.00999669
0.00999793
0.0099975
0.00999847
0.0100013
0.00999855
0.00999956
0.00999829
0.00999811
0.00999973
0.00999881
0.0100017
0.0100022
0.0100023
0.0100045
0.0100016
0.0100025
0.00999618
)
;

boundaryField
{
    inlet
    {
        type            fixedValue;
        value           uniform 0.2;
    }
    outlet
    {
        type            zeroGradient;
    }
    yzfaces
    {
        type            empty;
    }
}


// ************************************************************************* //
