/*--------------------------------*- C++ -*----------------------------------*\
| =========                 |                                                 |
| \\      /  F ield         | foam-extend: Open Source CFD                    |
|  \\    /   O peration     | Version:     5.0                                |
|   \\  /    A nd           | Web:         http://www.foam-extend.org         |
|    \\/     M anipulation  |                                                 |
\*---------------------------------------------------------------------------*/
FoamFile
{
    version     2.0;
    format      ascii;
    class       volScalarField;
    location    "2";
    object      alpha.gas;
}
// * * * * * * * * * * * * * * * * * * * * * * * * * * * * * * * * * * * * * //

dimensions      [0 0 0 0 0 0 0];

internalField   nonuniform List<scalar> 
100
(
0.134196
0.117121
0.106529
0.0983522
0.0925967
0.0875464
0.0830005
0.0792089
0.0758971
0.0729939
0.0706628
0.0681326
0.0659659
0.0638023
0.0618909
0.060166
0.0583547
0.0566256
0.0550281
0.0534331
0.0518854
0.0503514
0.0488814
0.0474044
0.0458585
0.0443666
0.04286
0.0413651
0.0397929
0.0382056
0.0365676
0.03483
0.0330394
0.031142
0.0291425
0.027014
0.0247971
0.0224811
0.0201299
0.0178632
0.0157908
0.0140096
0.0126276
0.0116314
0.0109731
0.0105649
0.0103222
0.0101804
0.0100999
0.0100556
0.0100292
0.0100159
0.0100087
0.0100054
0.0100059
0.0100065
0.0100043
0.0100044
0.0100048
0.0100033
0.0100017
0.0100005
0.00999888
0.00999977
0.00999891
0.00999953
0.0100004
0.00999994
0.0100015
0.0100008
0.0100005
0.00999938
0.01
0.0100004
0.0100022
0.0100046
0.0100039
0.0100039
0.0100024
0.0100008
0.0099996
0.00999816
0.00999649
0.00999455
0.00999568
0.00999661
0.00999733
0.00999747
0.00999813
0.00999835
0.00999782
0.00999798
0.00999953
0.0100005
0.01
0.0100009
0.0100025
0.0100027
0.0100041
0.0100101
)
;

boundaryField
{
    inlet
    {
        type            fixedValue;
        value           uniform 0.2;
    }
    outlet
    {
        type            zeroGradient;
    }
    yzfaces
    {
        type            empty;
    }
}


// ************************************************************************* //
