/*--------------------------------*- C++ -*----------------------------------*\
| =========                 |                                                 |
| \\      /  F ield         | foam-extend: Open Source CFD                    |
|  \\    /   O peration     | Version:     5.0                                |
|   \\  /    A nd           | Web:         http://www.foam-extend.org         |
|    \\/     M anipulation  |                                                 |
\*---------------------------------------------------------------------------*/
FoamFile
{
    version     2.0;
    format      ascii;
    class       volScalarField;
    location    "2";
    object      Cl.water;
}
// * * * * * * * * * * * * * * * * * * * * * * * * * * * * * * * * * * * * * //

dimensions      [0 0 0 0 0 0 0];

internalField   nonuniform List<scalar> 
100
(
0.0133763
0.0169319
0.0191277
0.0206996
0.0219738
0.0228495
0.0238892
0.0245593
0.0253411
0.0258628
0.0263295
0.0268805
0.0274396
0.0277803
0.0281529
0.0285574
0.0289263
0.029314
0.029715
0.0300108
0.0302745
0.0305601
0.0308881
0.0311673
0.0314949
0.0317613
0.0321079
0.032437
0.0327394
0.0340288
0.0343966
0.0347552
0.035171
0.0355748
0.0359709
0.0364285
0.0369014
0.0373451
0.037846
0.0383488
0.0387863
0.0391291
0.0394171
0.0396441
0.0397961
0.0398862
0.0399598
0.0399374
0.0399505
0.0400016
0.0399992
0.0399666
0.0400028
0.039977
0.0399712
0.0400025
0.0399973
0.0400163
0.0400069
0.0399959
0.039987
0.0400281
0.0400529
0.0400363
0.0400384
0.0400238
0.040007
0.0400322
0.0399858
0.0399986
0.0400174
0.0400039
0.0399986
0.0399667
0.0399982
0.0399902
0.0400024
0.0399897
0.0400174
0.0400462
0.0400094
0.0400317
0.0400126
0.0399795
0.0400221
0.0399944
0.0399873
0.0399899
0.0399674
0.0400247
0.0399981
0.039993
0.0399935
0.0399859
0.0400147
0.0400085
0.039997
0.0400239
0.0400113
0.0399983
)
;

boundaryField
{
    inlet
    {
        type            fixedValue;
        value           uniform 0;
    }
    outlet
    {
        type            zeroGradient;
    }
    yzfaces
    {
        type            empty;
    }
}


// ************************************************************************* //
