/*--------------------------------*- C++ -*----------------------------------*\
| =========                 |                                                 |
| \\      /  F ield         | foam-extend: Open Source CFD                    |
|  \\    /   O peration     | Version:     5.0                                |
|   \\  /    A nd           | Web:         http://www.foam-extend.org         |
|    \\/     M anipulation  |                                                 |
\*---------------------------------------------------------------------------*/
FoamFile
{
    version     2.0;
    format      ascii;
    class       volScalarField;
    location    "2";
    object      H2O.gas;
}
// * * * * * * * * * * * * * * * * * * * * * * * * * * * * * * * * * * * * * //

dimensions      [0 0 0 0 0 0 0];

internalField   nonuniform List<scalar> 
100
(
0.00026166
0.000228216
0.000207918
0.000192078
0.000179843
0.000169798
0.000162198
0.000154679
0.000148852
0.000142997
0.000137697
0.000133066
0.000128938
0.000124732
0.000120843
0.000117161
0.000113667
0.000110282
0.00010733
0.000104218
0.000101134
9.8185e-05
9.52327e-05
9.21863e-05
8.93148e-05
8.63496e-05
8.34313e-05
8.04422e-05
7.73893e-05
0.00734502
0.0104865
0.0132223
0.0155464
0.0173593
0.0186051
0.0192861
0.0193584
0.0188509
0.0178739
0.0165581
0.0150817
0.0136524
0.0124541
0.0115558
0.0109418
0.0105514
0.0103174
0.0101687
0.0100894
0.0100574
0.0100323
0.0100121
0.0100113
0.0100033
0.00999831
0.0100044
0.0100021
0.010008
0.0100065
0.0100032
0.0100007
0.0100072
0.0100061
0.0100029
0.0100001
0.0100001
0.00999949
0.0100049
0.00999574
0.00999549
0.0099989
0.00999532
0.00999708
0.00999025
0.00999727
0.00999781
0.0100012
0.00999768
0.0100028
0.0100094
0.0100026
0.0100083
0.00999864
0.00998924
0.0100029
0.00999427
0.00999487
0.00999346
0.00999236
0.0100045
0.00999736
0.00999502
0.00999605
0.00999897
0.0100044
0.0100019
0.0100014
0.0100069
0.0100048
0.0100008
)
;

boundaryField
{
    inlet
    {
        type            fixedValue;
        value           uniform 0;
    }
    outlet
    {
        type            zeroGradient;
    }
    yzfaces
    {
        type            empty;
    }
}


// ************************************************************************* //
