/*--------------------------------*- C++ -*----------------------------------*\
| =========                 |                                                 |
| \\      /  F ield         | foam-extend: Open Source CFD                    |
|  \\    /   O peration     | Version:     5.0                                |
|   \\  /    A nd           | Web:         http://www.foam-extend.org         |
|    \\/     M anipulation  |                                                 |
\*---------------------------------------------------------------------------*/
FoamFile
{
    version     2.0;
    format      ascii;
    class       volScalarField;
    location    "2";
    object      Na.water;
}
// * * * * * * * * * * * * * * * * * * * * * * * * * * * * * * * * * * * * * //

dimensions      [0 0 0 0 0 0 0];

internalField   nonuniform List<scalar> 
100
(
0.013373
0.0169323
0.0191419
0.0207122
0.0219859
0.0228586
0.0239111
0.0245683
0.0253458
0.0258782
0.0263452
0.0268868
0.0274477
0.0277811
0.0281594
0.0285376
0.0289216
0.0293263
0.0297253
0.0300226
0.0302666
0.0305546
0.0308767
0.0311714
0.0315166
0.0317857
0.0321242
0.0324464
0.032755
0.0340391
0.0343997
0.0347563
0.0351653
0.0355828
0.0359727
0.0364527
0.0369129
0.0373682
0.0378634
0.0383591
0.0388048
0.0391469
0.0394392
0.0396597
0.0398172
0.0399032
0.0399595
0.0399468
0.0399592
0.0400039
0.0400147
0.0399871
0.0400118
0.0399896
0.0399764
0.0399847
0.0399666
0.039984
0.039986
0.0399752
0.0399676
0.0399982
0.0400085
0.040003
0.0399946
0.0400009
0.0400181
0.0400381
0.0399966
0.0399976
0.0400145
0.0399912
0.0399995
0.0399738
0.040012
0.0400026
0.0400186
0.0400029
0.0400296
0.040056
0.0400251
0.0400563
0.0400167
0.0399775
0.0400409
0.0400114
0.039998
0.0399931
0.0399845
0.0400467
0.0400153
0.0400016
0.0400066
0.0400081
0.0400318
0.040031
0.0400193
0.0400461
0.0400263
0.0400191
)
;

boundaryField
{
    inlet
    {
        type            fixedValue;
        value           uniform 0;
    }
    outlet
    {
        type            zeroGradient;
    }
    yzfaces
    {
        type            empty;
    }
}


// ************************************************************************* //
