/*--------------------------------*- C++ -*----------------------------------*\
| =========                 |                                                 |
| \\      /  F ield         | foam-extend: Open Source CFD                    |
|  \\    /   O peration     | Version:     5.0                                |
|   \\  /    A nd           | Web:         http://www.foam-extend.org         |
|    \\/     M anipulation  |                                                 |
\*---------------------------------------------------------------------------*/
FoamFile
{
    version     2.0;
    format      ascii;
    class       surfaceScalarField;
    location    "2";
    object      phi;
}
// * * * * * * * * * * * * * * * * * * * * * * * * * * * * * * * * * * * * * //

dimensions      [0 3 -1 0 0 0 0];

internalField   nonuniform List<scalar> 
99
(
1.22552e-06
1.22328e-06
1.21767e-06
1.22136e-06
1.21643e-06
1.22137e-06
1.21464e-06
1.21889e-06
1.21409e-06
1.21268e-06
1.21387e-06
1.21422e-06
1.21052e-06
1.21137e-06
1.21131e-06
1.21341e-06
1.21141e-06
1.21469e-06
1.20998e-06
1.21214e-06
1.21259e-06
1.21124e-06
1.20884e-06
1.21119e-06
1.20955e-06
1.21217e-06
1.21066e-06
1.21014e-06
1.21109e-06
1.21279e-06
1.21257e-06
1.21591e-06
1.21466e-06
1.21528e-06
1.21243e-06
1.2135e-06
1.21459e-06
1.21401e-06
1.21474e-06
1.21577e-06
1.21551e-06
1.21583e-06
1.21654e-06
1.21559e-06
1.21607e-06
1.21432e-06
1.21358e-06
1.21156e-06
1.21203e-06
1.21311e-06
1.21159e-06
1.21219e-06
1.21063e-06
1.20983e-06
1.2095e-06
1.20829e-06
1.20849e-06
1.20895e-06
1.20815e-06
1.20872e-06
1.20874e-06
1.20845e-06
1.20745e-06
1.20552e-06
1.20515e-06
1.20549e-06
1.20343e-06
1.20334e-06
1.20148e-06
1.20248e-06
1.20292e-06
1.20282e-06
1.20295e-06
1.20482e-06
1.20468e-06
1.20559e-06
1.20624e-06
1.20523e-06
1.20527e-06
1.20473e-06
1.20558e-06
1.20624e-06
1.20493e-06
1.20768e-06
1.20618e-06
1.20582e-06
1.20619e-06
1.20793e-06
1.20927e-06
1.21085e-06
1.21116e-06
1.21187e-06
1.21251e-06
1.21164e-06
1.21088e-06
1.21022e-06
1.21177e-06
1.20935e-06
1.20888e-06
)
;

boundaryField
{
    inlet
    {
        type            calculated;
        value           uniform -1.225e-06;
    }
    outlet
    {
        type            calculated;
        value           uniform 1.21078e-06;
    }
    yzfaces
    {
        type            empty;
    }
}


// ************************************************************************* //
