/*--------------------------------*- C++ -*----------------------------------*\
| =========                 |                                                 |
| \\      /  F ield         | foam-extend: Open Source CFD                    |
|  \\    /   O peration     | Version:     5.0                                |
|   \\  /    A nd           | Web:         http://www.foam-extend.org         |
|    \\/     M anipulation  |                                                 |
\*---------------------------------------------------------------------------*/
FoamFile
{
    version     2.0;
    format      ascii;
    class       surfaceScalarField;
    location    "2";
    object      phi.water;
}
// * * * * * * * * * * * * * * * * * * * * * * * * * * * * * * * * * * * * * //

dimensions      [0 3 -1 0 0 0 0];

internalField   nonuniform List<scalar> 
99
(
2.20551e-07
3.83504e-07
5.1846e-07
6.61414e-07
7.92406e-07
9.23792e-07
1.02556e-06
1.15561e-06
1.25449e-06
1.36945e-06
1.48675e-06
1.59254e-06
1.6886e-06
1.80256e-06
1.91211e-06
2.02439e-06
2.13109e-06
2.25015e-06
2.34058e-06
2.45841e-06
2.57427e-06
2.68426e-06
2.79848e-06
2.93401e-06
3.0529e-06
3.19181e-06
3.3206e-06
3.4609e-06
3.61182e-06
3.77229e-06
3.93417e-06
4.11596e-06
4.2875e-06
4.48005e-06
4.66903e-06
4.88054e-06
5.10128e-06
5.30961e-06
5.50796e-06
5.68371e-06
5.82336e-06
5.92921e-06
6.00122e-06
6.03886e-06
6.06683e-06
6.07202e-06
6.07969e-06
6.07825e-06
6.08014e-06
6.08378e-06
6.07982e-06
6.08378e-06
6.07603e-06
6.07455e-06
6.07172e-06
6.06428e-06
6.06403e-06
6.06512e-06
6.06213e-06
6.06615e-06
6.06509e-06
6.06104e-06
6.05626e-06
6.04799e-06
6.04699e-06
6.0486e-06
6.03617e-06
6.0365e-06
6.02993e-06
6.03409e-06
6.0365e-06
6.03704e-06
6.0397e-06
6.04923e-06
6.04714e-06
6.05148e-06
6.05451e-06
6.04822e-06
6.04458e-06
6.04226e-06
6.04678e-06
6.05012e-06
6.04906e-06
6.0618e-06
6.05287e-06
6.05469e-06
6.0567e-06
6.06577e-06
6.06899e-06
6.07503e-06
6.07991e-06
6.08403e-06
6.08667e-06
6.08077e-06
6.07613e-06
6.07453e-06
6.08038e-06
6.06668e-06
6.06444e-06
)
;

boundaryField
{
    inlet
    {
        type            fixedValue;
        value           uniform 0;
    }
    outlet
    {
        type            calculated;
        value           uniform 6.07332e-06;
    }
    yzfaces
    {
        type            empty;
    }
}


// ************************************************************************* //
