/*--------------------------------*- C++ -*----------------------------------*\
| =========                 |                                                 |
| \\      /  F ield         | foam-extend: Open Source CFD                    |
|  \\    /   O peration     | Version:     5.0                                |
|   \\  /    A nd           | Web:         http://www.foam-extend.org         |
|    \\/     M anipulation  |                                                 |
\*---------------------------------------------------------------------------*/
FoamFile
{
    version     2.0;
    format      ascii;
    class       surfaceScalarField;
    location    "2";
    object      phi.water;
}
// * * * * * * * * * * * * * * * * * * * * * * * * * * * * * * * * * * * * * //

dimensions      [0 3 -1 0 0 0 0];

internalField   nonuniform List<scalar> 
99
(
2.21671e-07
3.85323e-07
5.24239e-07
6.63538e-07
7.80388e-07
8.97609e-07
1.0261e-06
1.14615e-06
1.26467e-06
1.38279e-06
1.47354e-06
1.59009e-06
1.69062e-06
1.81121e-06
1.91304e-06
2.01008e-06
2.1203e-06
2.23523e-06
2.33837e-06
2.44757e-06
2.56354e-06
2.67784e-06
2.78917e-06
2.90382e-06
3.03254e-06
3.1589e-06
3.29418e-06
3.42591e-06
3.57567e-06
3.72368e-06
3.88087e-06
4.05503e-06
4.2268e-06
4.41483e-06
4.6075e-06
4.82806e-06
5.02885e-06
5.23529e-06
5.43746e-06
5.61223e-06
5.73017e-06
5.84195e-06
5.90408e-06
5.95448e-06
5.97731e-06
6.00069e-06
6.01001e-06
6.0186e-06
6.01988e-06
6.02436e-06
6.02512e-06
6.01928e-06
6.015e-06
6.02545e-06
6.02473e-06
6.03323e-06
6.03218e-06
6.03968e-06
6.03899e-06
6.04612e-06
6.04678e-06
6.03878e-06
6.04268e-06
6.0512e-06
6.04401e-06
6.04936e-06
6.04885e-06
6.05223e-06
6.05046e-06
6.04953e-06
6.06044e-06
6.05216e-06
6.05238e-06
6.05656e-06
6.05784e-06
6.05539e-06
6.05862e-06
6.04893e-06
6.04769e-06
6.04516e-06
6.05056e-06
6.05846e-06
6.05867e-06
6.06112e-06
6.06101e-06
6.06785e-06
6.06796e-06
6.05319e-06
6.04106e-06
6.03364e-06
6.03222e-06
6.02878e-06
6.02481e-06
6.0272e-06
6.02248e-06
6.02661e-06
6.03444e-06
6.02375e-06
6.0274e-06
)
;

boundaryField
{
    inlet
    {
        type            fixedValue;
        value           uniform 0;
    }
    outlet
    {
        type            calculated;
        value           uniform 6.01641e-06;
    }
    yzfaces
    {
        type            empty;
    }
}


// ************************************************************************* //
