/*--------------------------------*- C++ -*----------------------------------*\
| =========                 |                                                 |
| \\      /  F ield         | foam-extend: Open Source CFD                    |
|  \\    /   O peration     | Version:     5.0                                |
|   \\  /    A nd           | Web:         http://www.foam-extend.org         |
|    \\/     M anipulation  |                                                 |
\*---------------------------------------------------------------------------*/
FoamFile
{
    version     2.0;
    format      ascii;
    class       volScalarField;
    location    "2";
    object      S.gas;
}
// * * * * * * * * * * * * * * * * * * * * * * * * * * * * * * * * * * * * * //

dimensions      [0 0 0 0 0 0 0];

internalField   nonuniform List<scalar> 
100
(
0.671793
0.585929
0.533816
0.493146
0.461735
0.435944
0.416433
0.397128
0.382166
0.367135
0.353527
0.341637
0.33104
0.32024
0.310257
0.300804
0.291833
0.283141
0.275562
0.267572
0.259655
0.252083
0.244504
0.236682
0.22931
0.221697
0.214204
0.20653
0.198692
0.190676
0.182468
0.173796
0.164876
0.155461
0.145474
0.134814
0.12362
0.112046
0.100306
0.0889406
0.0785638
0.0697603
0.0629043
0.0580181
0.0547861
0.0527767
0.051571
0.050879
0.0504857
0.0502672
0.0501446
0.0500855
0.0500479
0.050038
0.0500236
0.0500227
0.0500189
0.0500188
0.0500219
0.0500128
0.0500103
0.0500142
0.0499951
0.0499947
0.0499884
0.0499939
0.0499846
0.0499822
0.0499789
0.0499803
0.0499813
0.049982
0.0499901
0.0499899
0.0499938
0.0500053
0.0500105
0.0500012
0.0499976
0.049996
0.0500036
0.0499951
0.0499834
0.0499896
0.0499875
0.0499924
0.0500067
0.0499928
0.0499978
0.0499914
0.0499905
0.0499986
0.049994
0.0500086
0.0500108
0.0500114
0.0500226
0.0500079
0.0500125
0.0499809
)
;

boundaryField
{
    inlet
    {
        type            calculated;
        value           uniform 1;
    }
    outlet
    {
        type            calculated;
        value           uniform 0.0499809;
    }
    yzfaces
    {
        type            empty;
    }
}


// ************************************************************************* //
