/*--------------------------------*- C++ -*----------------------------------*\
| =========                 |                                                 |
| \\      /  F ield         | foam-extend: Open Source CFD                    |
|  \\    /   O peration     | Version:     5.0                                |
|   \\  /    A nd           | Web:         http://www.foam-extend.org         |
|    \\/     M anipulation  |                                                 |
\*---------------------------------------------------------------------------*/
FoamFile
{
    version     2.0;
    format      ascii;
    class       volVectorField;
    location    "2";
    object      U.gas;
}
// * * * * * * * * * * * * * * * * * * * * * * * * * * * * * * * * * * * * * //

dimensions      [0 1 -1 0 0 0 0];

internalField   nonuniform List<vector> 
100
(
(0.00739458 0 0)
(0.00835431 0 0)
(0.0090093 0 0)
(0.00959849 0 0)
(0.0100836 0 0)
(0.0105072 0 0)
(0.0108219 0 0)
(0.0111551 0 0)
(0.0114006 0 0)
(0.0116436 0 0)
(0.0118771 0 0)
(0.012082 0 0)
(0.0122386 0 0)
(0.0124081 0 0)
(0.012565 0 0)
(0.0127156 0 0)
(0.012841 0 0)
(0.0129601 0 0)
(0.0130281 0 0)
(0.0131114 0 0)
(0.0132019 0 0)
(0.0132526 0 0)
(0.0132827 0 0)
(0.013323 0 0)
(0.0133314 0 0)
(0.0133443 0 0)
(0.0133292 0 0)
(0.0132832 0 0)
(0.0132242 0 0)
(0.0131495 0 0)
(0.0130361 0 0)
(0.012901 0 0)
(0.012706 0 0)
(0.0124475 0 0)
(0.0121136 0 0)
(0.0116988 0 0)
(0.011198 0 0)
(0.0105773 0 0)
(0.00984255 0 0)
(0.00900915 0 0)
(0.0081178 0 0)
(0.00723711 0 0)
(0.00645206 0 0)
(0.00582058 0 0)
(0.00536365 0 0)
(0.00505904 0 0)
(0.00486621 0 0)
(0.00474734 0 0)
(0.00468038 0 0)
(0.00464756 0 0)
(0.00462605 0 0)
(0.00461211 0 0)
(0.00460482 0 0)
(0.00459708 0 0)
(0.00459419 0 0)
(0.00458962 0 0)
(0.00458671 0 0)
(0.00458779 0 0)
(0.00458776 0 0)
(0.00458725 0 0)
(0.0045877 0 0)
(0.00458719 0 0)
(0.00458488 0 0)
(0.00457758 0 0)
(0.00457306 0 0)
(0.0045723 0 0)
(0.00456942 0 0)
(0.00456488 0 0)
(0.00456137 0 0)
(0.00455959 0 0)
(0.00456202 0 0)
(0.00456272 0 0)
(0.00456301 0 0)
(0.00456741 0 0)
(0.004571 0 0)
(0.00457293 0 0)
(0.00457643 0 0)
(0.00457622 0 0)
(0.00457392 0 0)
(0.00457301 0 0)
(0.0045733 0 0)
(0.00457632 0 0)
(0.00457452 0 0)
(0.00457639 0 0)
(0.00457984 0 0)
(0.00457638 0 0)
(0.00457615 0 0)
(0.004581 0 0)
(0.00458584 0 0)
(0.00459185 0 0)
(0.00459497 0 0)
(0.00459692 0 0)
(0.00460045 0 0)
(0.00459912 0 0)
(0.00459703 0 0)
(0.00459493 0 0)
(0.00459706 0 0)
(0.00459725 0 0)
(0.0045902 0 0)
(0.00459494 0 0)
)
;

boundaryField
{
    inlet
    {
        type            fixedValue;
        value           uniform (0.005 0 0);
    }
    outlet
    {
        type            zeroGradient;
    }
    yzfaces
    {
        type            empty;
    }
}


// ************************************************************************* //
