/*--------------------------------*- C++ -*----------------------------------*\
| =========                 |                                                 |
| \\      /  F ield         | foam-extend: Open Source CFD                    |
|  \\    /   O peration     | Version:     5.0                                |
|   \\  /    A nd           | Web:         http://www.foam-extend.org         |
|    \\/     M anipulation  |                                                 |
\*---------------------------------------------------------------------------*/
FoamFile
{
    version     2.0;
    format      ascii;
    class       volVectorField;
    location    "2";
    object      U.gas;
}
// * * * * * * * * * * * * * * * * * * * * * * * * * * * * * * * * * * * * * //

dimensions      [0 1 -1 0 0 0 0];

internalField   nonuniform List<vector> 
100
(
(0.00738653 0 0)
(0.00835982 0 0)
(0.00906098 0 0)
(0.00960972 0 0)
(0.0100067 0 0)
(0.0103689 0 0)
(0.0107209 0 0)
(0.0110424 0 0)
(0.011328 0 0)
(0.011597 0 0)
(0.0117933 0 0)
(0.0120158 0 0)
(0.012177 0 0)
(0.0123659 0 0)
(0.0125231 0 0)
(0.0126293 0 0)
(0.0127613 0 0)
(0.0128833 0 0)
(0.0129716 0 0)
(0.0130422 0 0)
(0.01312 0 0)
(0.0131882 0 0)
(0.0132153 0 0)
(0.0132345 0 0)
(0.0132452 0 0)
(0.0132247 0 0)
(0.0132147 0 0)
(0.0131743 0 0)
(0.0131173 0 0)
(0.0130314 0 0)
(0.0129103 0 0)
(0.0127646 0 0)
(0.0125622 0 0)
(0.0123075 0 0)
(0.0119808 0 0)
(0.011585 0 0)
(0.0110862 0 0)
(0.0104717 0 0)
(0.00975516 0 0)
(0.00893998 0 0)
(0.00804749 0 0)
(0.00716774 0 0)
(0.00638396 0 0)
(0.00575522 0 0)
(0.00529663 0 0)
(0.00499381 0 0)
(0.00481015 0 0)
(0.00470126 0 0)
(0.00463811 0 0)
(0.00460058 0 0)
(0.00458097 0 0)
(0.00456747 0 0)
(0.00455681 0 0)
(0.00455392 0 0)
(0.00455351 0 0)
(0.00455704 0 0)
(0.00456253 0 0)
(0.00456606 0 0)
(0.00456974 0 0)
(0.00457209 0 0)
(0.00457406 0 0)
(0.00457069 0 0)
(0.00456795 0 0)
(0.00457194 0 0)
(0.00457528 0 0)
(0.00457716 0 0)
(0.00458027 0 0)
(0.00457912 0 0)
(0.00457729 0 0)
(0.00457654 0 0)
(0.00457956 0 0)
(0.00458064 0 0)
(0.00457532 0 0)
(0.00457601 0 0)
(0.00457896 0 0)
(0.00457865 0 0)
(0.00458067 0 0)
(0.00458081 0 0)
(0.00457848 0 0)
(0.00457712 0 0)
(0.00457792 0 0)
(0.00458179 0 0)
(0.00458397 0 0)
(0.00458265 0 0)
(0.00458077 0 0)
(0.00458287 0 0)
(0.00458479 0 0)
(0.00458057 0 0)
(0.00457144 0 0)
(0.00456512 0 0)
(0.00456347 0 0)
(0.00456142 0 0)
(0.00455736 0 0)
(0.00455584 0 0)
(0.00455593 0 0)
(0.0045566 0 0)
(0.00456129 0 0)
(0.00456119 0 0)
(0.00455952 0 0)
(0.00455716 0 0)
)
;

boundaryField
{
    inlet
    {
        type            fixedValue;
        value           uniform (0.005 0 0);
    }
    outlet
    {
        type            zeroGradient;
    }
    yzfaces
    {
        type            empty;
    }
}


// ************************************************************************* //
