/*--------------------------------*- C++ -*----------------------------------*\
| =========                 |                                                 |
| \\      /  F ield         | foam-extend: Open Source CFD                    |
|  \\    /   O peration     | Version:     5.0                                |
|   \\  /    A nd           | Web:         http://www.foam-extend.org         |
|    \\/     M anipulation  |                                                 |
\*---------------------------------------------------------------------------*/
FoamFile
{
    version     2.0;
    format      ascii;
    class       volVectorField;
    location    "2";
    object      U.water;
}
// * * * * * * * * * * * * * * * * * * * * * * * * * * * * * * * * * * * * * //

dimensions      [0 1 -1 0 0 0 0];

internalField   nonuniform List<vector> 
100
(
(0.000101886 0 0)
(0.000247592 0 0)
(0.000369427 0 0)
(0.000481724 0 0)
(0.000592934 0 0)
(0.00069952 0 0)
(0.00079658 0 0)
(0.000889702 0 0)
(0.000984631 0 0)
(0.00107102 0 0)
(0.00116519 0 0)
(0.00125706 0 0)
(0.00134084 0 0)
(0.00142563 0 0)
(0.0015163 0 0)
(0.00160686 0 0)
(0.00169621 0 0)
(0.00178793 0 0)
(0.00187491 0 0)
(0.00195902 0 0)
(0.00205373 0 0)
(0.00214707 0 0)
(0.00223861 0 0)
(0.00233916 0 0)
(0.00244359 0 0)
(0.00254899 0 0)
(0.00265894 0 0)
(0.00276887 0 0)
(0.00288745 0 0)
(0.00301415 0 0)
(0.00314488 0 0)
(0.00328484 0 0)
(0.00343115 0 0)
(0.00358062 0 0)
(0.00373576 0 0)
(0.00389941 0 0)
(0.0040747 0 0)
(0.00424704 0 0)
(0.0044119 0 0)
(0.00456496 0 0)
(0.00469271 0 0)
(0.00479129 0 0)
(0.00486412 0 0)
(0.00491074 0 0)
(0.00493933 0 0)
(0.00495446 0 0)
(0.00495971 0 0)
(0.00496008 0 0)
(0.00496021 0 0)
(0.00496522 0 0)
(0.00496538 0 0)
(0.00496411 0 0)
(0.00496242 0 0)
(0.00495776 0 0)
(0.0049555 0 0)
(0.00495243 0 0)
(0.00495042 0 0)
(0.00495177 0 0)
(0.00495104 0 0)
(0.00495057 0 0)
(0.0049518 0 0)
(0.00495125 0 0)
(0.00494859 0 0)
(0.00494267 0 0)
(0.00493797 0 0)
(0.00493794 0 0)
(0.00493439 0 0)
(0.00493002 0 0)
(0.00492603 0 0)
(0.00492428 0 0)
(0.00492723 0 0)
(0.00492791 0 0)
(0.00492797 0 0)
(0.00493204 0 0)
(0.00493556 0 0)
(0.00493713 0 0)
(0.00494031 0 0)
(0.00493955 0 0)
(0.00493758 0 0)
(0.00493654 0 0)
(0.00493718 0 0)
(0.00494027 0 0)
(0.00493897 0 0)
(0.00494198 0 0)
(0.00494448 0 0)
(0.00494067 0 0)
(0.00494071 0 0)
(0.00494497 0 0)
(0.00495133 0 0)
(0.00495728 0 0)
(0.00496118 0 0)
(0.00496329 0 0)
(0.004966 0 0)
(0.00496557 0 0)
(0.00496218 0 0)
(0.00495924 0 0)
(0.00496105 0 0)
(0.00495918 0 0)
(0.00495334 0 0)
(0.00495615 0 0)
)
;

boundaryField
{
    inlet
    {
        type            fixedValue;
        value           uniform (0 0 0);
    }
    outlet
    {
        type            zeroGradient;
    }
    yzfaces
    {
        type            empty;
    }
}


// ************************************************************************* //
