/*--------------------------------*- C++ -*----------------------------------*\
| =========                 |                                                 |
| \\      /  F ield         | foam-extend: Open Source CFD                    |
|  \\    /   O peration     | Version:     5.0                                |
|   \\  /    A nd           | Web:         http://www.foam-extend.org         |
|    \\/     M anipulation  |                                                 |
\*---------------------------------------------------------------------------*/
FoamFile
{
    version     2.0;
    format      ascii;
    class       volScalarField;
    location    "1";
    object      alpha.gas;
}
// * * * * * * * * * * * * * * * * * * * * * * * * * * * * * * * * * * * * * //

dimensions      [0 0 0 0 0 0 0];

internalField   nonuniform List<scalar> 
100
(
0.115658
0.0974162
0.0863429
0.0784864
0.0723511
0.0671963
0.0629167
0.0591418
0.0557415
0.0525053
0.0495749
0.0466886
0.0439659
0.0412586
0.0385536
0.0358155
0.0330153
0.030168
0.0272354
0.0242575
0.0213036
0.0184838
0.0159618
0.013899
0.0123819
0.0113675
0.0107498
0.0103962
0.0102069
0.0101053
0.0100524
0.0100276
0.0100161
0.0100086
0.0100045
0.0100005
0.0100005
0.0100001
0.00999978
0.0100004
0.00999984
0.00999811
0.00999691
0.0099988
0.00999977
0.00999844
0.00999725
0.0100006
0.010001
0.0100024
0.010001
0.0100025
0.0100018
0.0100014
0.00999967
0.0100003
0.0100014
0.0100002
0.0100013
0.0100001
0.00999844
0.0099983
0.00999823
0.00999934
0.00999673
0.00999521
0.00999747
0.00999737
0.00999912
0.00999951
0.00999928
0.00999914
0.0100006
0.0100013
0.00999958
0.01
0.0100008
0.0100005
0.0100006
0.00999834
0.00999856
0.00999974
0.01
0.0100001
0.0100006
0.0100014
0.010001
0.0100004
0.00999966
0.00999985
0.00999715
0.0099979
0.00999791
0.00999848
0.00999988
0.0100002
0.01
0.0100012
0.00999985
0.00999804
)
;

boundaryField
{
    inlet
    {
        type            fixedValue;
        value           uniform 0.2;
    }
    outlet
    {
        type            zeroGradient;
    }
    yzfaces
    {
        type            empty;
    }
}


// ************************************************************************* //
