/*--------------------------------*- C++ -*----------------------------------*\
| =========                 |                                                 |
| \\      /  F ield         | foam-extend: Open Source CFD                    |
|  \\    /   O peration     | Version:     5.0                                |
|   \\  /    A nd           | Web:         http://www.foam-extend.org         |
|    \\/     M anipulation  |                                                 |
\*---------------------------------------------------------------------------*/
FoamFile
{
    version     2.0;
    format      ascii;
    class       volScalarField;
    location    "1";
    object      Cl.water;
}
// * * * * * * * * * * * * * * * * * * * * * * * * * * * * * * * * * * * * * //

dimensions      [0 0 0 0 0 0 0];

internalField   nonuniform List<scalar> 
100
(
0.0172534
0.0209915
0.0232413
0.0248347
0.0260728
0.0270924
0.028015
0.0287791
0.0294659
0.030101
0.0307076
0.031297
0.0318591
0.0324086
0.0329779
0.0345218
0.0351187
0.0357385
0.0363762
0.0369957
0.0376126
0.038221
0.0387135
0.0391343
0.0395199
0.0397235
0.0398564
0.039917
0.0399542
0.0400026
0.0400198
0.0399761
0.0399844
0.0399569
0.0399982
0.040012
0.0399835
0.0400085
0.0399895
0.0400003
0.0399939
0.0399683
0.0399721
0.0400001
0.0399813
0.0399997
0.0400118
0.0399794
0.0399958
0.0400032
0.0400285
0.0399943
0.0400101
0.0400275
0.0400241
0.0400058
0.0400133
0.0400231
0.0400191
0.0400161
0.0400001
0.0399974
0.0400257
0.0399945
0.0399816
0.0400235
0.0400281
0.039985
0.0400289
0.0399966
0.0399921
0.0399925
0.0400052
0.0399713
0.0399991
0.0400296
0.0400541
0.0400286
0.040015
0.0400006
0.0399716
0.039967
0.0399538
0.0400016
0.0400173
0.0400048
0.04
0.0399952
0.0400139
0.0400268
0.0400078
0.0400091
0.0400226
0.0399977
0.0399786
0.040013
0.0399913
0.0399943
0.0400046
0.0400463
)
;

boundaryField
{
    inlet
    {
        type            fixedValue;
        value           uniform 0;
    }
    outlet
    {
        type            zeroGradient;
    }
    yzfaces
    {
        type            empty;
    }
}


// ************************************************************************* //
