/*--------------------------------*- C++ -*----------------------------------*\
| =========                 |                                                 |
| \\      /  F ield         | foam-extend: Open Source CFD                    |
|  \\    /   O peration     | Version:     5.0                                |
|   \\  /    A nd           | Web:         http://www.foam-extend.org         |
|    \\/     M anipulation  |                                                 |
\*---------------------------------------------------------------------------*/
FoamFile
{
    version     2.0;
    format      ascii;
    class       volScalarField;
    location    "1";
    object      CO2.water;
}
// * * * * * * * * * * * * * * * * * * * * * * * * * * * * * * * * * * * * * //

dimensions      [0 0 0 0 0 0 0];

internalField   nonuniform List<scalar> 
100
(
0.00221659
0.00269493
0.00299026
0.00319233
0.00335309
0.00348604
0.00359975
0.00369962
0.00378869
0.00387373
0.00395149
0.00402741
0.00410007
0.00417071
0.00424167
0.000156446
3.36053e-05
7.87347e-06
2.01344e-06
5.41577e-07
1.3803e-07
3.2979e-08
8.44049e-09
3.09145e-09
1.76147e-09
1.19218e-09
7.4833e-10
4.51617e-10
2.65424e-10
1.53403e-10
8.84204e-11
4.94476e-11
2.7003e-11
1.43173e-11
7.45783e-12
3.83774e-12
1.94872e-12
9.86323e-13
4.97399e-13
2.50661e-13
1.26309e-13
6.36534e-14
3.20929e-14
1.6306e-14
8.22067e-15
4.14847e-15
2.08934e-15
1.04196e-15
5.1843e-16
2.5525e-16
1.25175e-16
6.1166e-17
2.96325e-17
1.42912e-17
6.85329e-18
3.27692e-18
1.5594e-18
7.36226e-19
3.48438e-19
1.64454e-19
7.72134e-20
3.62406e-20
1.70258e-20
7.96666e-21
3.73295e-21
1.7439e-21
8.1891e-22
3.83383e-22
1.78037e-22
8.23471e-23
3.78801e-23
1.73296e-23
7.90872e-24
3.60316e-24
1.63331e-24
7.37184e-25
3.33275e-25
1.49951e-25
6.72225e-26
3.00866e-26
1.34194e-26
5.97706e-27
2.65157e-27
1.17526e-27
5.19244e-28
2.29186e-28
1.00878e-28
4.44661e-29
1.9552e-29
8.56932e-30
3.75252e-30
1.63634e-30
7.15905e-31
3.1177e-31
1.35799e-31
5.9109e-32
2.56182e-32
1.1123e-32
4.80549e-33
2.65461e-33
)
;

boundaryField
{
    inlet
    {
        type            fixedValue;
        value           uniform 0;
    }
    outlet
    {
        type            zeroGradient;
    }
    yzfaces
    {
        type            empty;
    }
}


// ************************************************************************* //
