/*--------------------------------*- C++ -*----------------------------------*\
| =========                 |                                                 |
| \\      /  F ield         | foam-extend: Open Source CFD                    |
|  \\    /   O peration     | Version:     5.0                                |
|   \\  /    A nd           | Web:         http://www.foam-extend.org         |
|    \\/     M anipulation  |                                                 |
\*---------------------------------------------------------------------------*/
FoamFile
{
    version     2.0;
    format      ascii;
    class       volScalarField;
    location    "1";
    object      H2O.gas;
}
// * * * * * * * * * * * * * * * * * * * * * * * * * * * * * * * * * * * * * //

dimensions      [0 0 0 0 0 0 0];

internalField   nonuniform List<scalar> 
100
(
0.000225138
0.000189669
0.000167771
0.000152789
0.000140868
0.00013101
0.000122579
0.000115173
0.00010857
0.000102264
9.64976e-05
9.08688e-05
8.54812e-05
8.02432e-05
7.49813e-05
0.00828875
0.0114807
0.0139651
0.0156647
0.0165037
0.0164982
0.0157859
0.0145871
0.0132915
0.012141
0.0112809
0.0107326
0.0103996
0.0102178
0.0101171
0.0100666
0.0100366
0.0100096
0.0100046
0.0100008
0.00999973
0.0100095
0.010002
0.0100001
0.0100048
0.00999696
0.00999722
0.0099981
0.00999125
0.00999977
0.00999129
0.0100004
0.0100053
0.0100009
0.0100038
0.00999668
0.00999465
0.00999601
0.00999641
0.0100017
0.00999744
0.0100048
0.0100037
0.00999879
0.00999307
0.00999611
0.00999446
0.00999318
0.0100033
0.010005
0.0100008
0.0099994
0.00999522
0.0099957
0.0100012
0.0100009
0.0100025
0.0100002
0.00999801
0.0100006
0.0100101
0.00999852
0.0100021
0.0100059
0.010004
0.0100023
0.00999909
0.0100051
0.0100075
0.0100072
0.00999609
0.0100015
0.00999807
0.0100052
0.0100059
0.0100002
0.0100067
0.00999902
0.0100005
0.0100068
0.0100066
0.0100137
0.00999754
0.0100078
0.0100071
)
;

boundaryField
{
    inlet
    {
        type            fixedValue;
        value           uniform 0;
    }
    outlet
    {
        type            zeroGradient;
    }
    yzfaces
    {
        type            empty;
    }
}


// ************************************************************************* //
