/*--------------------------------*- C++ -*----------------------------------*\
| =========                 |                                                 |
| \\      /  F ield         | foam-extend: Open Source CFD                    |
|  \\    /   O peration     | Version:     5.0                                |
|   \\  /    A nd           | Web:         http://www.foam-extend.org         |
|    \\/     M anipulation  |                                                 |
\*---------------------------------------------------------------------------*/
FoamFile
{
    version     2.0;
    format      ascii;
    class       volScalarField;
    location    "1";
    object      H2O.gas;
}
// * * * * * * * * * * * * * * * * * * * * * * * * * * * * * * * * * * * * * //

dimensions      [0 0 0 0 0 0 0];

internalField   nonuniform List<scalar> 
100
(
0.000225241
0.000189715
0.00016815
0.00015285
0.000140902
0.000130863
0.000122529
0.000115177
0.000108555
0.000102253
9.65456e-05
9.09247e-05
8.56222e-05
8.03498e-05
7.50819e-05
0.00828302
0.0114582
0.0139464
0.0156474
0.0164776
0.0164804
0.015781
0.0145982
0.0132858
0.0121559
0.0112893
0.010727
0.010388
0.0102019
0.0101075
0.0100592
0.0100246
0.010012
0.00999988
0.0100054
0.0100064
0.00999946
0.0100042
0.0100017
0.0100041
0.0100033
0.00999538
0.00999198
0.00999877
0.00999766
0.009999
0.00999928
0.00999329
0.00999874
0.00999839
0.0100058
0.00999864
0.0100043
0.0100083
0.010007
0.0100041
0.0100036
0.0100063
0.0100033
0.010003
0.00999439
0.00999791
0.0100058
0.00999816
0.00999076
0.00999758
0.00999975
0.00998906
0.010002
0.00999644
0.00999773
0.00999874
0.0100024
0.00999552
0.0100007
0.0100062
0.0100118
0.0100063
0.0100022
0.00999572
0.00999083
0.0099907
0.00998705
0.00999865
0.0100029
0.0100018
0.010005
0.0100031
0.0100047
0.0100087
0.0100003
0.00999898
0.0100005
0.00999766
0.00999435
0.0100045
0.0099985
0.0100004
0.0100038
0.0100155
)
;

boundaryField
{
    inlet
    {
        type            fixedValue;
        value           uniform 0;
    }
    outlet
    {
        type            zeroGradient;
    }
    yzfaces
    {
        type            empty;
    }
}


// ************************************************************************* //
