/*--------------------------------*- C++ -*----------------------------------*\
| =========                 |                                                 |
| \\      /  F ield         | foam-extend: Open Source CFD                    |
|  \\    /   O peration     | Version:     5.0                                |
|   \\  /    A nd           | Web:         http://www.foam-extend.org         |
|    \\/     M anipulation  |                                                 |
\*---------------------------------------------------------------------------*/
FoamFile
{
    version     2.0;
    format      ascii;
    class       volScalarField;
    location    "1";
    object      Na.water;
}
// * * * * * * * * * * * * * * * * * * * * * * * * * * * * * * * * * * * * * //

dimensions      [0 0 0 0 0 0 0];

internalField   nonuniform List<scalar> 
100
(
0.0172508
0.0209941
0.0232526
0.0248569
0.0260774
0.0271008
0.028028
0.0287939
0.0294758
0.0300966
0.0307002
0.0312998
0.0318593
0.0324137
0.032985
0.034526
0.0351277
0.035727
0.036368
0.0369913
0.037625
0.0382412
0.0387311
0.0391416
0.0395285
0.0397233
0.0398541
0.0399107
0.039939
0.0399825
0.0400248
0.0399992
0.0400029
0.0399789
0.0400069
0.0400327
0.0399998
0.0400274
0.0400224
0.040024
0.0400292
0.0400041
0.0399837
0.0400097
0.0400037
0.0400024
0.0400081
0.0399817
0.0399931
0.0399872
0.0400012
0.0399528
0.0399884
0.0400061
0.040015
0.0399901
0.0399907
0.040024
0.0400093
0.0400126
0.0399909
0.0399957
0.040026
0.0399828
0.0399609
0.0400033
0.040014
0.0399753
0.0400193
0.0399855
0.0399943
0.0400051
0.0400145
0.0399903
0.0400158
0.0400425
0.0400706
0.0400367
0.0400127
0.0399976
0.0399786
0.0399744
0.0399545
0.0399975
0.0399989
0.0399951
0.0400168
0.0400131
0.0400276
0.0400539
0.0400258
0.0400018
0.0400141
0.0400016
0.0399751
0.0400119
0.0399837
0.0399935
0.0400187
0.0400772
)
;

boundaryField
{
    inlet
    {
        type            fixedValue;
        value           uniform 0;
    }
    outlet
    {
        type            zeroGradient;
    }
    yzfaces
    {
        type            empty;
    }
}


// ************************************************************************* //
