/*--------------------------------*- C++ -*----------------------------------*\
| =========                 |                                                 |
| \\      /  F ield         | foam-extend: Open Source CFD                    |
|  \\    /   O peration     | Version:     5.0                                |
|   \\  /    A nd           | Web:         http://www.foam-extend.org         |
|    \\/     M anipulation  |                                                 |
\*---------------------------------------------------------------------------*/
FoamFile
{
    version     2.0;
    format      ascii;
    class       surfaceScalarField;
    location    "1";
    object      phi;
}
// * * * * * * * * * * * * * * * * * * * * * * * * * * * * * * * * * * * * * //

dimensions      [0 3 -1 0 0 0 0];

internalField   nonuniform List<scalar> 
99
(
1.22182e-06
1.2222e-06
1.22261e-06
1.2287e-06
1.22229e-06
1.22576e-06
1.22618e-06
1.22504e-06
1.22571e-06
1.22819e-06
1.22562e-06
1.22838e-06
1.22711e-06
1.22787e-06
1.22917e-06
1.22789e-06
1.23022e-06
1.23079e-06
1.23172e-06
1.23238e-06
1.23095e-06
1.22961e-06
1.22964e-06
1.2308e-06
1.23034e-06
1.23027e-06
1.22834e-06
1.22991e-06
1.23119e-06
1.22987e-06
1.2278e-06
1.22766e-06
1.22783e-06
1.22751e-06
1.22911e-06
1.23016e-06
1.23199e-06
1.23176e-06
1.23317e-06
1.23186e-06
1.23255e-06
1.23342e-06
1.2327e-06
1.23287e-06
1.2339e-06
1.23518e-06
1.23273e-06
1.23409e-06
1.23405e-06
1.23426e-06
1.2333e-06
1.23292e-06
1.2344e-06
1.23507e-06
1.23565e-06
1.23533e-06
1.235e-06
1.23416e-06
1.23278e-06
1.23363e-06
1.23506e-06
1.23595e-06
1.23519e-06
1.23694e-06
1.23605e-06
1.23512e-06
1.23413e-06
1.23491e-06
1.23351e-06
1.23564e-06
1.23402e-06
1.23446e-06
1.2329e-06
1.23416e-06
1.23357e-06
1.23437e-06
1.23365e-06
1.23069e-06
1.23084e-06
1.2294e-06
1.22781e-06
1.22918e-06
1.23013e-06
1.22987e-06
1.22982e-06
1.23159e-06
1.23024e-06
1.23014e-06
1.23101e-06
1.2296e-06
1.22961e-06
1.22885e-06
1.2286e-06
1.22793e-06
1.22639e-06
1.22683e-06
1.22549e-06
1.22632e-06
1.22807e-06
)
;

boundaryField
{
    inlet
    {
        type            calculated;
        value           uniform -1.225e-06;
    }
    outlet
    {
        type            calculated;
        value           uniform 1.22678e-06;
    }
    yzfaces
    {
        type            empty;
    }
}


// ************************************************************************* //
