/*--------------------------------*- C++ -*----------------------------------*\
| =========                 |                                                 |
| \\      /  F ield         | foam-extend: Open Source CFD                    |
|  \\    /   O peration     | Version:     5.0                                |
|   \\  /    A nd           | Web:         http://www.foam-extend.org         |
|    \\/     M anipulation  |                                                 |
\*---------------------------------------------------------------------------*/
FoamFile
{
    version     2.0;
    format      ascii;
    class       surfaceScalarField;
    location    "1";
    object      phi.water;
}
// * * * * * * * * * * * * * * * * * * * * * * * * * * * * * * * * * * * * * //

dimensions      [0 3 -1 0 0 0 0];

internalField   nonuniform List<scalar> 
99
(
3.83318e-07
6.70084e-07
9.32021e-07
1.18155e-06
1.41089e-06
1.65041e-06
1.87571e-06
2.09478e-06
2.31726e-06
2.55229e-06
2.77238e-06
3.01855e-06
3.25151e-06
3.50325e-06
3.76705e-06
4.03713e-06
4.33067e-06
4.62039e-06
4.91738e-06
5.20854e-06
5.46646e-06
5.6895e-06
5.87205e-06
5.99962e-06
6.07203e-06
6.11902e-06
6.13564e-06
6.159e-06
6.17142e-06
6.16539e-06
6.15862e-06
6.16222e-06
6.16519e-06
6.16234e-06
6.16599e-06
6.17201e-06
6.18186e-06
6.17962e-06
6.18697e-06
6.17996e-06
6.18528e-06
6.1923e-06
6.18788e-06
6.18778e-06
6.1927e-06
6.19804e-06
6.18817e-06
6.19624e-06
6.195e-06
6.19383e-06
6.18896e-06
6.18778e-06
6.19188e-06
6.19368e-06
6.19772e-06
6.19763e-06
6.19526e-06
6.1912e-06
6.18516e-06
6.19123e-06
6.19957e-06
6.20039e-06
6.19682e-06
6.20968e-06
6.20423e-06
6.19706e-06
6.19537e-06
6.19916e-06
6.19048e-06
6.2025e-06
6.19351e-06
6.19468e-06
6.18847e-06
6.19502e-06
6.1884e-06
6.18932e-06
6.18581e-06
6.17386e-06
6.17724e-06
6.17293e-06
6.16695e-06
6.17547e-06
6.1778e-06
6.17181e-06
6.17101e-06
6.17928e-06
6.17185e-06
6.17105e-06
6.17351e-06
6.16699e-06
6.16959e-06
6.16586e-06
6.16529e-06
6.1644e-06
6.15498e-06
6.15601e-06
6.15081e-06
6.15326e-06
6.15645e-06
)
;

boundaryField
{
    inlet
    {
        type            fixedValue;
        value           uniform 0;
    }
    outlet
    {
        type            calculated;
        value           uniform 6.14574e-06;
    }
    yzfaces
    {
        type            empty;
    }
}


// ************************************************************************* //
