/*--------------------------------*- C++ -*----------------------------------*\
| =========                 |                                                 |
| \\      /  F ield         | foam-extend: Open Source CFD                    |
|  \\    /   O peration     | Version:     5.0                                |
|   \\  /    A nd           | Web:         http://www.foam-extend.org         |
|    \\/     M anipulation  |                                                 |
\*---------------------------------------------------------------------------*/
FoamFile
{
    version     2.0;
    format      ascii;
    class       surfaceScalarField;
    location    "1";
    object      phi.water;
}
// * * * * * * * * * * * * * * * * * * * * * * * * * * * * * * * * * * * * * //

dimensions      [0 3 -1 0 0 0 0];

internalField   nonuniform List<scalar> 
99
(
3.85153e-07
6.70183e-07
9.39088e-07
1.17641e-06
1.41285e-06
1.64029e-06
1.86595e-06
2.09389e-06
2.311e-06
2.54313e-06
2.76671e-06
3.00085e-06
3.24236e-06
3.48137e-06
3.73903e-06
4.01252e-06
4.29167e-06
4.5786e-06
4.86937e-06
5.15034e-06
5.41353e-06
5.62731e-06
5.80848e-06
5.93317e-06
6.01004e-06
6.05793e-06
6.08335e-06
6.09773e-06
6.10216e-06
6.09939e-06
6.09976e-06
6.09592e-06
6.10616e-06
6.10782e-06
6.1037e-06
6.11005e-06
6.10518e-06
6.11432e-06
6.11475e-06
6.11471e-06
6.10701e-06
6.10569e-06
6.11322e-06
6.11851e-06
6.11503e-06
6.11568e-06
6.11899e-06
6.11954e-06
6.11906e-06
6.11253e-06
6.11813e-06
6.11804e-06
6.11409e-06
6.11471e-06
6.1129e-06
6.11458e-06
6.12142e-06
6.10321e-06
6.10425e-06
6.10418e-06
6.09901e-06
6.10313e-06
6.11222e-06
6.10695e-06
6.1155e-06
6.11176e-06
6.10922e-06
6.11057e-06
6.10972e-06
6.11112e-06
6.10662e-06
6.10444e-06
6.09967e-06
6.10844e-06
6.11103e-06
6.10894e-06
6.1159e-06
6.11982e-06
6.11554e-06
6.11767e-06
6.11792e-06
6.12171e-06
6.11691e-06
6.10481e-06
6.10428e-06
6.10372e-06
6.10832e-06
6.1042e-06
6.10487e-06
6.10096e-06
6.10192e-06
6.08919e-06
6.08934e-06
6.09043e-06
6.08357e-06
6.09113e-06
6.08705e-06
6.08558e-06
6.08115e-06
)
;

boundaryField
{
    inlet
    {
        type            fixedValue;
        value           uniform 0;
    }
    outlet
    {
        type            calculated;
        value           uniform 6.09001e-06;
    }
    yzfaces
    {
        type            empty;
    }
}


// ************************************************************************* //
