/*--------------------------------*- C++ -*----------------------------------*\
| =========                 |                                                 |
| \\      /  F ield         | foam-extend: Open Source CFD                    |
|  \\    /   O peration     | Version:     5.0                                |
|   \\  /    A nd           | Web:         http://www.foam-extend.org         |
|    \\/     M anipulation  |                                                 |
\*---------------------------------------------------------------------------*/
FoamFile
{
    version     2.0;
    format      ascii;
    class       volScalarField;
    location    "1";
    object      S.gas;
}
// * * * * * * * * * * * * * * * * * * * * * * * * * * * * * * * * * * * * * //

dimensions      [0 0 0 0 0 0 0];

internalField   nonuniform List<scalar> 
100
(
0.578291
0.487081
0.431715
0.392432
0.361755
0.335982
0.314584
0.295709
0.278708
0.262527
0.247874
0.233443
0.219829
0.206293
0.192768
0.179077
0.165077
0.15084
0.136177
0.121288
0.106518
0.0924191
0.0798088
0.069495
0.0619093
0.0568373
0.0537488
0.0519808
0.0510346
0.0505267
0.0502622
0.0501381
0.0500804
0.0500431
0.0500223
0.0500027
0.0500027
0.0500003
0.0499989
0.0500019
0.0499992
0.0499906
0.0499845
0.049994
0.0499988
0.0499922
0.0499863
0.0500029
0.0500052
0.050012
0.050005
0.0500124
0.050009
0.0500069
0.0499983
0.0500016
0.0500072
0.0500011
0.0500067
0.0500004
0.0499922
0.0499915
0.0499911
0.0499967
0.0499837
0.0499761
0.0499873
0.0499868
0.0499956
0.0499976
0.0499964
0.0499957
0.0500028
0.0500066
0.0499979
0.0500002
0.0500039
0.0500023
0.0500032
0.0499917
0.0499928
0.0499987
0.0500002
0.0500003
0.0500031
0.0500072
0.0500048
0.0500022
0.0499983
0.0499993
0.0499857
0.0499895
0.0499895
0.0499924
0.0499994
0.0500008
0.0500002
0.0500058
0.0499992
0.0499902
)
;

boundaryField
{
    inlet
    {
        type            calculated;
        value           uniform 1;
    }
    outlet
    {
        type            calculated;
        value           uniform 0.0499902;
    }
    yzfaces
    {
        type            empty;
    }
}


// ************************************************************************* //
