/*--------------------------------*- C++ -*----------------------------------*\
| =========                 |                                                 |
| \\      /  F ield         | foam-extend: Open Source CFD                    |
|  \\    /   O peration     | Version:     5.0                                |
|   \\  /    A nd           | Web:         http://www.foam-extend.org         |
|    \\/     M anipulation  |                                                 |
\*---------------------------------------------------------------------------*/
FoamFile
{
    version     2.0;
    format      ascii;
    class       volScalarField;
    location    "1";
    object      S.gas;
}
// * * * * * * * * * * * * * * * * * * * * * * * * * * * * * * * * * * * * * //

dimensions      [0 0 0 0 0 0 0];

internalField   nonuniform List<scalar> 
100
(
0.578025
0.486963
0.430741
0.392274
0.361669
0.336359
0.314712
0.2957
0.278745
0.262555
0.247751
0.2333
0.219467
0.206019
0.192509
0.178834
0.164991
0.15078
0.136152
0.121262
0.106454
0.0923722
0.0797338
0.0694365
0.061861
0.0568061
0.0537398
0.0519777
0.0510252
0.0505268
0.0502717
0.0501361
0.0500683
0.0500359
0.0500195
0.049996
0.0499942
0.0499962
0.0500035
0.0499997
0.0500111
0.0500082
0.0500021
0.0500004
0.049992
0.0499984
0.0499966
0.0499991
0.0500014
0.0499999
0.0499969
0.0499901
0.0499896
0.0499918
0.0499919
0.049996
0.0499858
0.0499806
0.0499802
0.0499911
0.0499991
0.0500087
0.050003
0.0500032
0.0500086
0.0500091
0.0500134
0.0500197
0.0500117
0.0500007
0.0499973
0.0499934
0.0499897
0.0499868
0.0499801
0.0499762
0.0499813
0.0499864
0.0499874
0.0499884
0.0499838
0.0499922
0.0500081
0.0500103
0.0500222
0.0500275
0.0500142
0.0500207
0.0500279
0.0500285
0.0500215
0.0500165
0.0500126
0.0500102
0.0500146
0.0500251
0.0500093
0.050024
0.0500262
0.0500408
)
;

boundaryField
{
    inlet
    {
        type            calculated;
        value           uniform 1;
    }
    outlet
    {
        type            calculated;
        value           uniform 0.0500408;
    }
    yzfaces
    {
        type            empty;
    }
}


// ************************************************************************* //
