/*--------------------------------*- C++ -*----------------------------------*\
| =========                 |                                                 |
| \\      /  F ield         | foam-extend: Open Source CFD                    |
|  \\    /   O peration     | Version:     5.0                                |
|   \\  /    A nd           | Web:         http://www.foam-extend.org         |
|    \\/     M anipulation  |                                                 |
\*---------------------------------------------------------------------------*/
FoamFile
{
    version     2.0;
    format      ascii;
    class       volVectorField;
    location    "1";
    object      U.gas;
}
// * * * * * * * * * * * * * * * * * * * * * * * * * * * * * * * * * * * * * //

dimensions      [0 1 -1 0 0 0 0];

internalField   nonuniform List<vector> 
100
(
(0.00850846 0 0)
(0.00978641 0 0)
(0.0106967 0 0)
(0.0114124 0 0)
(0.0119601 0 0)
(0.0124022 0 0)
(0.0127722 0 0)
(0.0130575 0 0)
(0.0132843 0 0)
(0.0134936 0 0)
(0.0136065 0 0)
(0.013693 0 0)
(0.0137117 0 0)
(0.0136736 0 0)
(0.0135792 0 0)
(0.0133966 0 0)
(0.0131195 0 0)
(0.0127303 0 0)
(0.0122033 0 0)
(0.0115138 0 0)
(0.0106476 0 0)
(0.00962916 0 0)
(0.00852944 0 0)
(0.00745327 0 0)
(0.00651457 0 0)
(0.00579825 0 0)
(0.0053122 0 0)
(0.00501906 0 0)
(0.00485613 0 0)
(0.00476644 0 0)
(0.00471241 0 0)
(0.00468304 0 0)
(0.00467172 0 0)
(0.00466632 0 0)
(0.00466523 0 0)
(0.00466878 0 0)
(0.00467177 0 0)
(0.00467487 0 0)
(0.00467735 0 0)
(0.00467619 0 0)
(0.0046756 0 0)
(0.00467926 0 0)
(0.00467918 0 0)
(0.00467795 0 0)
(0.00468121 0 0)
(0.004685 0 0)
(0.00468172 0 0)
(0.0046795 0 0)
(0.00468358 0 0)
(0.00468416 0 0)
(0.0046835 0 0)
(0.00468013 0 0)
(0.00468211 0 0)
(0.00468614 0 0)
(0.00468832 0 0)
(0.00468791 0 0)
(0.00468698 0 0)
(0.00468487 0 0)
(0.00468021 0 0)
(0.00468042 0 0)
(0.00468445 0 0)
(0.0046881 0 0)
(0.00468864 0 0)
(0.00469085 0 0)
(0.00469313 0 0)
(0.00468852 0 0)
(0.00468377 0 0)
(0.00468392 0 0)
(0.00468242 0 0)
(0.00468439 0 0)
(0.00468605 0 0)
(0.00468403 0 0)
(0.00468198 0 0)
(0.00468191 0 0)
(0.00468336 0 0)
(0.00468309 0 0)
(0.00468311 0 0)
(0.00467665 0 0)
(0.00467101 0 0)
(0.00466877 0 0)
(0.00466224 0 0)
(0.00466118 0 0)
(0.00466629 0 0)
(0.00466807 0 0)
(0.00466735 0 0)
(0.00467089 0 0)
(0.00467172 0 0)
(0.00466882 0 0)
(0.00467028 0 0)
(0.0046685 0 0)
(0.00466569 0 0)
(0.00466344 0 0)
(0.00466188 0 0)
(0.00465956 0 0)
(0.00465596 0 0)
(0.00465442 0 0)
(0.00465266 0 0)
(0.00465179 0 0)
(0.00465695 0 0)
(0.00465871 0 0)
)
;

boundaryField
{
    inlet
    {
        type            fixedValue;
        value           uniform (0.005 0 0);
    }
    outlet
    {
        type            zeroGradient;
    }
    yzfaces
    {
        type            empty;
    }
}


// ************************************************************************* //
