/*--------------------------------*- C++ -*----------------------------------*\
| =========                 |                                                 |
| \\      /  F ield         | foam-extend: Open Source CFD                    |
|  \\    /   O peration     | Version:     5.0                                |
|   \\  /    A nd           | Web:         http://www.foam-extend.org         |
|    \\/     M anipulation  |                                                 |
\*---------------------------------------------------------------------------*/
FoamFile
{
    version     2.0;
    format      ascii;
    class       volVectorField;
    location    "1";
    object      U.water;
}
// * * * * * * * * * * * * * * * * * * * * * * * * * * * * * * * * * * * * * //

dimensions      [0 1 -1 0 0 0 0];

internalField   nonuniform List<vector> 
100
(
(0.000174209 0 0)
(0.000431709 0 0)
(0.000656159 0 0)
(0.000863193 0 0)
(0.00105636 0 0)
(0.00124594 0 0)
(0.00143084 0 0)
(0.00161587 0 0)
(0.00179824 0 0)
(0.00198144 0 0)
(0.00216861 0 0)
(0.00235487 0 0)
(0.00254889 0 0)
(0.00274571 0 0)
(0.00294808 0 0)
(0.00316453 0 0)
(0.0033904 0 0)
(0.00362196 0 0)
(0.00385913 0 0)
(0.00409354 0 0)
(0.00431508 0 0)
(0.00450682 0 0)
(0.00466403 0 0)
(0.00478797 0 0)
(0.00487123 0 0)
(0.00492406 0 0)
(0.00495744 0 0)
(0.00497641 0 0)
(0.00498539 0 0)
(0.00498626 0 0)
(0.00498486 0 0)
(0.00498113 0 0)
(0.00498025 0 0)
(0.00498375 0 0)
(0.00498329 0 0)
(0.00498625 0 0)
(0.00498886 0 0)
(0.00498949 0 0)
(0.00499228 0 0)
(0.00499207 0 0)
(0.00498721 0 0)
(0.00498273 0 0)
(0.00498507 0 0)
(0.00499022 0 0)
(0.00499145 0 0)
(0.00499036 0 0)
(0.00499366 0 0)
(0.00499691 0 0)
(0.00499667 0 0)
(0.00499318 0 0)
(0.0049915 0 0)
(0.00499294 0 0)
(0.00499157 0 0)
(0.00499104 0 0)
(0.00499122 0 0)
(0.00499175 0 0)
(0.0049969 0 0)
(0.00499282 0 0)
(0.00498361 0 0)
(0.00498163 0 0)
(0.00497842 0 0)
(0.00497729 0 0)
(0.00498343 0 0)
(0.00498755 0 0)
(0.00498978 0 0)
(0.00499046 0 0)
(0.00498612 0 0)
(0.00498427 0 0)
(0.00498526 0 0)
(0.00498769 0 0)
(0.00498779 0 0)
(0.00498551 0 0)
(0.00498238 0 0)
(0.00498392 0 0)
(0.00499062 0 0)
(0.00499229 0 0)
(0.00499274 0 0)
(0.00499671 0 0)
(0.00499752 0 0)
(0.00499647 0 0)
(0.00499635 0 0)
(0.00499705 0 0)
(0.00499701 0 0)
(0.00499057 0 0)
(0.00498349 0 0)
(0.00498072 0 0)
(0.00498223 0 0)
(0.00498298 0 0)
(0.00498248 0 0)
(0.00498147 0 0)
(0.00498019 0 0)
(0.00497587 0 0)
(0.0049702 0 0)
(0.004971 0 0)
(0.00496995 0 0)
(0.00497164 0 0)
(0.00497289 0 0)
(0.00496843 0 0)
(0.00496561 0 0)
(0.00496778 0 0)
)
;

boundaryField
{
    inlet
    {
        type            fixedValue;
        value           uniform (0 0 0);
    }
    outlet
    {
        type            zeroGradient;
    }
    yzfaces
    {
        type            empty;
    }
}


// ************************************************************************* //
