/*--------------------------------*- C++ -*----------------------------------*\
| =========                 |                                                 |
| \\      /  F ield         | foam-extend: Open Source CFD                    |
|  \\    /   O peration     | Version:     5.0                                |
|   \\  /    A nd           | Web:         http://www.foam-extend.org         |
|    \\/     M anipulation  |                                                 |
\*---------------------------------------------------------------------------*/
FoamFile
{
    version     2.0;
    format      ascii;
    class       volVectorField;
    location    "1";
    object      U.water;
}
// * * * * * * * * * * * * * * * * * * * * * * * * * * * * * * * * * * * * * //

dimensions      [0 1 -1 0 0 0 0];

internalField   nonuniform List<vector> 
100
(
(0.000173446 0 0)
(0.000430889 0 0)
(0.000653729 0 0)
(0.00086262 0 0)
(0.00105818 0 0)
(0.00124863 0 0)
(0.00143859 0 0)
(0.00162044 0 0)
(0.00180104 0 0)
(0.00198724 0 0)
(0.00217394 0 0)
(0.00236335 0 0)
(0.00255966 0 0)
(0.00275845 0 0)
(0.00296908 0 0)
(0.0031859 0 0)
(0.00341448 0 0)
(0.0036533 0 0)
(0.00389398 0 0)
(0.00413366 0 0)
(0.00435716 0 0)
(0.00455236 0 0)
(0.00471441 0 0)
(0.00483967 0 0)
(0.00492428 0 0)
(0.00497485 0 0)
(0.00500084 0 0)
(0.00501673 0 0)
(0.0050316 0 0)
(0.0050362 0 0)
(0.0050317 0 0)
(0.00502845 0 0)
(0.00502909 0 0)
(0.00502903 0 0)
(0.00503184 0 0)
(0.00503736 0 0)
(0.00504339 0 0)
(0.00504665 0 0)
(0.00504905 0 0)
(0.00504934 0 0)
(0.00504803 0 0)
(0.00505119 0 0)
(0.00505152 0 0)
(0.0050504 0 0)
(0.00505281 0 0)
(0.00505758 0 0)
(0.00505523 0 0)
(0.00505301 0 0)
(0.00505564 0 0)
(0.00505598 0 0)
(0.0050544 0 0)
(0.00505169 0 0)
(0.00505394 0 0)
(0.00505833 0 0)
(0.00506092 0 0)
(0.00506149 0 0)
(0.00506014 0 0)
(0.00505776 0 0)
(0.00505324 0 0)
(0.00505208 0 0)
(0.00505676 0 0)
(0.00506155 0 0)
(0.0050618 0 0)
(0.00506381 0 0)
(0.00506553 0 0)
(0.00506185 0 0)
(0.00505797 0 0)
(0.00505753 0 0)
(0.00505629 0 0)
(0.00505775 0 0)
(0.00505876 0 0)
(0.00505633 0 0)
(0.00505403 0 0)
(0.0050534 0 0)
(0.00505476 0 0)
(0.00505522 0 0)
(0.00505539 0 0)
(0.00504782 0 0)
(0.00504207 0 0)
(0.00503943 0 0)
(0.00503326 0 0)
(0.00503283 0 0)
(0.00503756 0 0)
(0.00503894 0 0)
(0.00503832 0 0)
(0.00504184 0 0)
(0.00504268 0 0)
(0.00503973 0 0)
(0.00504132 0 0)
(0.00504024 0 0)
(0.00503737 0 0)
(0.00503587 0 0)
(0.00503379 0 0)
(0.00503194 0 0)
(0.00502738 0 0)
(0.0050251 0 0)
(0.00502325 0 0)
(0.0050222 0 0)
(0.00502747 0 0)
(0.00502837 0 0)
)
;

boundaryField
{
    inlet
    {
        type            fixedValue;
        value           uniform (0 0 0);
    }
    outlet
    {
        type            zeroGradient;
    }
    yzfaces
    {
        type            empty;
    }
}


// ************************************************************************* //
