/*--------------------------------*- C++ -*----------------------------------*\
| =========                 |                                                 |
| \\      /  F ield         | foam-extend: Open Source CFD                    |
|  \\    /   O peration     | Version:     5.0                                |
|   \\  /    A nd           | Web:         http://www.foam-extend.org         |
|    \\/     M anipulation  |                                                 |
\*---------------------------------------------------------------------------*/
FoamFile
{
    version     2.0;
    format      ascii;
    class       volScalarField;
    location    "1.597586870925";
    object      alpha.gas;
}
// * * * * * * * * * * * * * * * * * * * * * * * * * * * * * * * * * * * * * //

dimensions      [0 0 0 0 0 0 0];

internalField   nonuniform List<scalar> 
100
(
0.127148
0.109632
0.098495
0.0909142
0.0847641
0.0794756
0.0749406
0.070887
0.0671261
0.0636217
0.0601838
0.0567367
0.0533794
0.0504024
0.0429399
0.0385868
0.0365853
0.0359182
0.0357306
0.0355856
0.03524
0.0346476
0.0337975
0.0327066
0.0313744
0.0298599
0.0281611
0.0262808
0.0242229
0.0220436
0.0197969
0.0176005
0.0155779
0.0138523
0.0125052
0.0115475
0.0109175
0.0105273
0.0102988
0.0101676
0.0100915
0.0100488
0.0100253
0.0100139
0.0100074
0.0100043
0.0100036
0.0100013
0.00999815
0.00999701
0.00999531
0.00999544
0.00999929
0.01
0.0100008
0.0100019
0.0100024
0.0100011
0.0100009
0.0100006
0.00999882
0.00999765
0.00999979
0.0100009
0.0100033
0.010001
0.0100004
0.0100001
0.00999961
0.010001
0.0100007
0.010002
0.0100031
0.0100016
0.010001
0.0100009
0.0100012
0.010001
0.00999992
0.0099994
0.00999946
0.0100009
0.00999907
0.00999986
0.0100014
0.0100007
0.0100024
0.010002
0.0100011
0.0100019
0.0100003
0.01
0.00999826
0.00999917
0.00999696
0.00999828
0.00999739
0.00999868
0.00999839
0.00999946
)
;

boundaryField
{
    inlet
    {
        type            fixedValue;
        value           uniform 0.2;
    }
    outlet
    {
        type            zeroGradient;
    }
    yzfaces
    {
        type            empty;
    }
}


// ************************************************************************* //
