/*--------------------------------*- C++ -*----------------------------------*\
| =========                 |                                                 |
| \\      /  F ield         | foam-extend: Open Source CFD                    |
|  \\    /   O peration     | Version:     5.0                                |
|   \\  /    A nd           | Web:         http://www.foam-extend.org         |
|    \\/     M anipulation  |                                                 |
\*---------------------------------------------------------------------------*/
FoamFile
{
    version     2.0;
    format      ascii;
    class       volScalarField;
    location    "1.597586870925";
    object      Cl.water;
}
// * * * * * * * * * * * * * * * * * * * * * * * * * * * * * * * * * * * * * //

dimensions      [0 0 0 0 0 0 0];

internalField   nonuniform List<scalar> 
100
(
0
0.00496368
0.0087558
0.00650348
0.00693518
0.00928803
0.00733412
0.00763841
0.00997818
0.0126186
0.00791802
0.00917471
0.0126694
0.0155342
0.00519078
0.0121972
0.0169378
0.018976
0.0196197
0.0198319
0.0199137
0.0199987
0.020112
0.0202492
0.0204138
0.0205968
0.0208154
0.0210254
0.021248
0.0215144
0.0217876
0.0220633
0.0223127
0.0225427
0.0226964
0.0228112
0.0228739
0.0229349
0.0229602
0.02296
0.0229848
0.0229905
0.0229891
0.0230032
0.0229786
0.0230136
0.0229982
0.0230076
0.0230108
0.0229773
0.0229897
0.0229875
0.0229751
0.0229868
0.0229963
0.0229922
0.0230088
0.0230046
0.0230224
0.022997
0.0229908
0.0229792
0.0229787
0.0229829
0.0229706
0.0230086
0.0230052
0.0229834
0.022964
0.0229829
0.0229811
0.0230026
0.0230133
0.0230295
0.0230193
0.0230144
0.0230027
0.0229957
0.023014
0.0230162
0.0230312
0.0230229
0.0230109
0.0230063
0.0230081
0.0229988
0.0229958
0.0230071
0.0229995
0.0230007
0.0230004
0.0229993
0.0229722
0.0229743
0.0229764
0.0229423
0.0229524
0.0229538
0.0229567
0.0229648
)
;

boundaryField
{
    inlet
    {
        type            fixedValue;
        value           uniform 0;
    }
    outlet
    {
        type            zeroGradient;
    }
    yzfaces
    {
        type            empty;
    }
}


// ************************************************************************* //
