/*--------------------------------*- C++ -*----------------------------------*\
| =========                 |                                                 |
| \\      /  F ield         | foam-extend: Open Source CFD                    |
|  \\    /   O peration     | Version:     5.0                                |
|   \\  /    A nd           | Web:         http://www.foam-extend.org         |
|    \\/     M anipulation  |                                                 |
\*---------------------------------------------------------------------------*/
FoamFile
{
    version     2.0;
    format      ascii;
    class       volScalarField;
    location    "1.597586870925";
    object      H2O.gas;
}
// * * * * * * * * * * * * * * * * * * * * * * * * * * * * * * * * * * * * * //

dimensions      [0 0 0 0 0 0 0];

internalField   nonuniform List<scalar> 
100
(
4.84362e-10
5.47412e-08
3.72513e-07
1.37716e-06
3.83372e-06
9.15782e-06
1.91821e-05
3.67388e-05
6.64434e-05
0.000118089
0.000188965
0.0002933
0.000470094
0.000776878
0.000827916
0.00142344
0.00244707
0.00380154
0.00537096
0.00711867
0.00897738
0.0109029
0.012818
0.0146489
0.0162874
0.0176571
0.0186622
0.0191808
0.0191748
0.0186853
0.0177261
0.0164389
0.0149842
0.0135891
0.012398
0.0115094
0.0109006
0.0105271
0.0103
0.0101619
0.010091
0.0100462
0.0100205
0.0100156
0.010001
0.010011
0.0100051
0.0100074
0.0100076
0.00998892
0.00999202
0.00998906
0.00998735
0.00999181
0.00999287
0.00999192
0.0099998
0.00999698
0.0100063
0.00999747
0.00999533
0.00998993
0.00998997
0.009994
0.00999018
0.0100068
0.0100043
0.00999517
0.00998849
0.0100015
0.00999703
0.0100064
0.0100092
0.0100145
0.0100114
0.0100082
0.0100041
0.0100001
0.0100068
0.0100071
0.0100131
0.0100088
0.0100014
0.00999871
0.0100009
0.00999857
0.00999795
0.0100006
0.0099943
0.00999729
0.00999978
0.0100021
0.00999012
0.00999133
0.00998983
0.00997529
0.00998072
0.00998099
0.00998282
0.00998418
)
;

boundaryField
{
    inlet
    {
        type            fixedValue;
        value           uniform 0;
    }
    outlet
    {
        type            zeroGradient;
    }
    yzfaces
    {
        type            empty;
    }
}


// ************************************************************************* //
