/*--------------------------------*- C++ -*----------------------------------*\
| =========                 |                                                 |
| \\      /  F ield         | foam-extend: Open Source CFD                    |
|  \\    /   O peration     | Version:     5.0                                |
|   \\  /    A nd           | Web:         http://www.foam-extend.org         |
|    \\/     M anipulation  |                                                 |
\*---------------------------------------------------------------------------*/
FoamFile
{
    version     2.0;
    format      ascii;
    class       volScalarField;
    location    "1.597586870925";
    object      Na.water;
}
// * * * * * * * * * * * * * * * * * * * * * * * * * * * * * * * * * * * * * //

dimensions      [0 0 0 0 0 0 0];

internalField   nonuniform List<scalar> 
100
(
0
0.0049652
0.00875941
0.00650254
0.0069368
0.00929302
0.00733485
0.00763428
0.00997465
0.0126189
0.0079154
0.00917415
0.0126672
0.0155329
0.00518937
0.012195
0.016942
0.0189803
0.019627
0.0198394
0.0199156
0.0199996
0.0201033
0.020243
0.02041
0.0206002
0.0208191
0.0210329
0.0212563
0.0215246
0.0217932
0.0220645
0.0223095
0.0225339
0.0226886
0.0228041
0.0228703
0.0229381
0.0229601
0.0229588
0.0229767
0.0229744
0.0229814
0.0229915
0.0229748
0.0230046
0.0229946
0.0229978
0.023003
0.02297
0.0229884
0.022984
0.0229818
0.0229886
0.0229942
0.0229905
0.0230031
0.0230037
0.0230223
0.0229955
0.0229973
0.0229859
0.0229822
0.0229883
0.0229686
0.0230091
0.0230093
0.0229888
0.0229761
0.0229976
0.0229816
0.0230001
0.0230027
0.0230166
0.0230145
0.0230109
0.0229982
0.0229901
0.0230101
0.0230122
0.0230306
0.0230231
0.023015
0.0230102
0.0230161
0.0230063
0.0229954
0.0229985
0.0229855
0.0229824
0.0229959
0.0230032
0.0229793
0.0229852
0.0229819
0.0229513
0.0229634
0.022964
0.0229707
0.0229702
)
;

boundaryField
{
    inlet
    {
        type            fixedValue;
        value           uniform 0;
    }
    outlet
    {
        type            zeroGradient;
    }
    yzfaces
    {
        type            empty;
    }
}


// ************************************************************************* //
