/*--------------------------------*- C++ -*----------------------------------*\
| =========                 |                                                 |
| \\      /  F ield         | foam-extend: Open Source CFD                    |
|  \\    /   O peration     | Version:     5.0                                |
|   \\  /    A nd           | Web:         http://www.foam-extend.org         |
|    \\/     M anipulation  |                                                 |
\*---------------------------------------------------------------------------*/
FoamFile
{
    version     2.0;
    format      ascii;
    class       surfaceScalarField;
    location    "1.597586870925";
    object      phi;
}
// * * * * * * * * * * * * * * * * * * * * * * * * * * * * * * * * * * * * * //

dimensions      [0 3 -1 0 0 0 0];

internalField   nonuniform List<scalar> 
99
(
1.22814e-06
1.21536e-06
1.21718e-06
1.21581e-06
1.2139e-06
1.21366e-06
1.21055e-06
1.21137e-06
1.21279e-06
1.21751e-06
1.21821e-06
1.22092e-06
1.22299e-06
1.21992e-06
1.2187e-06
1.21932e-06
1.22293e-06
1.22066e-06
1.21979e-06
1.21794e-06
1.21857e-06
1.21937e-06
1.21859e-06
1.21823e-06
1.21943e-06
1.22063e-06
1.22087e-06
1.21884e-06
1.21966e-06
1.22066e-06
1.22291e-06
1.22246e-06
1.22162e-06
1.21965e-06
1.21975e-06
1.21835e-06
1.22046e-06
1.21926e-06
1.21858e-06
1.21893e-06
1.21981e-06
1.22057e-06
1.21852e-06
1.21811e-06
1.21875e-06
1.21699e-06
1.21873e-06
1.22003e-06
1.21798e-06
1.21876e-06
1.2183e-06
1.21753e-06
1.21874e-06
1.22091e-06
1.22094e-06
1.22027e-06
1.22128e-06
1.22049e-06
1.22082e-06
1.21976e-06
1.22057e-06
1.21916e-06
1.21882e-06
1.21632e-06
1.21821e-06
1.21878e-06
1.21816e-06
1.21906e-06
1.21963e-06
1.2197e-06
1.22218e-06
1.22238e-06
1.2229e-06
1.22129e-06
1.22263e-06
1.22216e-06
1.22321e-06
1.22379e-06
1.22154e-06
1.22247e-06
1.22283e-06
1.22051e-06
1.22118e-06
1.22036e-06
1.21988e-06
1.2187e-06
1.22006e-06
1.22081e-06
1.22141e-06
1.22183e-06
1.22253e-06
1.22006e-06
1.22128e-06
1.2212e-06
1.21922e-06
1.22077e-06
1.22109e-06
1.22361e-06
1.22422e-06
)
;

boundaryField
{
    inlet
    {
        type            calculated;
        value           uniform -1.225e-06;
    }
    outlet
    {
        type            calculated;
        value           uniform 1.22601e-06;
    }
    yzfaces
    {
        type            empty;
    }
}


// ************************************************************************* //
