/*--------------------------------*- C++ -*----------------------------------*\
| =========                 |                                                 |
| \\      /  F ield         | foam-extend: Open Source CFD                    |
|  \\    /   O peration     | Version:     5.0                                |
|   \\  /    A nd           | Web:         http://www.foam-extend.org         |
|    \\/     M anipulation  |                                                 |
\*---------------------------------------------------------------------------*/
FoamFile
{
    version     2.0;
    format      ascii;
    class       surfaceScalarField;
    location    "1.597586870925";
    object      phi.water;
}
// * * * * * * * * * * * * * * * * * * * * * * * * * * * * * * * * * * * * * //

dimensions      [0 3 -1 0 0 0 0];

internalField   nonuniform List<scalar> 
99
(
2.74965e-07
4.6977e-07
6.57737e-07
8.18523e-07
9.78123e-07
1.14353e-06
1.30442e-06
1.47205e-06
1.64779e-06
1.83083e-06
2.02588e-06
2.24612e-06
2.47939e-06
2.65916e-06
3.31415e-06
3.74698e-06
3.96812e-06
4.03196e-06
4.05e-06
4.05689e-06
4.09248e-06
4.15187e-06
4.23061e-06
4.33652e-06
4.47219e-06
4.62532e-06
4.79494e-06
4.9735e-06
5.17289e-06
5.37149e-06
5.56664e-06
5.72882e-06
5.85829e-06
5.9476e-06
6.01708e-06
6.05461e-06
6.09062e-06
6.09795e-06
6.10588e-06
6.11306e-06
6.11926e-06
6.12598e-06
6.11516e-06
6.11401e-06
6.11599e-06
6.10476e-06
6.11367e-06
6.11786e-06
6.11208e-06
6.11986e-06
6.11715e-06
6.11605e-06
6.1224e-06
6.13217e-06
6.13272e-06
6.12767e-06
6.13102e-06
6.12458e-06
6.12598e-06
6.12328e-06
6.1289e-06
6.12383e-06
6.12188e-06
6.11023e-06
6.1157e-06
6.11346e-06
6.11367e-06
6.12273e-06
6.12394e-06
6.12192e-06
6.13327e-06
6.13128e-06
6.13117e-06
6.12185e-06
6.1303e-06
6.13023e-06
6.138e-06
6.13965e-06
6.12576e-06
6.12843e-06
6.13024e-06
6.12195e-06
6.12824e-06
6.1249e-06
6.1227e-06
6.1181e-06
6.12456e-06
6.12914e-06
6.1331e-06
6.13319e-06
6.13479e-06
6.12479e-06
6.13398e-06
6.13312e-06
6.12796e-06
6.13861e-06
6.13872e-06
6.15093e-06
6.15327e-06
)
;

boundaryField
{
    inlet
    {
        type            fixedValue;
        value           uniform 0;
    }
    outlet
    {
        type            calculated;
        value           uniform 6.16211e-06;
    }
    yzfaces
    {
        type            empty;
    }
}


// ************************************************************************* //
