/*--------------------------------*- C++ -*----------------------------------*\
| =========                 |                                                 |
| \\      /  F ield         | foam-extend: Open Source CFD                    |
|  \\    /   O peration     | Version:     5.0                                |
|   \\  /    A nd           | Web:         http://www.foam-extend.org         |
|    \\/     M anipulation  |                                                 |
\*---------------------------------------------------------------------------*/
FoamFile
{
    version     2.0;
    format      ascii;
    class       volScalarField;
    location    "1.597586870925";
    object      S.gas;
}
// * * * * * * * * * * * * * * * * * * * * * * * * * * * * * * * * * * * * * //

dimensions      [0 0 0 0 0 0 0];

internalField   nonuniform List<scalar> 
100
(
0.635741
0.548158
0.492475
0.454571
0.42382
0.397378
0.374703
0.354435
0.335631
0.318109
0.300919
0.283683
0.266897
0.252012
0.2147
0.192934
0.182927
0.179591
0.178653
0.177928
0.1762
0.173238
0.168987
0.163533
0.156872
0.149299
0.140805
0.131404
0.121115
0.110218
0.0989843
0.0880027
0.0778894
0.0692613
0.0625262
0.0577373
0.0545874
0.0526364
0.0514942
0.0508378
0.0504573
0.0502442
0.0501267
0.0500694
0.0500372
0.0500216
0.0500178
0.0500066
0.0499907
0.0499851
0.0499766
0.0499772
0.0499965
0.0500001
0.0500039
0.0500093
0.0500119
0.0500054
0.0500045
0.0500029
0.0499941
0.0499883
0.049999
0.0500047
0.0500165
0.0500048
0.0500019
0.0500005
0.0499981
0.0500048
0.0500034
0.0500102
0.0500154
0.050008
0.0500048
0.0500045
0.0500058
0.0500051
0.0499996
0.049997
0.0499973
0.0500047
0.0499953
0.0499993
0.0500069
0.0500037
0.0500118
0.0500102
0.0500054
0.0500096
0.0500014
0.0500001
0.0499913
0.0499959
0.0499848
0.0499914
0.0499869
0.0499934
0.049992
0.0499973
)
;

boundaryField
{
    inlet
    {
        type            calculated;
        value           uniform 1;
    }
    outlet
    {
        type            calculated;
        value           uniform 0.0499973;
    }
    yzfaces
    {
        type            empty;
    }
}


// ************************************************************************* //
