/*--------------------------------*- C++ -*----------------------------------*\
| =========                 |                                                 |
| \\      /  F ield         | foam-extend: Open Source CFD                    |
|  \\    /   O peration     | Version:     5.0                                |
|   \\  /    A nd           | Web:         http://www.foam-extend.org         |
|    \\/     M anipulation  |                                                 |
\*---------------------------------------------------------------------------*/
FoamFile
{
    version     2.0;
    format      ascii;
    class       volVectorField;
    location    "1.597586870925";
    object      U.gas;
}
// * * * * * * * * * * * * * * * * * * * * * * * * * * * * * * * * * * * * * //

dimensions      [0 1 -1 0 0 0 0];

internalField   nonuniform List<vector> 
100
(
(0.00780277 0 0)
(0.00884554 0 0)
(0.00960627 0 0)
(0.0101996 0 0)
(0.0107023 0 0)
(0.0111551 0 0)
(0.0115391 0 0)
(0.0118865 0 0)
(0.0122286 0 0)
(0.012558 0 0)
(0.0128712 0 0)
(0.0131536 0 0)
(0.0133974 0 0)
(0.0135151 0 0)
(0.0143076 0 0)
(0.0137898 0 0)
(0.013216 0 0)
(0.0128585 0 0)
(0.0127093 0 0)
(0.0126703 0 0)
(0.0126709 0 0)
(0.0126648 0 0)
(0.0126194 0 0)
(0.0125209 0 0)
(0.0123795 0 0)
(0.0121763 0 0)
(0.0118984 0 0)
(0.0115206 0 0)
(0.0110455 0 0)
(0.0104627 0 0)
(0.00976759 0 0)
(0.00895996 0 0)
(0.00808083 0 0)
(0.00720684 0 0)
(0.0064253 0 0)
(0.00579948 0 0)
(0.00535152 0 0)
(0.00505752 0 0)
(0.00487164 0 0)
(0.00476434 0 0)
(0.00470582 0 0)
(0.00467316 0 0)
(0.00465097 0 0)
(0.00463572 0 0)
(0.00463013 0 0)
(0.00462501 0 0)
(0.00462405 0 0)
(0.00462928 0 0)
(0.00462626 0 0)
(0.00462239 0 0)
(0.00462241 0 0)
(0.00461866 0 0)
(0.00462006 0 0)
(0.00462826 0 0)
(0.00463305 0 0)
(0.0046329 0 0)
(0.00463311 0 0)
(0.00463386 0 0)
(0.00463276 0 0)
(0.00463127 0 0)
(0.00463066 0 0)
(0.0046282 0 0)
(0.00462403 0 0)
(0.00462002 0 0)
(0.00461971 0 0)
(0.00462517 0 0)
(0.00462397 0 0)
(0.00462472 0 0)
(0.0046277 0 0)
(0.00462886 0 0)
(0.00463443 0 0)
(0.00463861 0 0)
(0.00464021 0 0)
(0.00463882 0 0)
(0.00463762 0 0)
(0.004639 0 0)
(0.00464017 0 0)
(0.00464366 0 0)
(0.00464094 0 0)
(0.00463777 0 0)
(0.00463906 0 0)
(0.00463518 0 0)
(0.00463272 0 0)
(0.00463161 0 0)
(0.00463007 0 0)
(0.00462756 0 0)
(0.0046277 0 0)
(0.0046322 0 0)
(0.00463459 0 0)
(0.00463671 0 0)
(0.00463866 0 0)
(0.00463367 0 0)
(0.00463152 0 0)
(0.00463383 0 0)
(0.00463054 0 0)
(0.00462851 0 0)
(0.00463227 0 0)
(0.00463711 0 0)
(0.00464419 0 0)
(0.00464891 0 0)
)
;

boundaryField
{
    inlet
    {
        type            fixedValue;
        value           uniform (0.005 0 0);
    }
    outlet
    {
        type            zeroGradient;
    }
    yzfaces
    {
        type            empty;
    }
}


// ************************************************************************* //
