/*--------------------------------*- C++ -*----------------------------------*\
| =========                 |                                                 |
| \\      /  F ield         | foam-extend: Open Source CFD                    |
|  \\    /   O peration     | Version:     5.0                                |
|   \\  /    A nd           | Web:         http://www.foam-extend.org         |
|    \\/     M anipulation  |                                                 |
\*---------------------------------------------------------------------------*/
FoamFile
{
    version     2.0;
    format      ascii;
    class       volVectorField;
    location    "1.597586870925";
    object      U.water;
}
// * * * * * * * * * * * * * * * * * * * * * * * * * * * * * * * * * * * * * //

dimensions      [0 1 -1 0 0 0 0];

internalField   nonuniform List<vector> 
100
(
(0.000125924 0 0)
(0.000305363 0 0)
(0.000460098 0 0)
(0.000602941 0 0)
(0.000733683 0 0)
(0.000865208 0 0)
(0.000997327 0 0)
(0.00113031 0 0)
(0.00126884 0 0)
(0.00141517 0 0)
(0.00157018 0 0)
(0.00173998 0 0)
(0.00192587 0 0)
(0.00211175 0 0)
(0.00242576 0 0)
(0.00286845 0 0)
(0.00314125 0 0)
(0.00326379 0 0)
(0.00329942 0 0)
(0.0033094 0 0)
(0.00332587 0 0)
(0.00336415 0 0)
(0.00342099 0 0)
(0.00349745 0 0)
(0.0035971 0 0)
(0.00371669 0 0)
(0.0038493 0 0)
(0.00398935 0 0)
(0.00414021 0 0)
(0.00430114 0 0)
(0.00446167 0 0)
(0.00460753 0 0)
(0.00472668 0 0)
(0.00481663 0 0)
(0.00488184 0 0)
(0.00492522 0 0)
(0.00495555 0 0)
(0.00497466 0 0)
(0.00498079 0 0)
(0.00498576 0 0)
(0.00499143 0 0)
(0.00499662 0 0)
(0.00499497 0 0)
(0.00499048 0 0)
(0.00499126 0 0)
(0.00498911 0 0)
(0.0049891 0 0)
(0.00499537 0 0)
(0.00499391 0 0)
(0.00499138 0 0)
(0.00499206 0 0)
(0.00498962 0 0)
(0.0049905 0 0)
(0.00499733 0 0)
(0.00500183 0 0)
(0.00500045 0 0)
(0.00500116 0 0)
(0.0050016 0 0)
(0.00500067 0 0)
(0.00499917 0 0)
(0.00499866 0 0)
(0.00499749 0 0)
(0.00499396 0 0)
(0.00498809 0 0)
(0.0049868 0 0)
(0.0049918 0 0)
(0.00499175 0 0)
(0.00499231 0 0)
(0.0049953 0 0)
(0.00499661 0 0)
(0.00500181 0 0)
(0.00500734 0 0)
(0.00500879 0 0)
(0.00500653 0 0)
(0.00500602 0 0)
(0.0050078 0 0)
(0.00500898 0 0)
(0.00501229 0 0)
(0.00500886 0 0)
(0.0050062 0 0)
(0.0050089 0 0)
(0.00500488 0 0)
(0.00500148 0 0)
(0.00500122 0 0)
(0.0049985 0 0)
(0.00499508 0 0)
(0.00499546 0 0)
(0.00499974 0 0)
(0.00500252 0 0)
(0.0050046 0 0)
(0.00500689 0 0)
(0.00500336 0 0)
(0.0050008 0 0)
(0.00500312 0 0)
(0.00499886 0 0)
(0.00499804 0 0)
(0.00500187 0 0)
(0.00500771 0 0)
(0.00501406 0 0)
(0.00501897 0 0)
)
;

boundaryField
{
    inlet
    {
        type            fixedValue;
        value           uniform (0 0 0);
    }
    outlet
    {
        type            zeroGradient;
    }
    yzfaces
    {
        type            empty;
    }
}


// ************************************************************************* //
