/*--------------------------------*- C++ -*----------------------------------*\
| =========                 |                                                 |
| \\      /  F ield         | foam-extend: Open Source CFD                    |
|  \\    /   O peration     | Version:     5.0                                |
|   \\  /    A nd           | Web:         http://www.foam-extend.org         |
|    \\/     M anipulation  |                                                 |
\*---------------------------------------------------------------------------*/
FoamFile
{
    version     2.0;
    format      ascii;
    class       volScalarField;
    location    "8";
    object      alpha.gas;
}
// * * * * * * * * * * * * * * * * * * * * * * * * * * * * * * * * * * * * * //

dimensions      [0 0 0 0 0 0 0];

internalField   nonuniform List<scalar> 
100
(
0.166094
0.153679
0.14648
0.139932
0.134857
0.129885
0.125872
0.122517
0.119046
0.115837
0.112613
0.110097
0.107455
0.104824
0.102186
0.0999911
0.0979029
0.0962722
0.0944581
0.0928943
0.0912225
0.0897597
0.0886234
0.0875251
0.0868135
0.0865548
0.0860151
0.0852068
0.0841299
0.0830664
0.0820121
0.0809417
0.0798245
0.0789706
0.0779932
0.0772523
0.0763603
0.0756281
0.0749722
0.0743588
0.0735777
0.0727739
0.072062
0.071394
0.0707758
0.0702593
0.069667
0.0690037
0.0684058
0.0678707
0.0672474
0.0666909
0.0662043
0.0657929
0.0652932
0.064788
0.064272
0.0637469
0.0631773
0.0627329
0.0622896
0.0618635
0.0614857
0.0609989
0.060532
0.0600961
0.0596695
0.0592502
0.0587895
0.0583815
0.0580196
0.0576197
0.0571674
0.0567749
0.0564005
0.0559422
0.0555809
0.0552677
0.0549088
0.054584
0.0542007
0.0538386
0.0534686
0.0531539
0.0527803
0.0525229
0.0522406
0.0519305
0.0515821
0.051198
0.0508134
0.0504445
0.0500403
0.0496915
0.04932
0.0488971
0.048456
0.0480303
0.0475698
0.0470866
)
;

boundaryField
{
    inlet
    {
        type            fixedValue;
        value           uniform 0.2;
    }
    outlet
    {
        type            zeroGradient;
    }
    yzfaces
    {
        type            empty;
    }
}


// ************************************************************************* //
