/*--------------------------------*- C++ -*----------------------------------*\
| =========                 |                                                 |
| \\      /  F ield         | foam-extend: Open Source CFD                    |
|  \\    /   O peration     | Version:     5.0                                |
|   \\  /    A nd           | Web:         http://www.foam-extend.org         |
|    \\/     M anipulation  |                                                 |
\*---------------------------------------------------------------------------*/
FoamFile
{
    version     2.0;
    format      ascii;
    class       volScalarField;
    location    "8";
    object      CO2.gas;
}
// * * * * * * * * * * * * * * * * * * * * * * * * * * * * * * * * * * * * * //

dimensions      [0 0 0 0 0 0 0];

internalField   nonuniform List<scalar> 
100
(
0.165771
0.15338
0.146194
0.13966
0.134595
0.129632
0.125627
0.122279
0.118815
0.115612
0.112394
0.109882
0.107246
0.10462
0.101987
0.0997964
0.0977122
0.0960847
0.0942742
0.0927133
0.0910448
0.0895849
0.0884508
0.0873546
0.0866444
0.0863863
0.0858476
0.0850408
0.083966
0.0829047
0.0818524
0.0807841
0.0796691
0.0788168
0.0778413
0.0771019
0.0762116
0.0754808
0.0748262
0.074214
0.0734345
0.0726322
0.0719217
0.071255
0.070638
0.0701225
0.0695314
0.0688693
0.0682726
0.0677385
0.0671165
0.066561
0.0660753
0.0656647
0.065166
0.0646618
0.0641468
0.0636228
0.0630543
0.0626107
0.0621683
0.061743
0.061366
0.0608801
0.0604141
0.059979
0.0595533
0.0591348
0.058675
0.0582678
0.0579066
0.0575074
0.0570561
0.0566643
0.0562907
0.0558333
0.0554726
0.0551601
0.0548018
0.0544777
0.0540951
0.0537337
0.0533645
0.0530504
0.0526775
0.0524207
0.0521389
0.0518294
0.0514817
0.0510983
0.0507144
0.0503463
0.0499429
0.0495948
0.0492239
0.0488019
0.0483616
0.0479368
0.0474771
0.0469949
)
;

boundaryField
{
    inlet
    {
        type            fixedValue;
        value           uniform 0.2;
    }
    outlet
    {
        type            zeroGradient;
    }
    yzfaces
    {
        type            empty;
    }
}


// ************************************************************************* //
