/*--------------------------------*- C++ -*----------------------------------*\
| =========                 |                                                 |
| \\      /  F ield         | foam-extend: Open Source CFD                    |
|  \\    /   O peration     | Version:     5.0                                |
|   \\  /    A nd           | Web:         http://www.foam-extend.org         |
|    \\/     M anipulation  |                                                 |
\*---------------------------------------------------------------------------*/
FoamFile
{
    version     2.0;
    format      ascii;
    class       volScalarField;
    location    "8";
    object      CO2.water;
}
// * * * * * * * * * * * * * * * * * * * * * * * * * * * * * * * * * * * * * //

dimensions      [0 0 0 0 0 0 0];

internalField   nonuniform List<scalar> 
100
(
0.000890522
0.0012166
0.00140569
0.00157765
0.00171094
0.00184154
0.00194694
0.00203505
0.00212621
0.0022105
0.00229517
0.00236127
0.00243065
0.00249975
0.00256905
0.00262669
0.00268153
0.00272436
0.00277201
0.00281308
0.00285699
0.00289541
0.00292526
0.0029541
0.00297279
0.00297959
0.00299376
0.00301499
0.00304328
0.00307121
0.0030989
0.00312701
0.00315635
0.00317878
0.00320445
0.00322391
0.00324734
0.00326657
0.0032838
0.00329991
0.00332042
0.00334154
0.00336023
0.00337778
0.00339401
0.00340758
0.00342314
0.00344056
0.00345626
0.00347032
0.00348669
0.0035013
0.00351408
0.00352489
0.00353801
0.00355128
0.00356483
0.00357862
0.00359359
0.00360526
0.0036169
0.00362809
0.00363801
0.0036508
0.00366306
0.00367451
0.00368572
0.00369673
0.00370883
0.00371954
0.00372905
0.00373955
0.00375143
0.00376174
0.00377157
0.00378361
0.0037931
0.00380133
0.00381075
0.00381929
0.00382935
0.00383886
0.00384858
0.00385684
0.00386666
0.00387342
0.00388083
0.00388898
0.00389813
0.00390822
0.00391832
0.00392801
0.00393862
0.00394778
0.00395754
0.00396865
0.00398023
0.00399141
0.00400351
0.0040162
)
;

boundaryField
{
    inlet
    {
        type            fixedValue;
        value           uniform 0;
    }
    outlet
    {
        type            zeroGradient;
    }
    yzfaces
    {
        type            empty;
    }
}


// ************************************************************************* //
