/*--------------------------------*- C++ -*----------------------------------*\
| =========                 |                                                 |
| \\      /  F ield         | foam-extend: Open Source CFD                    |
|  \\    /   O peration     | Version:     5.0                                |
|   \\  /    A nd           | Web:         http://www.foam-extend.org         |
|    \\/     M anipulation  |                                                 |
\*---------------------------------------------------------------------------*/
FoamFile
{
    version     2.0;
    format      ascii;
    class       volScalarField;
    location    "8";
    object      H2O.gas;
}
// * * * * * * * * * * * * * * * * * * * * * * * * * * * * * * * * * * * * * //

dimensions      [0 0 0 0 0 0 0];

internalField   nonuniform List<scalar> 
100
(
0.000323464
0.000299285
0.000285265
0.000272514
0.000262631
0.000252947
0.000245132
0.000238599
0.000231839
0.00022559
0.000219311
0.00021441
0.000209266
0.000204142
0.000199003
0.00019473
0.000190663
0.000187487
0.000183954
0.000180909
0.000177653
0.000174804
0.000172591
0.000170453
0.000169067
0.000168563
0.000167512
0.000165938
0.00016384
0.000161769
0.000159716
0.000157632
0.000155456
0.000153793
0.00015189
0.000150447
0.000148709
0.000147284
0.000146006
0.000144812
0.000143291
0.000141725
0.000140339
0.000139038
0.000137834
0.000136828
0.000135675
0.000134383
0.000133218
0.000132176
0.000130962
0.000129879
0.000128931
0.00012813
0.000127157
0.000126173
0.000125168
0.000124145
0.000123036
0.00012217
0.000121307
0.000120477
0.000119742
0.000118794
0.000117884
0.000117035
0.000116205
0.000115388
0.000114491
0.000113696
0.000112992
0.000112213
0.000111332
0.000110567
0.000109838
0.000108946
0.000108242
0.000107632
0.000106933
0.000106301
0.000105554
0.000104849
0.000104129
0.000103516
0.000102788
0.000102287
0.000101737
0.000101133
0.000100455
9.97066e-05
9.89575e-05
9.82392e-05
9.74521e-05
9.67728e-05
9.60493e-05
9.52257e-05
9.43667e-05
9.35376e-05
9.26407e-05
9.16999e-05
)
;

boundaryField
{
    inlet
    {
        type            fixedValue;
        value           uniform 0;
    }
    outlet
    {
        type            zeroGradient;
    }
    yzfaces
    {
        type            empty;
    }
}


// ************************************************************************* //
