/*--------------------------------*- C++ -*----------------------------------*\
| =========                 |                                                 |
| \\      /  F ield         | foam-extend: Open Source CFD                    |
|  \\    /   O peration     | Version:     5.0                                |
|   \\  /    A nd           | Web:         http://www.foam-extend.org         |
|    \\/     M anipulation  |                                                 |
\*---------------------------------------------------------------------------*/
FoamFile
{
    version     2.0;
    format      ascii;
    class       surfaceScalarField;
    location    "8";
    object      phi;
}
// * * * * * * * * * * * * * * * * * * * * * * * * * * * * * * * * * * * * * //

dimensions      [0 3 -1 0 0 0 0];

internalField   nonuniform List<scalar> 
99
(
1.21475e-06
1.21614e-06
1.20688e-06
1.20971e-06
1.19927e-06
1.19568e-06
1.203e-06
1.19418e-06
1.19784e-06
1.19138e-06
1.18837e-06
1.1824e-06
1.1818e-06
1.1737e-06
1.17738e-06
1.1754e-06
1.17558e-06
1.17804e-06
1.17255e-06
1.17175e-06
1.17493e-06
1.18021e-06
1.1797e-06
1.1762e-06
1.17546e-06
1.16949e-06
1.17306e-06
1.17307e-06
1.17253e-06
1.16788e-06
1.16824e-06
1.16886e-06
1.17259e-06
1.17164e-06
1.17454e-06
1.17471e-06
1.17959e-06
1.17702e-06
1.17678e-06
1.17558e-06
1.1756e-06
1.17618e-06
1.17669e-06
1.17598e-06
1.1765e-06
1.17537e-06
1.17711e-06
1.17893e-06
1.17625e-06
1.17638e-06
1.17602e-06
1.17705e-06
1.17609e-06
1.17349e-06
1.17307e-06
1.17666e-06
1.17782e-06
1.17722e-06
1.17696e-06
1.17808e-06
1.17935e-06
1.17934e-06
1.17788e-06
1.17933e-06
1.17799e-06
1.17865e-06
1.18048e-06
1.17797e-06
1.17827e-06
1.17696e-06
1.17429e-06
1.17284e-06
1.17302e-06
1.17053e-06
1.17134e-06
1.17186e-06
1.17274e-06
1.1734e-06
1.1737e-06
1.17319e-06
1.17272e-06
1.17204e-06
1.17362e-06
1.1748e-06
1.17603e-06
1.17509e-06
1.17517e-06
1.17187e-06
1.17174e-06
1.17267e-06
1.16987e-06
1.16861e-06
1.16903e-06
1.16649e-06
1.16658e-06
1.16564e-06
1.16725e-06
1.16718e-06
1.1667e-06
)
;

boundaryField
{
    inlet
    {
        type            calculated;
        value           uniform -1.225e-06;
    }
    outlet
    {
        type            calculated;
        value           uniform 1.1675e-06;
    }
    yzfaces
    {
        type            empty;
    }
}


// ************************************************************************* //
