/*--------------------------------*- C++ -*----------------------------------*\
| =========                 |                                                 |
| \\      /  F ield         | foam-extend: Open Source CFD                    |
|  \\    /   O peration     | Version:     5.0                                |
|   \\  /    A nd           | Web:         http://www.foam-extend.org         |
|    \\/     M anipulation  |                                                 |
\*---------------------------------------------------------------------------*/
FoamFile
{
    version     2.0;
    format      ascii;
    class       surfaceScalarField;
    location    "8";
    object      phi.water;
}
// * * * * * * * * * * * * * * * * * * * * * * * * * * * * * * * * * * * * * //

dimensions      [0 3 -1 0 0 0 0];

internalField   nonuniform List<scalar> 
99
(
7.14318e-08
1.24998e-07
1.59439e-07
1.9978e-07
2.32e-07
2.69992e-07
3.06655e-07
3.35703e-07
3.71169e-07
4.03937e-07
4.4358e-07
4.73028e-07
5.08083e-07
5.44058e-07
5.88719e-07
6.25772e-07
6.64383e-07
6.94758e-07
7.29934e-07
7.62545e-07
8.03859e-07
8.40447e-07
8.68167e-07
8.9443e-07
9.13399e-07
9.1467e-07
9.30097e-07
9.51413e-07
9.7985e-07
1.00669e-06
1.03719e-06
1.06978e-06
1.10932e-06
1.13573e-06
1.17273e-06
1.19659e-06
1.2336e-06
1.25642e-06
1.27972e-06
1.30114e-06
1.3329e-06
1.36339e-06
1.39419e-06
1.42088e-06
1.44733e-06
1.46835e-06
1.49528e-06
1.52608e-06
1.55076e-06
1.57465e-06
1.60243e-06
1.62932e-06
1.65341e-06
1.66656e-06
1.69334e-06
1.72433e-06
1.74893e-06
1.77645e-06
1.80726e-06
1.83141e-06
1.8586e-06
1.88221e-06
1.90068e-06
1.92879e-06
1.95486e-06
1.98123e-06
2.0089e-06
2.02943e-06
2.05793e-06
2.07985e-06
2.09631e-06
2.11743e-06
2.14722e-06
2.16686e-06
2.19157e-06
2.22279e-06
2.24838e-06
2.26978e-06
2.29521e-06
2.31601e-06
2.34089e-06
2.36383e-06
2.39285e-06
2.4178e-06
2.44641e-06
2.46296e-06
2.48222e-06
2.49811e-06
2.52202e-06
2.55241e-06
2.57437e-06
2.59945e-06
2.63111e-06
2.65092e-06
2.67888e-06
2.70972e-06
2.74795e-06
2.7794e-06
2.81607e-06
)
;

boundaryField
{
    inlet
    {
        type            fixedValue;
        value           uniform 0;
    }
    outlet
    {
        type            calculated;
        value           uniform 2.859e-06;
    }
    yzfaces
    {
        type            empty;
    }
}


// ************************************************************************* //
