/*--------------------------------*- C++ -*----------------------------------*\
| =========                 |                                                 |
| \\      /  F ield         | foam-extend: Open Source CFD                    |
|  \\    /   O peration     | Version:     5.0                                |
|   \\  /    A nd           | Web:         http://www.foam-extend.org         |
|    \\/     M anipulation  |                                                 |
\*---------------------------------------------------------------------------*/
FoamFile
{
    version     2.0;
    format      ascii;
    class       volVectorField;
    location    "8";
    object      U.gas;
}
// * * * * * * * * * * * * * * * * * * * * * * * * * * * * * * * * * * * * * //

dimensions      [0 1 -1 0 0 0 0];

internalField   nonuniform List<vector> 
100
(
(0.00598844 0 0)
(0.00643209 0 0)
(0.00670906 0 0)
(0.00698592 0 0)
(0.00720558 0 0)
(0.00741544 0 0)
(0.00763959 0 0)
(0.00782005 0 0)
(0.00800492 0 0)
(0.00818838 0 0)
(0.00835708 0 0)
(0.00848337 0 0)
(0.00863516 0 0)
(0.00878163 0 0)
(0.00894872 0 0)
(0.00910818 0 0)
(0.00925251 0 0)
(0.00938028 0 0)
(0.00950763 0 0)
(0.00959805 0 0)
(0.00973812 0 0)
(0.00988591 0 0)
(0.00999218 0 0)
(0.0100626 0 0)
(0.0100954 0 0)
(0.0100792 0 0)
(0.0101173 0 0)
(0.0102032 0 0)
(0.010294 0 0)
(0.0103585 0 0)
(0.0104262 0 0)
(0.0105201 0 0)
(0.0106341 0 0)
(0.0107115 0 0)
(0.0108053 0 0)
(0.0108757 0 0)
(0.010979 0 0)
(0.0110473 0 0)
(0.011088 0 0)
(0.0111315 0 0)
(0.0111953 0 0)
(0.0112669 0 0)
(0.0113292 0 0)
(0.0113812 0 0)
(0.01143 0 0)
(0.0114652 0 0)
(0.0115197 0 0)
(0.0115959 0 0)
(0.0116374 0 0)
(0.0116643 0 0)
(0.0117184 0 0)
(0.011765 0 0)
(0.0117996 0 0)
(0.0118105 0 0)
(0.0118388 0 0)
(0.0118918 0 0)
(0.0119583 0 0)
(0.0120029 0 0)
(0.0120421 0 0)
(0.0120731 0 0)
(0.0121183 0 0)
(0.0121536 0 0)
(0.0121689 0 0)
(0.0122111 0 0)
(0.0122436 0 0)
(0.0122666 0 0)
(0.0123075 0 0)
(0.012331 0 0)
(0.0123519 0 0)
(0.0123693 0 0)
(0.0123687 0 0)
(0.0123754 0 0)
(0.0123998 0 0)
(0.0124058 0 0)
(0.0124178 0 0)
(0.0124579 0 0)
(0.0124766 0 0)
(0.0124971 0 0)
(0.0125243 0 0)
(0.0125349 0 0)
(0.0125527 0 0)
(0.0125626 0 0)
(0.0125864 0 0)
(0.0126091 0 0)
(0.0126436 0 0)
(0.0126444 0 0)
(0.0126532 0 0)
(0.0126501 0 0)
(0.0126484 0 0)
(0.0126705 0 0)
(0.0126724 0 0)
(0.012659 0 0)
(0.0126696 0 0)
(0.0126614 0 0)
(0.0126597 0 0)
(0.0126704 0 0)
(0.0126846 0 0)
(0.0126997 0 0)
(0.0127066 0 0)
(0.0127172 0 0)
)
;

boundaryField
{
    inlet
    {
        type            fixedValue;
        value           uniform (0.005 0 0);
    }
    outlet
    {
        type            zeroGradient;
    }
    yzfaces
    {
        type            empty;
    }
}


// ************************************************************************* //
