/*--------------------------------*- C++ -*----------------------------------*\
| =========                 |                                                 |
| \\      /  F ield         | foam-extend: Open Source CFD                    |
|  \\    /   O peration     | Version:     5.0                                |
|   \\  /    A nd           | Web:         http://www.foam-extend.org         |
|    \\/     M anipulation  |                                                 |
\*---------------------------------------------------------------------------*/
FoamFile
{
    version     2.0;
    format      ascii;
    class       volVectorField;
    location    "8";
    object      U.water;
}
// * * * * * * * * * * * * * * * * * * * * * * * * * * * * * * * * * * * * * //

dimensions      [0 1 -1 0 0 0 0];

internalField   nonuniform List<vector> 
100
(
(3.45393e-05 0 0)
(8.03296e-05 0 0)
(0.000116728 0 0)
(0.000146651 0 0)
(0.000177009 0 0)
(0.000205018 0 0)
(0.00023533 0 0)
(0.000262622 0 0)
(0.000288771 0 0)
(0.000316898 0 0)
(0.000345686 0 0)
(0.000374529 0 0)
(0.000400754 0 0)
(0.000429715 0 0)
(0.000462015 0 0)
(0.000495769 0 0)
(0.000526331 0 0)
(0.000555298 0 0)
(0.000581315 0 0)
(0.000609258 0 0)
(0.000638859 0 0)
(0.000670606 0 0)
(0.000697548 0 0)
(0.000718969 0 0)
(0.000737228 0 0)
(0.000746796 0 0)
(0.000753612 0 0)
(0.000768546 0 0)
(0.000788379 0 0)
(0.000810929 0 0)
(0.000834349 0 0)
(0.000860094 0 0)
(0.000888961 0 0)
(0.000916589 0 0)
(0.000941644 0 0)
(0.000967069 0 0)
(0.000991386 0 0)
(0.00101624 0 0)
(0.00103531 0 0)
(0.00105398 0 0)
(0.00107529 0 0)
(0.00110018 0 0)
(0.00112515 0 0)
(0.00114866 0 0)
(0.0011703 0 0)
(0.00119013 0 0)
(0.00120962 0 0)
(0.00123279 0 0)
(0.00125561 0 0)
(0.00127598 0 0)
(0.00129662 0 0)
(0.00131886 0 0)
(0.00133996 0 0)
(0.00135584 0 0)
(0.00137177 0 0)
(0.00139507 0 0)
(0.00141774 0 0)
(0.00143917 0 0)
(0.00146247 0 0)
(0.00148512 0 0)
(0.00150586 0 0)
(0.00152653 0 0)
(0.00154438 0 0)
(0.00156303 0 0)
(0.00158489 0 0)
(0.00160624 0 0)
(0.00162848 0 0)
(0.00164845 0 0)
(0.00166819 0 0)
(0.00168891 0 0)
(0.00170495 0 0)
(0.00172035 0 0)
(0.00174072 0 0)
(0.00176096 0 0)
(0.00177921 0 0)
(0.00180124 0 0)
(0.00182468 0 0)
(0.00184427 0 0)
(0.00186302 0 0)
(0.00188226 0 0)
(0.00190089 0 0)
(0.00192042 0 0)
(0.00194109 0 0)
(0.00196337 0 0)
(0.00198472 0 0)
(0.00200382 0 0)
(0.00201866 0 0)
(0.00203314 0 0)
(0.00204924 0 0)
(0.00207119 0 0)
(0.00209277 0 0)
(0.00211228 0 0)
(0.00213488 0 0)
(0.00215629 0 0)
(0.0021761 0 0)
(0.00219969 0 0)
(0.00222742 0 0)
(0.00225609 0 0)
(0.00228404 0 0)
(0.00231456 0 0)
)
;

boundaryField
{
    inlet
    {
        type            fixedValue;
        value           uniform (0 0 0);
    }
    outlet
    {
        type            zeroGradient;
    }
    yzfaces
    {
        type            empty;
    }
}


// ************************************************************************* //
