/*--------------------------------*- C++ -*----------------------------------*\
| =========                 |                                                 |
| \\      /  F ield         | foam-extend: Open Source CFD                    |
|  \\    /   O peration     | Version:     5.0                                |
|   \\  /    A nd           | Web:         http://www.foam-extend.org         |
|    \\/     M anipulation  |                                                 |
\*---------------------------------------------------------------------------*/
FoamFile
{
    version     2.0;
    format      ascii;
    class       volScalarField;
    location    "7";
    object      alpha.gas;
}
// * * * * * * * * * * * * * * * * * * * * * * * * * * * * * * * * * * * * * //

dimensions      [0 0 0 0 0 0 0];

internalField   nonuniform List<scalar> 
100
(
0.184448
0.183248
0.15392
0.152863
0.153599
0.155686
0.152925
0.150277
0.151191
0.150137
0.149449
0.1485
0.14504
0.137361
0.133481
0.130747
0.128614
0.126307
0.124982
0.122571
0.11941
0.1173
0.117021
0.114709
0.113427
0.11328
0.111794
0.109414
0.108054
0.106572
0.105063
0.104599
0.102984
0.102115
0.101382
0.0998842
0.0993291
0.0979344
0.0961432
0.0946208
0.0929625
0.0918728
0.0906598
0.0904743
0.0896482
0.088287
0.0879659
0.0866277
0.0853633
0.0837359
0.0821027
0.080522
0.0788876
0.0775217
0.0760697
0.0744148
0.0726319
0.0710332
0.0692307
0.0669786
0.064682
0.0619168
0.05856
0.0543352
0.0485692
0.0394515
0.0208863
0.0243759
0.0256693
0.0261772
0.0265101
0.0268182
0.0271372
0.0274153
0.027659
0.0278584
0.0279899
0.0280968
0.0281344
0.0281602
0.0281624
0.0281413
0.0281082
0.0280761
0.0280454
0.0280244
0.0279992
0.0279796
0.0279509
0.0279056
0.0278618
0.0278139
0.0277657
0.0277171
0.0276331
0.0275441
0.0274466
0.0273193
0.0271376
0.0269327
)
;

boundaryField
{
    inlet
    {
        type            fixedValue;
        value           uniform 0.2;
    }
    outlet
    {
        type            zeroGradient;
    }
    yzfaces
    {
        type            empty;
    }
}


// ************************************************************************* //
