/*--------------------------------*- C++ -*----------------------------------*\
| =========                 |                                                 |
| \\      /  F ield         | foam-extend: Open Source CFD                    |
|  \\    /   O peration     | Version:     5.0                                |
|   \\  /    A nd           | Web:         http://www.foam-extend.org         |
|    \\/     M anipulation  |                                                 |
\*---------------------------------------------------------------------------*/
FoamFile
{
    version     2.0;
    format      ascii;
    class       volScalarField;
    location    "7";
    object      Cl.water;
}
// * * * * * * * * * * * * * * * * * * * * * * * * * * * * * * * * * * * * * //

dimensions      [0 0 0 0 0 0 0];

internalField   nonuniform List<scalar> 
100
(
0.00288705
0.00346958
0.00845621
0.00914344
0.00934322
0.00922784
0.00976627
0.0103317
0.0104223
0.0107071
0.010892
0.0110976
0.0117793
0.0131198
0.0137223
0.0143556
0.0147805
0.0151883
0.0155601
0.0160301
0.0165037
0.0170589
0.0171219
0.0174494
0.0176417
0.0177057
0.0179764
0.0183742
0.0186507
0.0189406
0.0193171
0.019521
0.0197956
0.0199131
0.0201399
0.020387
0.0204202
0.0207839
0.0211596
0.0214398
0.0217416
0.0219429
0.0221899
0.0223688
0.0225791
0.0227458
0.0229808
0.0231741
0.023461
0.0238034
0.0241047
0.0244103
0.024754
0.0250745
0.0253294
0.02563
0.0260378
0.0264371
0.0267874
0.0272414
0.0277172
0.0282811
0.0289676
0.0298581
0.0310376
0.0328906
0.0366733
0.0366817
0.0366084
0.0365512
0.0365055
0.036449
0.0363914
0.0363278
0.0362773
0.0362544
0.0362007
0.0361983
0.0361776
0.0361887
0.0361886
0.0361915
0.0361953
0.0362182
0.0362436
0.0362405
0.0362567
0.0362481
0.036228
0.0362264
0.0362382
0.0362516
0.0362567
0.0362678
0.0362915
0.0363325
0.0363426
0.0363606
0.0363904
0.0364316
)
;

boundaryField
{
    inlet
    {
        type            fixedValue;
        value           uniform 0;
    }
    outlet
    {
        type            zeroGradient;
    }
    yzfaces
    {
        type            empty;
    }
}


// ************************************************************************* //
