/*--------------------------------*- C++ -*----------------------------------*\
| =========                 |                                                 |
| \\      /  F ield         | foam-extend: Open Source CFD                    |
|  \\    /   O peration     | Version:     5.0                                |
|   \\  /    A nd           | Web:         http://www.foam-extend.org         |
|    \\/     M anipulation  |                                                 |
\*---------------------------------------------------------------------------*/
FoamFile
{
    version     2.0;
    format      ascii;
    class       volScalarField;
    location    "7";
    object      CO2.gas;
}
// * * * * * * * * * * * * * * * * * * * * * * * * * * * * * * * * * * * * * //

dimensions      [0 0 0 0 0 0 0];

internalField   nonuniform List<scalar> 
100
(
0.184089
0.182891
0.153621
0.152565
0.1533
0.155382
0.152627
0.149984
0.150897
0.149844
0.149158
0.148211
0.144757
0.137093
0.133221
0.130492
0.128363
0.126061
0.124739
0.122332
0.119178
0.117071
0.116793
0.114486
0.113206
0.113059
0.111576
0.109201
0.107844
0.106364
0.104858
0.104396
0.102784
0.101916
0.101185
0.0996897
0.0991357
0.0977437
0.095956
0.0944366
0.0927815
0.0916939
0.0904832
0.0902981
0.0894736
0.0881151
0.0877945
0.086459
0.0851971
0.0835729
0.0819428
0.0803652
0.0787339
0.0773708
0.0759216
0.0742698
0.0724904
0.0708949
0.0690959
0.0668481
0.0645561
0.0617962
0.0584459
0.0542294
0.0484746
0.0393747
0.0208456
0.0238528
0.0246794
0.0246738
0.0244422
0.0241227
0.0237538
0.0232601
0.0226664
0.021969
0.0211294
0.0202384
0.0192295
0.0181975
0.0171108
0.0159996
0.0148766
0.0137663
0.012669
0.0115942
0.0105536
0.00954563
0.00858532
0.00767112
0.00681132
0.00600599
0.00525791
0.00457317
0.00394355
0.00337283
0.00285702
0.00239563
0.0019874
0.00162463
)
;

boundaryField
{
    inlet
    {
        type            fixedValue;
        value           uniform 0.2;
    }
    outlet
    {
        type            zeroGradient;
    }
    yzfaces
    {
        type            empty;
    }
}


// ************************************************************************* //
