/*--------------------------------*- C++ -*----------------------------------*\
| =========                 |                                                 |
| \\      /  F ield         | foam-extend: Open Source CFD                    |
|  \\    /   O peration     | Version:     5.0                                |
|   \\  /    A nd           | Web:         http://www.foam-extend.org         |
|    \\/     M anipulation  |                                                 |
\*---------------------------------------------------------------------------*/
FoamFile
{
    version     2.0;
    format      ascii;
    class       volScalarField;
    location    "7";
    object      CO2.water;
}
// * * * * * * * * * * * * * * * * * * * * * * * * * * * * * * * * * * * * * //

dimensions      [0 0 0 0 0 0 0];

internalField   nonuniform List<scalar> 
100
(
0.000408462
0.000439995
0.00121026
0.00123803
0.0012187
0.0011639
0.00123641
0.00130596
0.00128194
0.00130964
0.00132771
0.00135262
0.0014435
0.00164519
0.0017471
0.0018189
0.00187492
0.00193551
0.00197031
0.00203363
0.00211665
0.00217208
0.0021794
0.00224012
0.0022738
0.00227767
0.00231669
0.00237919
0.00241492
0.00245385
0.00249348
0.00250566
0.00254808
0.0025709
0.00259016
0.0026295
0.00264408
0.00268071
0.00272775
0.00276774
0.00281129
0.00283991
0.00287177
0.00287664
0.00289834
0.00293409
0.00294253
0.00297767
0.00301088
0.00305362
0.00309652
0.00313803
0.00318096
0.00321684
0.00325497
0.00329844
0.00334527
0.00338725
0.0034346
0.00349375
0.00355406
0.00362669
0.00371486
0.00382582
0.00397726
0.00421673
0.00470434
0.00129608
0.000375941
0.000113483
3.47546e-05
1.06348e-05
3.24472e-06
9.89116e-07
3.03916e-07
9.46556e-08
2.99572e-08
9.68861e-09
3.19304e-09
1.07419e-09
3.67188e-10
1.27396e-10
4.47663e-11
1.59237e-11
5.72203e-12
2.07405e-12
7.57483e-13
2.78117e-13
1.02605e-13
3.80037e-14
1.41182e-14
5.25158e-15
1.95507e-15
7.27568e-16
2.70279e-16
1.00395e-16
3.72108e-17
1.37661e-17
5.08398e-18
1.84972e-18
)
;

boundaryField
{
    inlet
    {
        type            fixedValue;
        value           uniform 0;
    }
    outlet
    {
        type            zeroGradient;
    }
    yzfaces
    {
        type            empty;
    }
}


// ************************************************************************* //
