/*--------------------------------*- C++ -*----------------------------------*\
| =========                 |                                                 |
| \\      /  F ield         | foam-extend: Open Source CFD                    |
|  \\    /   O peration     | Version:     5.0                                |
|   \\  /    A nd           | Web:         http://www.foam-extend.org         |
|    \\/     M anipulation  |                                                 |
\*---------------------------------------------------------------------------*/
FoamFile
{
    version     2.0;
    format      ascii;
    class       volScalarField;
    location    "7";
    object      H2O.gas;
}
// * * * * * * * * * * * * * * * * * * * * * * * * * * * * * * * * * * * * * //

dimensions      [0 0 0 0 0 0 0];

internalField   nonuniform List<scalar> 
100
(
0.000359207
0.000356869
0.000299756
0.000297696
0.000299129
0.000303193
0.000297816
0.00029266
0.00029444
0.000292387
0.000291047
0.0002892
0.000282461
0.000267506
0.000259949
0.000254626
0.000250472
0.000245979
0.000243399
0.000238704
0.000232548
0.000228438
0.000227896
0.000223393
0.000220896
0.000220609
0.000217715
0.000213081
0.000210432
0.000207546
0.000204607
0.000203704
0.000200559
0.000198867
0.000197438
0.000194522
0.000193441
0.000190724
0.000187236
0.000184271
0.000181042
0.00017892
0.000176557
0.000176196
0.000174587
0.000171936
0.000171311
0.000168705
0.000166243
0.000163073
0.000159893
0.000156814
0.000153631
0.000150971
0.000148144
0.000144921
0.000141448
0.000138335
0.000134825
0.000130439
0.000125966
0.000120581
0.000114044
0.000105816
9.4587e-05
7.68307e-05
4.06755e-05
0.000527316
0.000993754
0.0015009
0.0020644
0.00269206
0.00339048
0.00415585
0.00499187
0.00589267
0.0068434
0.00785229
0.00888595
0.00996288
0.011052
0.0121411
0.0132334
0.014324
0.0153999
0.0164455
0.01747
0.0184357
0.0193509
0.0202163
0.02104
0.0218026
0.0225025
0.0231392
0.0236893
0.0241875
0.024594
0.0249214
0.025148
0.0253063
)
;

boundaryField
{
    inlet
    {
        type            fixedValue;
        value           uniform 0;
    }
    outlet
    {
        type            zeroGradient;
    }
    yzfaces
    {
        type            empty;
    }
}


// ************************************************************************* //
