/*--------------------------------*- C++ -*----------------------------------*\
| =========                 |                                                 |
| \\      /  F ield         | foam-extend: Open Source CFD                    |
|  \\    /   O peration     | Version:     5.0                                |
|   \\  /    A nd           | Web:         http://www.foam-extend.org         |
|    \\/     M anipulation  |                                                 |
\*---------------------------------------------------------------------------*/
FoamFile
{
    version     2.0;
    format      ascii;
    class       volScalarField;
    location    "7";
    object      H2O.water;
}
// * * * * * * * * * * * * * * * * * * * * * * * * * * * * * * * * * * * * * //

dimensions      [0 0 0 0 0 0 0];

internalField   nonuniform List<scalar> 
100
(
0.00936968
0.0093751
0.027955
0.0276134
0.0264911
0.0246931
0.0263108
0.0277442
0.0266805
0.0271314
0.0274285
0.0279442
0.0299525
0.0347495
0.0373185
0.0387232
0.0399493
0.0413858
0.0419209
0.04334
0.0454654
0.0464015
0.0465414
0.0481441
0.0490153
0.0490262
0.0499351
0.0514536
0.0522194
0.0530732
0.0537734
0.0538162
0.0548438
0.055457
0.0557131
0.056684
0.0571755
0.0577912
0.0587859
0.0597239
0.0607135
0.0613874
0.0620858
0.0619158
0.0622974
0.0633014
0.0631436
0.0640624
0.0647001
0.0656066
0.0665996
0.0675191
0.0684161
0.0691074
0.0700132
0.0710218
0.0719337
0.0726959
0.0737353
0.0750205
0.076287
0.0778771
0.079777
0.0821084
0.0853537
0.0905287
0.101038
0.100975
0.100742
0.10057
0.100415
0.100249
0.100115
0.0999302
0.0997813
0.0996586
0.0995083
0.0994827
0.0994193
0.0994793
0.0994842
0.0994969
0.0995329
0.0996042
0.0996476
0.0996214
0.0996667
0.0995762
0.0995421
0.0995638
0.0996241
0.0996679
0.0997013
0.0997224
0.0997945
0.0998996
0.099899
0.0999441
0.100047
0.100156
)
;

boundaryField
{
    inlet
    {
        type            fixedValue;
        value           uniform 0;
    }
    outlet
    {
        type            zeroGradient;
    }
    yzfaces
    {
        type            empty;
    }
}


// ************************************************************************* //
