/*--------------------------------*- C++ -*----------------------------------*\
| =========                 |                                                 |
| \\      /  F ield         | foam-extend: Open Source CFD                    |
|  \\    /   O peration     | Version:     5.0                                |
|   \\  /    A nd           | Web:         http://www.foam-extend.org         |
|    \\/     M anipulation  |                                                 |
\*---------------------------------------------------------------------------*/
FoamFile
{
    version     2.0;
    format      ascii;
    class       volScalarField;
    location    "7";
    object      Na.water;
}
// * * * * * * * * * * * * * * * * * * * * * * * * * * * * * * * * * * * * * //

dimensions      [0 0 0 0 0 0 0];

internalField   nonuniform List<scalar> 
100
(
0.00288664
0.00346776
0.00845804
0.00914216
0.00934812
0.00922951
0.00976194
0.0103414
0.0104242
0.0107152
0.0109032
0.0111054
0.0117848
0.0131249
0.0137316
0.0143553
0.0147814
0.0151834
0.0155665
0.0160251
0.0165039
0.0170676
0.017136
0.017457
0.0176424
0.0177106
0.017978
0.0183787
0.018661
0.0189605
0.019353
0.0195579
0.0198284
0.0199437
0.0201749
0.0204153
0.0204311
0.0208097
0.0211836
0.0214477
0.0217711
0.021957
0.0221928
0.0223645
0.0225771
0.0227317
0.0229672
0.0231582
0.0234647
0.0238004
0.0240965
0.0244106
0.0247613
0.0250795
0.0253326
0.025635
0.0260514
0.0264465
0.026812
0.0272658
0.0277597
0.0282983
0.0289806
0.0298725
0.0310623
0.0329125
0.0366983
0.0367018
0.0366308
0.0365711
0.0365119
0.0364497
0.0363987
0.0363295
0.0362775
0.0362488
0.0361963
0.0361848
0.0361528
0.0361732
0.0361676
0.0361666
0.0361749
0.0361884
0.0362079
0.0362073
0.0362266
0.036207
0.0361884
0.0361922
0.036211
0.0362337
0.0362437
0.0362627
0.0362791
0.0363255
0.0363398
0.0363613
0.0364116
0.0364681
)
;

boundaryField
{
    inlet
    {
        type            fixedValue;
        value           uniform 0;
    }
    outlet
    {
        type            zeroGradient;
    }
    yzfaces
    {
        type            empty;
    }
}


// ************************************************************************* //
