/*--------------------------------*- C++ -*----------------------------------*\
| =========                 |                                                 |
| \\      /  F ield         | foam-extend: Open Source CFD                    |
|  \\    /   O peration     | Version:     5.0                                |
|   \\  /    A nd           | Web:         http://www.foam-extend.org         |
|    \\/     M anipulation  |                                                 |
\*---------------------------------------------------------------------------*/
FoamFile
{
    version     2.0;
    format      ascii;
    class       surfaceScalarField;
    location    "7";
    object      phi;
}
// * * * * * * * * * * * * * * * * * * * * * * * * * * * * * * * * * * * * * //

dimensions      [0 3 -1 0 0 0 0];

internalField   nonuniform List<scalar> 
99
(
1.21986e-06
1.20992e-06
1.21378e-06
1.20179e-06
1.21066e-06
1.20912e-06
1.20907e-06
1.21444e-06
1.21709e-06
1.22624e-06
1.22466e-06
1.22332e-06
1.20411e-06
1.20434e-06
1.18805e-06
1.19134e-06
1.19129e-06
1.18722e-06
1.18927e-06
1.18537e-06
1.17497e-06
1.18234e-06
1.17352e-06
1.16784e-06
1.16626e-06
1.15809e-06
1.1472e-06
1.14977e-06
1.14639e-06
1.14258e-06
1.13826e-06
1.13546e-06
1.13213e-06
1.1302e-06
1.12969e-06
1.13407e-06
1.13173e-06
1.12943e-06
1.1364e-06
1.13402e-06
1.14095e-06
1.14229e-06
1.14679e-06
1.14797e-06
1.15364e-06
1.15577e-06
1.1597e-06
1.15737e-06
1.15132e-06
1.15407e-06
1.15636e-06
1.15634e-06
1.15735e-06
1.15796e-06
1.1596e-06
1.16035e-06
1.16067e-06
1.15772e-06
1.15673e-06
1.15707e-06
1.15403e-06
1.15648e-06
1.15113e-06
1.14844e-06
1.14848e-06
1.14801e-06
1.14791e-06
1.14663e-06
1.14599e-06
1.14729e-06
1.14698e-06
1.14848e-06
1.14725e-06
1.14844e-06
1.1483e-06
1.14695e-06
1.14793e-06
1.14651e-06
1.14868e-06
1.14834e-06
1.1482e-06
1.14799e-06
1.15091e-06
1.15134e-06
1.15224e-06
1.15125e-06
1.15044e-06
1.14997e-06
1.1497e-06
1.14902e-06
1.14943e-06
1.15158e-06
1.15416e-06
1.15186e-06
1.15231e-06
1.15197e-06
1.15072e-06
1.14899e-06
1.14893e-06
)
;

boundaryField
{
    inlet
    {
        type            calculated;
        value           uniform -1.225e-06;
    }
    outlet
    {
        type            calculated;
        value           uniform 1.14796e-06;
    }
    yzfaces
    {
        type            empty;
    }
}


// ************************************************************************* //
