/*--------------------------------*- C++ -*----------------------------------*\
| =========                 |                                                 |
| \\      /  F ield         | foam-extend: Open Source CFD                    |
|  \\    /   O peration     | Version:     5.0                                |
|   \\  /    A nd           | Web:         http://www.foam-extend.org         |
|    \\/     M anipulation  |                                                 |
\*---------------------------------------------------------------------------*/
FoamFile
{
    version     2.0;
    format      ascii;
    class       volVectorField;
    location    "7";
    object      U.gas;
}
// * * * * * * * * * * * * * * * * * * * * * * * * * * * * * * * * * * * * * //

dimensions      [0 1 -1 0 0 0 0];

internalField   nonuniform List<vector> 
100
(
(0.00542922 0 0)
(0.00542211 0 0)
(0.00642653 0 0)
(0.00643968 0 0)
(0.00637284 0 0)
(0.00633321 0 0)
(0.00643164 0 0)
(0.00655785 0 0)
(0.00652402 0 0)
(0.00660678 0 0)
(0.00666543 0 0)
(0.00670785 0 0)
(0.00682464 0 0)
(0.00710734 0 0)
(0.0072554 0 0)
(0.00734181 0 0)
(0.00746809 0 0)
(0.00758599 0 0)
(0.00764428 0 0)
(0.00777011 0 0)
(0.00791097 0 0)
(0.00800346 0 0)
(0.00802895 0 0)
(0.00812295 0 0)
(0.00816666 0 0)
(0.00815258 0 0)
(0.00817466 0 0)
(0.00828913 0 0)
(0.00836792 0 0)
(0.00844128 0 0)
(0.00851455 0 0)
(0.00851422 0 0)
(0.00860862 0 0)
(0.00863934 0 0)
(0.00867069 0 0)
(0.00878135 0 0)
(0.0088498 0 0)
(0.00891957 0 0)
(0.00906164 0 0)
(0.00920038 0 0)
(0.00933093 0 0)
(0.00944891 0 0)
(0.00955467 0 0)
(0.00959408 0 0)
(0.00969107 0 0)
(0.00983332 0 0)
(0.00986728 0 0)
(0.0100154 0 0)
(0.0100829 0 0)
(0.0101875 0 0)
(0.0103445 0 0)
(0.0104961 0 0)
(0.0106352 0 0)
(0.0107476 0 0)
(0.0108853 0 0)
(0.0110366 0 0)
(0.0112058 0 0)
(0.0113216 0 0)
(0.011466 0 0)
(0.0116561 0 0)
(0.0118395 0 0)
(0.0120731 0 0)
(0.0123529 0 0)
(0.0126546 0 0)
(0.0130839 0 0)
(0.0137771 0 0)
(0.0159005 0 0)
(0.00840408 0 0)
(0.00964802 0 0)
(0.0100398 0 0)
(0.0101837 0 0)
(0.0102732 0 0)
(0.0103486 0 0)
(0.0104258 0 0)
(0.0104963 0 0)
(0.0105481 0 0)
(0.0105978 0 0)
(0.0106278 0 0)
(0.010661 0 0)
(0.0106793 0 0)
(0.0106841 0 0)
(0.010684 0 0)
(0.0106931 0 0)
(0.0107013 0 0)
(0.0106996 0 0)
(0.0106918 0 0)
(0.0106804 0 0)
(0.0106679 0 0)
(0.01066 0 0)
(0.0106513 0 0)
(0.0106389 0 0)
(0.0106404 0 0)
(0.0106519 0 0)
(0.0106416 0 0)
(0.0106253 0 0)
(0.0106083 0 0)
(0.0105815 0 0)
(0.0105487 0 0)
(0.0105159 0 0)
(0.0104707 0 0)
)
;

boundaryField
{
    inlet
    {
        type            fixedValue;
        value           uniform (0.005 0 0);
    }
    outlet
    {
        type            zeroGradient;
    }
    yzfaces
    {
        type            empty;
    }
}


// ************************************************************************* //
