/*--------------------------------*- C++ -*----------------------------------*\
| =========                 |                                                 |
| \\      /  F ield         | foam-extend: Open Source CFD                    |
|  \\    /   O peration     | Version:     5.0                                |
|   \\  /    A nd           | Web:         http://www.foam-extend.org         |
|    \\/     M anipulation  |                                                 |
\*---------------------------------------------------------------------------*/
FoamFile
{
    version     2.0;
    format      ascii;
    class       volVectorField;
    location    "7";
    object      U.water;
}
// * * * * * * * * * * * * * * * * * * * * * * * * * * * * * * * * * * * * * //

dimensions      [0 1 -1 0 0 0 0];

internalField   nonuniform List<vector> 
100
(
(1.35823e-05 0 0)
(2.72853e-05 0 0)
(6.05137e-05 0 0)
(0.000110735 0 0)
(0.000113583 0 0)
(0.000108606 0 0)
(0.000105798 0 0)
(0.000115914 0 0)
(0.000123911 0 0)
(0.000121508 0 0)
(0.000126365 0 0)
(0.000130183 0 0)
(0.000136868 0 0)
(0.000158872 0 0)
(0.000190783 0 0)
(0.000211253 0 0)
(0.00022736 0 0)
(0.000242702 0 0)
(0.000256846 0 0)
(0.000268637 0 0)
(0.000287668 0 0)
(0.000310051 0 0)
(0.000322791 0 0)
(0.000331565 0 0)
(0.000349266 0 0)
(0.000357083 0 0)
(0.000360965 0 0)
(0.00037639 0 0)
(0.00039675 0 0)
(0.000411915 0 0)
(0.000428276 0 0)
(0.000441606 0 0)
(0.000451323 0 0)
(0.000467374 0 0)
(0.00047764 0 0)
(0.00049017 0 0)
(0.000506048 0 0)
(0.000519477 0 0)
(0.000541555 0 0)
(0.000568694 0 0)
(0.000596237 0 0)
(0.000622108 0 0)
(0.000643995 0 0)
(0.000660955 0 0)
(0.000671709 0 0)
(0.000692931 0 0)
(0.000714841 0 0)
(0.000730427 0 0)
(0.000758048 0 0)
(0.000787593 0 0)
(0.000823248 0 0)
(0.000862621 0 0)
(0.000905375 0 0)
(0.00094621 0 0)
(0.00098612 0 0)
(0.00103229 0 0)
(0.00108491 0 0)
(0.00114027 0 0)
(0.00119644 0 0)
(0.00126728 0 0)
(0.00135102 0 0)
(0.0014527 0 0)
(0.00158477 0 0)
(0.00176318 0 0)
(0.00202841 0 0)
(0.00248591 0 0)
(0.00341219 0 0)
(0.00416623 0 0)
(0.00394714 0 0)
(0.00387303 0 0)
(0.00384151 0 0)
(0.00381919 0 0)
(0.0037961 0 0)
(0.00377316 0 0)
(0.00375492 0 0)
(0.00373521 0 0)
(0.00372104 0 0)
(0.00371081 0 0)
(0.00370564 0 0)
(0.00370596 0 0)
(0.00370393 0 0)
(0.00370396 0 0)
(0.00371025 0 0)
(0.00371816 0 0)
(0.00372287 0 0)
(0.00372476 0 0)
(0.00372337 0 0)
(0.00372317 0 0)
(0.00372384 0 0)
(0.00372483 0 0)
(0.00372795 0 0)
(0.00373571 0 0)
(0.00374699 0 0)
(0.00375125 0 0)
(0.00375287 0 0)
(0.00375939 0 0)
(0.00376376 0 0)
(0.00376691 0 0)
(0.00377497 0 0)
(0.00378756 0 0)
)
;

boundaryField
{
    inlet
    {
        type            fixedValue;
        value           uniform (0 0 0);
    }
    outlet
    {
        type            zeroGradient;
    }
    yzfaces
    {
        type            empty;
    }
}


// ************************************************************************* //
