/*--------------------------------*- C++ -*----------------------------------*\
| =========                 |                                                 |
| \\      /  F ield         | foam-extend: Open Source CFD                    |
|  \\    /   O peration     | Version:     5.0                                |
|   \\  /    A nd           | Web:         http://www.foam-extend.org         |
|    \\/     M anipulation  |                                                 |
\*---------------------------------------------------------------------------*/
FoamFile
{
    version     2.0;
    format      ascii;
    class       volScalarField;
    location    "8";
    object      alpha.gas;
}
// * * * * * * * * * * * * * * * * * * * * * * * * * * * * * * * * * * * * * //

dimensions      [0 0 0 0 0 0 0];

internalField   nonuniform List<scalar> 
100
(
0.165334
0.153764
0.147032
0.141476
0.135015
0.128514
0.125637
0.123107
0.119747
0.115923
0.112225
0.109363
0.106817
0.104493
0.10194
0.0992814
0.097569
0.0955234
0.0941589
0.0925707
0.090974
0.089727
0.088136
0.0875529
0.0869454
0.0864694
0.0857316
0.0849262
0.0841708
0.0832058
0.0818906
0.0807958
0.0797662
0.078876
0.0779155
0.0770699
0.076291
0.0755819
0.0749831
0.0743405
0.0736114
0.0727674
0.0720268
0.0713076
0.070729
0.0701231
0.0696872
0.0691769
0.0685697
0.0679255
0.0672601
0.066683
0.0660693
0.0656655
0.06517
0.0646665
0.0641036
0.0636051
0.0630813
0.0626559
0.0622217
0.0617859
0.0613487
0.0608897
0.060418
0.0599962
0.0596209
0.0591593
0.0587802
0.0582842
0.0578476
0.0574413
0.0570613
0.0566947
0.0562664
0.0558348
0.0554846
0.0551815
0.054873
0.0545421
0.0542389
0.0539284
0.0535986
0.0532318
0.0529301
0.0526566
0.0523447
0.0519311
0.0516067
0.0512532
0.0507993
0.0504029
0.0500119
0.0495988
0.0492178
0.0488117
0.0484208
0.0479817
0.0475429
0.0470275
)
;

boundaryField
{
    inlet
    {
        type            fixedValue;
        value           uniform 0.2;
    }
    outlet
    {
        type            zeroGradient;
    }
    yzfaces
    {
        type            empty;
    }
}


// ************************************************************************* //
