/*--------------------------------*- C++ -*----------------------------------*\
| =========                 |                                                 |
| \\      /  F ield         | foam-extend: Open Source CFD                    |
|  \\    /   O peration     | Version:     5.0                                |
|   \\  /    A nd           | Web:         http://www.foam-extend.org         |
|    \\/     M anipulation  |                                                 |
\*---------------------------------------------------------------------------*/
FoamFile
{
    version     2.0;
    format      ascii;
    class       volScalarField;
    location    "8";
    object      Cl.water;
}
// * * * * * * * * * * * * * * * * * * * * * * * * * * * * * * * * * * * * * //

dimensions      [0 0 0 0 0 0 0];

internalField   nonuniform List<scalar> 
100
(
0.00669376
0.00954689
0.0118071
0.013183
0.0140855
0.0148897
0.0161033
0.0166136
0.0169632
0.0173121
0.017882
0.0183314
0.0188013
0.0192449
0.0196656
0.0199764
0.0205596
0.0209892
0.0214193
0.0217028
0.0220746
0.0224654
0.0226701
0.0230859
0.0230962
0.0233225
0.0233215
0.0235125
0.0235671
0.0236795
0.0237921
0.024036
0.024246
0.0244736
0.0246671
0.0248949
0.0251104
0.0252962
0.0253973
0.025511
0.0256898
0.0258327
0.0260131
0.0261232
0.0262431
0.026407
0.026553
0.026663
0.0267844
0.0268884
0.0270434
0.0271716
0.0271969
0.0273955
0.0274944
0.0276053
0.0277262
0.0278611
0.0279405
0.028043
0.0281168
0.0281961
0.0283244
0.028431
0.0285224
0.0286461
0.0287515
0.0288145
0.0288938
0.0289536
0.0290777
0.0291837
0.0293032
0.029435
0.0295265
0.0295765
0.0296692
0.029744
0.0298078
0.0298698
0.0298877
0.0299507
0.0299943
0.030033
0.0301285
0.0301991
0.0302598
0.0302238
0.0303427
0.0304436
0.0304879
0.0305719
0.0306401
0.0306918
0.0307668
0.0308498
0.0309277
0.0309715
0.0310595
0.0311139
)
;

boundaryField
{
    inlet
    {
        type            fixedValue;
        value           uniform 0;
    }
    outlet
    {
        type            zeroGradient;
    }
    yzfaces
    {
        type            empty;
    }
}


// ************************************************************************* //
