/*--------------------------------*- C++ -*----------------------------------*\
| =========                 |                                                 |
| \\      /  F ield         | foam-extend: Open Source CFD                    |
|  \\    /   O peration     | Version:     5.0                                |
|   \\  /    A nd           | Web:         http://www.foam-extend.org         |
|    \\/     M anipulation  |                                                 |
\*---------------------------------------------------------------------------*/
FoamFile
{
    version     2.0;
    format      ascii;
    class       volScalarField;
    location    "8";
    object      CO2.water;
}
// * * * * * * * * * * * * * * * * * * * * * * * * * * * * * * * * * * * * * //

dimensions      [0 0 0 0 0 0 0];

internalField   nonuniform List<scalar> 
100
(
0.000910494
0.00121437
0.00139119
0.0015371
0.00170681
0.00187754
0.00195312
0.00201955
0.00210781
0.00220825
0.00230537
0.00238054
0.0024474
0.00250844
0.0025755
0.00264533
0.0026903
0.00274403
0.00277987
0.00282158
0.00286352
0.00289627
0.00293806
0.00295337
0.00296933
0.00298183
0.00300121
0.00302236
0.0030422
0.00306754
0.00310209
0.00313084
0.00315789
0.00318127
0.00320649
0.0032287
0.00324916
0.00326778
0.00328351
0.00330039
0.00331954
0.00334171
0.00336116
0.00338005
0.00339524
0.00341116
0.00342261
0.00343601
0.00345196
0.00346888
0.00348635
0.00350151
0.00351763
0.00352823
0.00354125
0.00355447
0.00356926
0.00358235
0.00359611
0.00360728
0.00361868
0.00363013
0.00364161
0.00365367
0.00366606
0.00367713
0.00368699
0.00369912
0.00370907
0.0037221
0.00373357
0.00374424
0.00375422
0.00376385
0.0037751
0.00378643
0.00379563
0.00380359
0.0038117
0.00382039
0.00382835
0.0038365
0.00384516
0.0038548
0.00386272
0.00386991
0.0038781
0.00388896
0.00389748
0.00390677
0.00391869
0.0039291
0.00393937
0.00395022
0.00396022
0.00397089
0.00398116
0.00399269
0.00400421
0.00401775
)
;

boundaryField
{
    inlet
    {
        type            fixedValue;
        value           uniform 0;
    }
    outlet
    {
        type            zeroGradient;
    }
    yzfaces
    {
        type            empty;
    }
}


// ************************************************************************* //
