/*--------------------------------*- C++ -*----------------------------------*\
| =========                 |                                                 |
| \\      /  F ield         | foam-extend: Open Source CFD                    |
|  \\    /   O peration     | Version:     5.0                                |
|   \\  /    A nd           | Web:         http://www.foam-extend.org         |
|    \\/     M anipulation  |                                                 |
\*---------------------------------------------------------------------------*/
FoamFile
{
    version     2.0;
    format      ascii;
    class       volScalarField;
    location    "8";
    object      CO2.gas;
}
// * * * * * * * * * * * * * * * * * * * * * * * * * * * * * * * * * * * * * //

dimensions      [0 0 0 0 0 0 0];

internalField   nonuniform List<scalar> 
100
(
0.165012
0.153464
0.146745
0.141201
0.134752
0.128264
0.125392
0.122868
0.119514
0.115697
0.112006
0.10915
0.106609
0.10429
0.101742
0.0990881
0.0973789
0.0953374
0.0939755
0.0923904
0.0907968
0.0895522
0.0879643
0.0873824
0.086776
0.086301
0.0855646
0.0847608
0.0840069
0.0830438
0.0817311
0.0806384
0.0796108
0.0787224
0.0777637
0.0769198
0.0761425
0.0754347
0.0748371
0.0741957
0.073468
0.0726256
0.0718866
0.0711687
0.0705913
0.0699865
0.0695515
0.0690422
0.0684362
0.0677932
0.0671291
0.0665531
0.0659406
0.0655376
0.0650431
0.0645406
0.0639788
0.0634812
0.0629585
0.0625339
0.0621005
0.0616656
0.0612293
0.0607712
0.0603003
0.0598794
0.0595047
0.0590441
0.0586657
0.0581707
0.0577349
0.0573295
0.0569502
0.0565843
0.0561568
0.055726
0.0553766
0.0550741
0.0547661
0.0544358
0.0541333
0.0538233
0.0534942
0.0531281
0.052827
0.0525541
0.0522428
0.0518299
0.0515062
0.0511534
0.0507004
0.0503047
0.0499145
0.0495022
0.049122
0.0487166
0.0483265
0.0478883
0.0474503
0.0469359
)
;

boundaryField
{
    inlet
    {
        type            fixedValue;
        value           uniform 0.2;
    }
    outlet
    {
        type            zeroGradient;
    }
    yzfaces
    {
        type            empty;
    }
}


// ************************************************************************* //
