/*--------------------------------*- C++ -*----------------------------------*\
| =========                 |                                                 |
| \\      /  F ield         | foam-extend: Open Source CFD                    |
|  \\    /   O peration     | Version:     5.0                                |
|   \\  /    A nd           | Web:         http://www.foam-extend.org         |
|    \\/     M anipulation  |                                                 |
\*---------------------------------------------------------------------------*/
FoamFile
{
    version     2.0;
    format      ascii;
    class       volScalarField;
    location    "8";
    object      H2O.gas;
}
// * * * * * * * * * * * * * * * * * * * * * * * * * * * * * * * * * * * * * //

dimensions      [0 0 0 0 0 0 0];

internalField   nonuniform List<scalar> 
100
(
0.000321983
0.00029945
0.00028634
0.000275521
0.000262937
0.000250278
0.000244674
0.000239748
0.000233204
0.000225756
0.000218555
0.000212981
0.000208024
0.000203498
0.000198525
0.000193348
0.000190013
0.000186029
0.000183372
0.000180279
0.000177169
0.000174741
0.000171642
0.000170507
0.000169324
0.000168397
0.00016696
0.000165391
0.00016392
0.000162041
0.000159479
0.000157347
0.000155342
0.000153609
0.000151738
0.000150091
0.000148575
0.000147194
0.000146027
0.000144776
0.000143356
0.000141712
0.00014027
0.000138869
0.000137743
0.000136563
0.000135714
0.00013472
0.000133538
0.000132283
0.000130987
0.000129863
0.000128668
0.000127882
0.000126917
0.000125936
0.00012484
0.000123869
0.000122849
0.000122021
0.000121175
0.000120326
0.000119475
0.000118581
0.000117662
0.000116841
0.00011611
0.000115211
0.000114473
0.000113507
0.000112656
0.000111865
0.000111125
0.000110411
0.000109577
0.000108737
0.000108055
0.000107464
0.000106863
0.000106219
0.000105629
0.000105024
0.000104382
0.000103667
0.00010308
0.000102547
0.00010194
0.000101134
0.000100503
9.98142e-05
9.89302e-05
9.81582e-05
9.73968e-05
9.65922e-05
9.58503e-05
9.50593e-05
9.42981e-05
9.3443e-05
9.25885e-05
9.15847e-05
)
;

boundaryField
{
    inlet
    {
        type            fixedValue;
        value           uniform 0;
    }
    outlet
    {
        type            zeroGradient;
    }
    yzfaces
    {
        type            empty;
    }
}


// ************************************************************************* //
