/*--------------------------------*- C++ -*----------------------------------*\
| =========                 |                                                 |
| \\      /  F ield         | foam-extend: Open Source CFD                    |
|  \\    /   O peration     | Version:     5.0                                |
|   \\  /    A nd           | Web:         http://www.foam-extend.org         |
|    \\/     M anipulation  |                                                 |
\*---------------------------------------------------------------------------*/
FoamFile
{
    version     2.0;
    format      ascii;
    class       volScalarField;
    location    "8";
    object      H2O.water;
}
// * * * * * * * * * * * * * * * * * * * * * * * * * * * * * * * * * * * * * //

dimensions      [0 0 0 0 0 0 0];

internalField   nonuniform List<scalar> 
100
(
0.0203695
0.0259249
0.0279609
0.030617
0.0351017
0.0398107
0.040194
0.0416575
0.0442349
0.0472557
0.0497131
0.0515976
0.053137
0.0545202
0.0561652
0.058124
0.058626
0.0597599
0.0602266
0.0612012
0.0620114
0.0624467
0.0635769
0.0633143
0.0638839
0.0639003
0.064615
0.065017
0.0656401
0.066345
0.0674073
0.0679887
0.0685671
0.0689802
0.069533
0.0699006
0.07023
0.0705473
0.0709246
0.0713135
0.0716677
0.0722199
0.072584
0.0730635
0.0733912
0.0736488
0.0737847
0.074052
0.0743944
0.0748226
0.0751655
0.0754695
0.0760147
0.0760104
0.0762893
0.0765494
0.0768574
0.0770865
0.0774468
0.0776444
0.0779112
0.0781794
0.0783688
0.0785947
0.0788876
0.0790596
0.0791943
0.0795191
0.079735
0.0800998
0.0802765
0.0804483
0.0805635
0.0806671
0.0809122
0.0812336
0.081382
0.0815238
0.0816833
0.0818845
0.0821652
0.082343
0.0825827
0.0828659
0.082956
0.0830864
0.0832617
0.0837344
0.0838088
0.0839451
0.0843024
0.0845255
0.0847476
0.0850601
0.0852866
0.0855063
0.0857159
0.0860544
0.0863435
0.0867258
)
;

boundaryField
{
    inlet
    {
        type            fixedValue;
        value           uniform 0;
    }
    outlet
    {
        type            zeroGradient;
    }
    yzfaces
    {
        type            empty;
    }
}


// ************************************************************************* //
