/*--------------------------------*- C++ -*----------------------------------*\
| =========                 |                                                 |
| \\      /  F ield         | foam-extend: Open Source CFD                    |
|  \\    /   O peration     | Version:     5.0                                |
|   \\  /    A nd           | Web:         http://www.foam-extend.org         |
|    \\/     M anipulation  |                                                 |
\*---------------------------------------------------------------------------*/
FoamFile
{
    version     2.0;
    format      ascii;
    class       volScalarField;
    location    "8";
    object      Na.water;
}
// * * * * * * * * * * * * * * * * * * * * * * * * * * * * * * * * * * * * * //

dimensions      [0 0 0 0 0 0 0];

internalField   nonuniform List<scalar> 
100
(
0.00669256
0.00955011
0.0118092
0.0131867
0.0140911
0.0149077
0.0161129
0.0166021
0.016947
0.0173012
0.0178747
0.0183273
0.0187969
0.0192331
0.0196536
0.0199728
0.0205552
0.0209835
0.0214154
0.0217037
0.0220766
0.0224647
0.022679
0.0230935
0.0231052
0.023326
0.0233307
0.023522
0.0235798
0.0237021
0.0238079
0.0240487
0.0242628
0.024489
0.0246779
0.0249059
0.0251194
0.0253068
0.0254115
0.0255346
0.0257115
0.0258383
0.0260149
0.0261257
0.0262414
0.0264099
0.0265525
0.0266721
0.0267995
0.0268946
0.0270447
0.0271743
0.0272016
0.0274005
0.027505
0.0276243
0.0277435
0.0278649
0.0279353
0.0280495
0.0281316
0.0282084
0.0283165
0.0284309
0.0285059
0.0286209
0.0287464
0.028808
0.0288819
0.0289403
0.0290647
0.0291825
0.0293179
0.0294394
0.0295198
0.0295688
0.0296685
0.0297471
0.0298243
0.0298832
0.0298798
0.0299414
0.0299793
0.0300145
0.0301227
0.0301879
0.0302557
0.0302217
0.0303443
0.0304513
0.0304917
0.0305705
0.030661
0.0306991
0.0307686
0.0308613
0.0309545
0.0309996
0.0310498
0.0311151
)
;

boundaryField
{
    inlet
    {
        type            fixedValue;
        value           uniform 0;
    }
    outlet
    {
        type            zeroGradient;
    }
    yzfaces
    {
        type            empty;
    }
}


// ************************************************************************* //
