/*--------------------------------*- C++ -*----------------------------------*\
| =========                 |                                                 |
| \\      /  F ield         | foam-extend: Open Source CFD                    |
|  \\    /   O peration     | Version:     5.0                                |
|   \\  /    A nd           | Web:         http://www.foam-extend.org         |
|    \\/     M anipulation  |                                                 |
\*---------------------------------------------------------------------------*/
FoamFile
{
    version     2.0;
    format      ascii;
    class       surfaceScalarField;
    location    "8";
    object      phi;
}
// * * * * * * * * * * * * * * * * * * * * * * * * * * * * * * * * * * * * * //

dimensions      [0 3 -1 0 0 0 0];

internalField   nonuniform List<scalar> 
99
(
1.22041e-06
1.22453e-06
1.21845e-06
1.2155e-06
1.21185e-06
1.21128e-06
1.21275e-06
1.19815e-06
1.19534e-06
1.18977e-06
1.18562e-06
1.18413e-06
1.18252e-06
1.185e-06
1.18578e-06
1.19364e-06
1.19051e-06
1.18956e-06
1.18213e-06
1.17949e-06
1.17531e-06
1.18137e-06
1.18737e-06
1.19844e-06
1.19849e-06
1.19971e-06
1.19806e-06
1.20047e-06
1.19789e-06
1.19043e-06
1.19216e-06
1.19359e-06
1.19197e-06
1.19235e-06
1.18913e-06
1.18778e-06
1.18664e-06
1.19178e-06
1.19258e-06
1.18945e-06
1.19103e-06
1.19101e-06
1.19357e-06
1.19326e-06
1.19154e-06
1.19348e-06
1.19479e-06
1.19295e-06
1.18745e-06
1.18546e-06
1.18521e-06
1.18775e-06
1.18748e-06
1.18811e-06
1.18949e-06
1.18872e-06
1.18794e-06
1.18813e-06
1.18632e-06
1.18604e-06
1.18697e-06
1.18677e-06
1.19017e-06
1.19015e-06
1.18975e-06
1.19203e-06
1.19243e-06
1.19317e-06
1.19229e-06
1.19528e-06
1.19765e-06
1.19968e-06
1.19976e-06
1.19714e-06
1.19565e-06
1.19936e-06
1.19834e-06
1.19617e-06
1.19532e-06
1.19615e-06
1.19795e-06
1.19399e-06
1.19097e-06
1.19159e-06
1.19034e-06
1.18781e-06
1.18807e-06
1.1887e-06
1.18787e-06
1.18278e-06
1.18348e-06
1.17914e-06
1.17622e-06
1.17742e-06
1.17372e-06
1.17399e-06
1.1708e-06
1.17025e-06
1.16965e-06
)
;

boundaryField
{
    inlet
    {
        type            calculated;
        value           uniform -1.225e-06;
    }
    outlet
    {
        type            calculated;
        value           uniform 1.17005e-06;
    }
    yzfaces
    {
        type            empty;
    }
}


// ************************************************************************* //
