/*--------------------------------*- C++ -*----------------------------------*\
| =========                 |                                                 |
| \\      /  F ield         | foam-extend: Open Source CFD                    |
|  \\    /   O peration     | Version:     5.0                                |
|   \\  /    A nd           | Web:         http://www.foam-extend.org         |
|    \\/     M anipulation  |                                                 |
\*---------------------------------------------------------------------------*/
FoamFile
{
    version     2.0;
    format      ascii;
    class       volVectorField;
    location    "8";
    object      U.gas;
}
// * * * * * * * * * * * * * * * * * * * * * * * * * * * * * * * * * * * * * //

dimensions      [0 1 -1 0 0 0 0];

internalField   nonuniform List<vector> 
100
(
(0.00602953 0 0)
(0.00646536 0 0)
(0.00673959 0 0)
(0.0069624 0 0)
(0.00725522 0 0)
(0.00757956 0 0)
(0.0077304 0 0)
(0.00782897 0 0)
(0.00796846 0 0)
(0.00817167 0 0)
(0.0083686 0 0)
(0.00852957 0 0)
(0.00868593 0 0)
(0.00884665 0 0)
(0.00904023 0 0)
(0.0092672 0 0)
(0.00940402 0 0)
(0.0095463 0 0)
(0.00960938 0 0)
(0.00969373 0 0)
(0.00979021 0 0)
(0.00989176 0 0)
(0.0100758 0 0)
(0.0101788 0 0)
(0.0102768 0 0)
(0.0103191 0 0)
(0.0103826 0 0)
(0.010454 0 0)
(0.0105148 0 0)
(0.010556 0 0)
(0.0106498 0 0)
(0.0107521 0 0)
(0.0108377 0 0)
(0.0109044 0 0)
(0.0109755 0 0)
(0.0110233 0 0)
(0.011076 0 0)
(0.0111523 0 0)
(0.0112274 0 0)
(0.0112727 0 0)
(0.0113307 0 0)
(0.0114139 0 0)
(0.0114849 0 0)
(0.0115566 0 0)
(0.0115901 0 0)
(0.0116421 0 0)
(0.0116873 0 0)
(0.0117308 0 0)
(0.0117483 0 0)
(0.0117652 0 0)
(0.0118096 0 0)
(0.0118641 0 0)
(0.0119277 0 0)
(0.0119503 0 0)
(0.0120034 0 0)
(0.0120474 0 0)
(0.0120867 0 0)
(0.0121174 0 0)
(0.0121493 0 0)
(0.0121653 0 0)
(0.0122013 0 0)
(0.0122349 0 0)
(0.0122842 0 0)
(0.0123385 0 0)
(0.0123689 0 0)
(0.0124029 0 0)
(0.01244 0 0)
(0.0124828 0 0)
(0.0125025 0 0)
(0.0125551 0 0)
(0.0126048 0 0)
(0.0126509 0 0)
(0.0126829 0 0)
(0.0126898 0 0)
(0.0126985 0 0)
(0.0127351 0 0)
(0.0127615 0 0)
(0.0127562 0 0)
(0.0127573 0 0)
(0.012777 0 0)
(0.012804 0 0)
(0.0128077 0 0)
(0.0127878 0 0)
(0.0127954 0 0)
(0.0127987 0 0)
(0.0127861 0 0)
(0.0127895 0 0)
(0.0128211 0 0)
(0.0128222 0 0)
(0.0128052 0 0)
(0.0128081 0 0)
(0.0127946 0 0)
(0.012765 0 0)
(0.0127691 0 0)
(0.0127599 0 0)
(0.0127531 0 0)
(0.0127438 0 0)
(0.012737 0 0)
(0.0127358 0 0)
(0.0127501 0 0)
)
;

boundaryField
{
    inlet
    {
        type            fixedValue;
        value           uniform (0.005 0 0);
    }
    outlet
    {
        type            zeroGradient;
    }
    yzfaces
    {
        type            empty;
    }
}


// ************************************************************************* //
