/*--------------------------------*- C++ -*----------------------------------*\
| =========                 |                                                 |
| \\      /  F ield         | foam-extend: Open Source CFD                    |
|  \\    /   O peration     | Version:     5.0                                |
|   \\  /    A nd           | Web:         http://www.foam-extend.org         |
|    \\/     M anipulation  |                                                 |
\*---------------------------------------------------------------------------*/
FoamFile
{
    version     2.0;
    format      ascii;
    class       volVectorField;
    location    "8";
    object      U.water;
}
// * * * * * * * * * * * * * * * * * * * * * * * * * * * * * * * * * * * * * //

dimensions      [0 1 -1 0 0 0 0];

internalField   nonuniform List<vector> 
100
(
(3.58527e-05 0 0)
(8.2126e-05 0 0)
(0.000117085 0 0)
(0.00014414 0 0)
(0.000172243 0 0)
(0.000209137 0 0)
(0.000244458 0 0)
(0.000263212 0 0)
(0.000283297 0 0)
(0.000312029 0 0)
(0.000346117 0 0)
(0.000379807 0 0)
(0.000409649 0 0)
(0.000438881 0 0)
(0.000470123 0 0)
(0.000507649 0 0)
(0.000542606 0 0)
(0.000570106 0 0)
(0.000597423 0 0)
(0.000619706 0 0)
(0.000646543 0 0)
(0.000674244 0 0)
(0.000704314 0 0)
(0.000734732 0 0)
(0.000750265 0 0)
(0.00076258 0 0)
(0.000775088 0 0)
(0.00079229 0 0)
(0.000810546 0 0)
(0.000826287 0 0)
(0.000849763 0 0)
(0.000881253 0 0)
(0.000908376 0 0)
(0.000933703 0 0)
(0.000957289 0 0)
(0.000981033 0 0)
(0.00100353 0 0)
(0.00102771 0 0)
(0.00105061 0 0)
(0.00106828 0 0)
(0.00108836 0 0)
(0.00111373 0 0)
(0.00114145 0 0)
(0.00116665 0 0)
(0.00118844 0 0)
(0.00120962 0 0)
(0.00123048 0 0)
(0.00124662 0 0)
(0.00126315 0 0)
(0.00128248 0 0)
(0.00130563 0 0)
(0.00133083 0 0)
(0.00135461 0 0)
(0.00137642 0 0)
(0.0013957 0 0)
(0.00141599 0 0)
(0.00143687 0 0)
(0.00145969 0 0)
(0.00148095 0 0)
(0.00150048 0 0)
(0.00151979 0 0)
(0.00154057 0 0)
(0.0015619 0 0)
(0.00158343 0 0)
(0.00160541 0 0)
(0.00162873 0 0)
(0.00164955 0 0)
(0.00167026 0 0)
(0.00169068 0 0)
(0.00171298 0 0)
(0.00174145 0 0)
(0.00176643 0 0)
(0.0017886 0 0)
(0.00180652 0 0)
(0.00182388 0 0)
(0.00184853 0 0)
(0.00187234 0 0)
(0.0018882 0 0)
(0.00190237 0 0)
(0.00191964 0 0)
(0.00193954 0 0)
(0.00195521 0 0)
(0.00196751 0 0)
(0.00198508 0 0)
(0.00200435 0 0)
(0.0020184 0 0)
(0.00203365 0 0)
(0.00205511 0 0)
(0.00207772 0 0)
(0.00209286 0 0)
(0.00211242 0 0)
(0.00213538 0 0)
(0.00215331 0 0)
(0.00217645 0 0)
(0.00219942 0 0)
(0.00222074 0 0)
(0.00224303 0 0)
(0.00226545 0 0)
(0.00229287 0 0)
(0.00232311 0 0)
)
;

boundaryField
{
    inlet
    {
        type            fixedValue;
        value           uniform (0 0 0);
    }
    outlet
    {
        type            zeroGradient;
    }
    yzfaces
    {
        type            empty;
    }
}


// ************************************************************************* //
