/*--------------------------------*- C++ -*----------------------------------*\
| =========                 |                                                 |
| \\      /  F ield         | foam-extend: Open Source CFD                    |
|  \\    /   O peration     | Version:     5.0                                |
|   \\  /    A nd           | Web:         http://www.foam-extend.org         |
|    \\/     M anipulation  |                                                 |
\*---------------------------------------------------------------------------*/
FoamFile
{
    version     2.0;
    format      ascii;
    class       volScalarField;
    location    "1";
    object      alpha.gas;
}
// * * * * * * * * * * * * * * * * * * * * * * * * * * * * * * * * * * * * * //

dimensions      [0 0 0 0 0 0 0];

internalField   nonuniform List<scalar> 
100
(
0.115702
0.0972493
0.0862406
0.0784882
0.0724214
0.0673496
0.0631175
0.0593124
0.0557838
0.0526037
0.0496528
0.046802
0.0440169
0.0412761
0.0385356
0.0357887
0.0329782
0.0301189
0.027189
0.0242176
0.0212586
0.0184425
0.0159236
0.0138721
0.0123616
0.0113613
0.0107476
0.0103963
0.0102058
0.0101031
0.0100517
0.0100295
0.0100167
0.0100086
0.0100055
0.00999906
0.0099977
0.0099969
0.0100001
0.0100001
0.00999852
0.00999562
0.00999319
0.00999416
0.00999465
0.00999569
0.00999528
0.00999797
0.00999788
0.00999751
0.00999681
0.00999567
0.00999683
0.00999791
0.00999646
0.00999773
0.00999969
0.00999894
0.00999631
0.00999674
0.00999745
0.00999697
0.00999781
0.0100006
0.00999869
0.00999935
0.01
0.00999948
0.00999957
0.0100007
0.0100005
0.0100007
0.00999939
0.00999911
0.00999885
0.00999784
0.00999593
0.00999708
0.00999596
0.00999814
0.00999877
0.00999886
0.00999803
0.0100005
0.00999841
0.00999819
0.00999676
0.00999934
0.0100012
0.0100017
0.0100049
0.0100067
0.0100068
0.0100057
0.0100046
0.0100053
0.0100081
0.0100043
0.010005
0.0100029
)
;

boundaryField
{
    inlet
    {
        type            fixedValue;
        value           uniform 0.2;
    }
    outlet
    {
        type            zeroGradient;
    }
    yzfaces
    {
        type            empty;
    }
}


// ************************************************************************* //
