/*--------------------------------*- C++ -*----------------------------------*\
| =========                 |                                                 |
| \\      /  F ield         | foam-extend: Open Source CFD                    |
|  \\    /   O peration     | Version:     5.0                                |
|   \\  /    A nd           | Web:         http://www.foam-extend.org         |
|    \\/     M anipulation  |                                                 |
\*---------------------------------------------------------------------------*/
FoamFile
{
    version     2.0;
    format      ascii;
    class       volScalarField;
    location    "1";
    object      CO2.water;
}
// * * * * * * * * * * * * * * * * * * * * * * * * * * * * * * * * * * * * * //

dimensions      [0 0 0 0 0 0 0];

internalField   nonuniform List<scalar> 
100
(
0.00221405
0.0026987
0.00298784
0.00319145
0.00335079
0.003484
0.00359516
0.00369509
0.00378777
0.0038713
0.0039488
0.00402368
0.00409683
0.00416881
0.00424079
0.000155887
3.33013e-05
7.72061e-06
1.93403e-06
5.00445e-07
1.17076e-07
2.26516e-08
3.33872e-09
1.04939e-09
6.10728e-10
4.02944e-10
2.74954e-10
1.85943e-10
1.22841e-10
7.8793e-11
4.95829e-11
3.12091e-11
1.81559e-11
9.99608e-12
5.31822e-12
2.76043e-12
1.41441e-12
7.17908e-13
3.6353e-13
1.84718e-13
9.36186e-14
4.76253e-14
2.41685e-14
1.23226e-14
6.3106e-15
3.22285e-15
1.64387e-15
8.32094e-16
4.17753e-16
2.08084e-16
1.02832e-16
5.03271e-17
2.45061e-17
1.18706e-17
5.71084e-18
2.72742e-18
1.3018e-18
6.17755e-19
2.93265e-19
1.3855e-19
6.54523e-20
3.07604e-20
1.44389e-20
6.75194e-21
3.15897e-21
1.47422e-21
6.87302e-22
3.20989e-22
1.49931e-22
7.01602e-23
3.29826e-23
1.53596e-23
7.13178e-24
3.28688e-24
1.50436e-24
6.88391e-25
3.12911e-25
1.41739e-25
6.40269e-26
2.88857e-26
1.29706e-26
5.81275e-27
2.59688e-27
1.1566e-27
5.15975e-28
2.29122e-28
1.01563e-28
4.49632e-29
1.98384e-29
8.73766e-30
3.84809e-30
1.69272e-30
7.44084e-31
3.26473e-31
1.42692e-31
6.23742e-32
2.7234e-32
1.18667e-32
5.15597e-33
2.86619e-33
)
;

boundaryField
{
    inlet
    {
        type            fixedValue;
        value           uniform 0;
    }
    outlet
    {
        type            zeroGradient;
    }
    yzfaces
    {
        type            empty;
    }
}


// ************************************************************************* //
