/*--------------------------------*- C++ -*----------------------------------*\
| =========                 |                                                 |
| \\      /  F ield         | foam-extend: Open Source CFD                    |
|  \\    /   O peration     | Version:     5.0                                |
|   \\  /    A nd           | Web:         http://www.foam-extend.org         |
|    \\/     M anipulation  |                                                 |
\*---------------------------------------------------------------------------*/
FoamFile
{
    version     2.0;
    format      ascii;
    class       volScalarField;
    location    "1";
    object      H2O.gas;
}
// * * * * * * * * * * * * * * * * * * * * * * * * * * * * * * * * * * * * * //

dimensions      [0 0 0 0 0 0 0];

internalField   nonuniform List<scalar> 
100
(
0.000225326
0.00018939
0.000167951
0.000152853
0.000141039
0.000131161
0.000122919
0.000115509
0.000108637
0.000102444
9.66974e-05
9.11455e-05
8.57216e-05
8.0384e-05
7.5047e-05
0.00829826
0.0114903
0.0139765
0.0156684
0.0165038
0.0164903
0.0157707
0.0145902
0.013277
0.0121228
0.0112695
0.010719
0.0103928
0.0102013
0.0101008
0.0100537
0.0100181
0.0100197
0.0100089
0.0100049
0.00999954
0.00999735
0.00999928
0.0099944
0.00999424
0.00999705
0.00999279
0.00999482
0.00999665
0.00999565
0.00999704
0.00999619
0.00999404
0.0100053
0.00999852
0.010001
0.0099969
0.0099974
0.00999756
0.00999848
0.00999697
0.00999877
0.010011
0.0100114
0.0100096
0.0100025
0.0100029
0.00999602
0.00999812
0.00999778
0.00999486
0.0100012
0.00999856
0.00999806
0.00999433
0.00999979
0.0100018
0.00999997
0.0100051
0.0100031
0.00999196
0.00999649
0.00999499
0.0100011
0.00999893
0.0100012
0.00999455
0.00999331
0.0100007
0.0100009
0.0100017
0.0100098
0.0100019
0.00999059
0.00999381
0.00999088
0.00999842
0.0100001
0.0100031
0.0100013
0.0100056
0.0100029
0.0100098
0.0100054
0.0100036
)
;

boundaryField
{
    inlet
    {
        type            fixedValue;
        value           uniform 0;
    }
    outlet
    {
        type            zeroGradient;
    }
    yzfaces
    {
        type            empty;
    }
}


// ************************************************************************* //
