/*--------------------------------*- C++ -*----------------------------------*\
| =========                 |                                                 |
| \\      /  F ield         | foam-extend: Open Source CFD                    |
|  \\    /   O peration     | Version:     5.0                                |
|   \\  /    A nd           | Web:         http://www.foam-extend.org         |
|    \\/     M anipulation  |                                                 |
\*---------------------------------------------------------------------------*/
FoamFile
{
    version     2.0;
    format      ascii;
    class       surfaceScalarField;
    location    "1";
    object      phi;
}
// * * * * * * * * * * * * * * * * * * * * * * * * * * * * * * * * * * * * * //

dimensions      [0 3 -1 0 0 0 0];

internalField   nonuniform List<scalar> 
99
(
1.21993e-06
1.22232e-06
1.22706e-06
1.22702e-06
1.22591e-06
1.2251e-06
1.22732e-06
1.2239e-06
1.22661e-06
1.22508e-06
1.22532e-06
1.22338e-06
1.22319e-06
1.22227e-06
1.22092e-06
1.22166e-06
1.22247e-06
1.22329e-06
1.22478e-06
1.22489e-06
1.22425e-06
1.22378e-06
1.22391e-06
1.22327e-06
1.22195e-06
1.22246e-06
1.22224e-06
1.22311e-06
1.22202e-06
1.22222e-06
1.22232e-06
1.22399e-06
1.2246e-06
1.22371e-06
1.22272e-06
1.22444e-06
1.22462e-06
1.22252e-06
1.22364e-06
1.22431e-06
1.22482e-06
1.22473e-06
1.22236e-06
1.22208e-06
1.22282e-06
1.22105e-06
1.22203e-06
1.22304e-06
1.22365e-06
1.22429e-06
1.22567e-06
1.226e-06
1.22374e-06
1.22592e-06
1.22682e-06
1.22647e-06
1.22721e-06
1.22846e-06
1.22653e-06
1.22501e-06
1.22726e-06
1.22765e-06
1.22914e-06
1.22739e-06
1.22984e-06
1.22897e-06
1.22991e-06
1.231e-06
1.23237e-06
1.23179e-06
1.23274e-06
1.22991e-06
1.22972e-06
1.22998e-06
1.22871e-06
1.22979e-06
1.22827e-06
1.22778e-06
1.22751e-06
1.22643e-06
1.22755e-06
1.22721e-06
1.22633e-06
1.22706e-06
1.22966e-06
1.22975e-06
1.22921e-06
1.22755e-06
1.22582e-06
1.22553e-06
1.22739e-06
1.22759e-06
1.22878e-06
1.22963e-06
1.22805e-06
1.22658e-06
1.22886e-06
1.22971e-06
1.22944e-06
)
;

boundaryField
{
    inlet
    {
        type            calculated;
        value           uniform -1.225e-06;
    }
    outlet
    {
        type            calculated;
        value           uniform 1.23105e-06;
    }
    yzfaces
    {
        type            empty;
    }
}


// ************************************************************************* //
