/*--------------------------------*- C++ -*----------------------------------*\
| =========                 |                                                 |
| \\      /  F ield         | foam-extend: Open Source CFD                    |
|  \\    /   O peration     | Version:     5.0                                |
|   \\  /    A nd           | Web:         http://www.foam-extend.org         |
|    \\/     M anipulation  |                                                 |
\*---------------------------------------------------------------------------*/
FoamFile
{
    version     2.0;
    format      ascii;
    class       volScalarField;
    location    "1";
    object      S.gas;
}
// * * * * * * * * * * * * * * * * * * * * * * * * * * * * * * * * * * * * * //

dimensions      [0 0 0 0 0 0 0];

internalField   nonuniform List<scalar> 
100
(
0.57851
0.486246
0.431203
0.392441
0.362107
0.336748
0.315587
0.296562
0.278919
0.263018
0.248264
0.23401
0.220084
0.20638
0.192678
0.178943
0.164891
0.150595
0.135945
0.121088
0.106293
0.0922123
0.0796179
0.0693606
0.0618081
0.0568065
0.0537382
0.0519813
0.0510292
0.0505156
0.0502583
0.0501477
0.0500833
0.0500432
0.0500275
0.0499953
0.0499885
0.0499845
0.0500005
0.0500005
0.0499926
0.0499781
0.0499659
0.0499708
0.0499733
0.0499785
0.0499764
0.0499898
0.0499894
0.0499875
0.0499841
0.0499783
0.0499842
0.0499896
0.0499823
0.0499887
0.0499984
0.0499947
0.0499816
0.0499837
0.0499872
0.0499848
0.0499891
0.0500028
0.0499935
0.0499967
0.0500001
0.0499974
0.0499979
0.0500033
0.0500024
0.0500033
0.049997
0.0499956
0.0499942
0.0499892
0.0499797
0.0499854
0.0499798
0.0499907
0.0499938
0.0499943
0.0499902
0.0500025
0.049992
0.049991
0.0499838
0.0499967
0.0500061
0.0500087
0.0500244
0.0500333
0.0500341
0.0500285
0.050023
0.0500265
0.0500404
0.0500213
0.0500252
0.0500144
)
;

boundaryField
{
    inlet
    {
        type            calculated;
        value           uniform 1;
    }
    outlet
    {
        type            calculated;
        value           uniform 0.0500144;
    }
    yzfaces
    {
        type            empty;
    }
}


// ************************************************************************* //
