/*--------------------------------*- C++ -*----------------------------------*\
| =========                 |                                                 |
| \\      /  F ield         | foam-extend: Open Source CFD                    |
|  \\    /   O peration     | Version:     5.0                                |
|   \\  /    A nd           | Web:         http://www.foam-extend.org         |
|    \\/     M anipulation  |                                                 |
\*---------------------------------------------------------------------------*/
FoamFile
{
    version     2.0;
    format      ascii;
    class       volVectorField;
    location    "1";
    object      U.gas;
}
// * * * * * * * * * * * * * * * * * * * * * * * * * * * * * * * * * * * * * //

dimensions      [0 1 -1 0 0 0 0];

internalField   nonuniform List<vector> 
100
(
(0.00849909 0 0)
(0.00979465 0 0)
(0.0107244 0 0)
(0.0114224 0 0)
(0.0119605 0 0)
(0.0123988 0 0)
(0.012754 0 0)
(0.0130467 0 0)
(0.0132892 0 0)
(0.0134715 0 0)
(0.0135857 0 0)
(0.0136558 0 0)
(0.0136713 0 0)
(0.0136284 0 0)
(0.0135091 0 0)
(0.0133143 0 0)
(0.0130416 0 0)
(0.0126458 0 0)
(0.0121198 0 0)
(0.0114311 0 0)
(0.0105725 0 0)
(0.00956264 0 0)
(0.00847198 0 0)
(0.00739636 0 0)
(0.00645883 0 0)
(0.00575086 0 0)
(0.00527915 0 0)
(0.0049897 0 0)
(0.00482383 0 0)
(0.00473359 0 0)
(0.004686 0 0)
(0.00466495 0 0)
(0.00465923 0 0)
(0.00465189 0 0)
(0.00464519 0 0)
(0.00464623 0 0)
(0.00464632 0 0)
(0.00464195 0 0)
(0.00463926 0 0)
(0.0046435 0 0)
(0.00464687 0 0)
(0.00464823 0 0)
(0.00464216 0 0)
(0.00463504 0 0)
(0.00463621 0 0)
(0.0046346 0 0)
(0.00463362 0 0)
(0.00463662 0 0)
(0.00464001 0 0)
(0.00464324 0 0)
(0.00464777 0 0)
(0.00465082 0 0)
(0.00464766 0 0)
(0.00464734 0 0)
(0.00465249 0 0)
(0.00465268 0 0)
(0.00465402 0 0)
(0.00465869 0 0)
(0.00465769 0 0)
(0.00465105 0 0)
(0.00465234 0 0)
(0.0046573 0 0)
(0.00465933 0 0)
(0.00465939 0 0)
(0.00466249 0 0)
(0.00466348 0 0)
(0.00466457 0 0)
(0.00466852 0 0)
(0.00467278 0 0)
(0.00467547 0 0)
(0.00467649 0 0)
(0.00467311 0 0)
(0.00466718 0 0)
(0.00466676 0 0)
(0.00466556 0 0)
(0.0046634 0 0)
(0.0046617 0 0)
(0.00465839 0 0)
(0.00465789 0 0)
(0.00465457 0 0)
(0.00465566 0 0)
(0.00465702 0 0)
(0.00465492 0 0)
(0.00465538 0 0)
(0.00466135 0 0)
(0.00466424 0 0)
(0.00466389 0 0)
(0.00465946 0 0)
(0.00465471 0 0)
(0.00465236 0 0)
(0.00465604 0 0)
(0.00466199 0 0)
(0.00466455 0 0)
(0.0046671 0 0)
(0.00466551 0 0)
(0.00466037 0 0)
(0.00466184 0 0)
(0.00466769 0 0)
(0.0046668 0 0)
(0.00466911 0 0)
)
;

boundaryField
{
    inlet
    {
        type            fixedValue;
        value           uniform (0.005 0 0);
    }
    outlet
    {
        type            zeroGradient;
    }
    yzfaces
    {
        type            empty;
    }
}


// ************************************************************************* //
