/*--------------------------------*- C++ -*----------------------------------*\
| =========                 |                                                 |
| \\      /  F ield         | foam-extend: Open Source CFD                    |
|  \\    /   O peration     | Version:     5.0                                |
|   \\  /    A nd           | Web:         http://www.foam-extend.org         |
|    \\/     M anipulation  |                                                 |
\*---------------------------------------------------------------------------*/
FoamFile
{
    version     2.0;
    format      ascii;
    class       volVectorField;
    location    "1";
    object      U.water;
}
// * * * * * * * * * * * * * * * * * * * * * * * * * * * * * * * * * * * * * //

dimensions      [0 1 -1 0 0 0 0];

internalField   nonuniform List<vector> 
100
(
(0.000172814 0 0)
(0.000431291 0 0)
(0.000658113 0 0)
(0.000865276 0 0)
(0.00105814 0 0)
(0.00124655 0 0)
(0.00143179 0 0)
(0.00161115 0 0)
(0.00179514 0 0)
(0.00198131 0 0)
(0.00216562 0 0)
(0.00235221 0 0)
(0.00254408 0 0)
(0.00274452 0 0)
(0.00295199 0 0)
(0.00316951 0 0)
(0.00339786 0 0)
(0.00363427 0 0)
(0.00387525 0 0)
(0.00411322 0 0)
(0.00433529 0 0)
(0.00453211 0 0)
(0.00469455 0 0)
(0.00481522 0 0)
(0.00489349 0 0)
(0.00494269 0 0)
(0.00497274 0 0)
(0.00499057 0 0)
(0.00499902 0 0)
(0.0050018 0 0)
(0.00500489 0 0)
(0.00500977 0 0)
(0.00501494 0 0)
(0.00501471 0 0)
(0.00501103 0 0)
(0.00501253 0 0)
(0.00501659 0 0)
(0.00501269 0 0)
(0.00501074 0 0)
(0.00501435 0 0)
(0.0050167 0 0)
(0.00501753 0 0)
(0.00501256 0 0)
(0.00500724 0 0)
(0.00500818 0 0)
(0.00500604 0 0)
(0.0050044 0 0)
(0.00500852 0 0)
(0.00501182 0 0)
(0.00501434 0 0)
(0.00501844 0 0)
(0.00502197 0 0)
(0.00501799 0 0)
(0.00501782 0 0)
(0.00502417 0 0)
(0.00502535 0 0)
(0.00502612 0 0)
(0.00503015 0 0)
(0.00502874 0 0)
(0.00502168 0 0)
(0.00502318 0 0)
(0.00502858 0 0)
(0.00503251 0 0)
(0.00503196 0 0)
(0.00503329 0 0)
(0.00503665 0 0)
(0.00503674 0 0)
(0.00504087 0 0)
(0.00504593 0 0)
(0.00504751 0 0)
(0.00504824 0 0)
(0.00504437 0 0)
(0.0050382 0 0)
(0.00503839 0 0)
(0.00503627 0 0)
(0.00503596 0 0)
(0.00503511 0 0)
(0.00503097 0 0)
(0.00502937 0 0)
(0.00502666 0 0)
(0.00502667 0 0)
(0.00502827 0 0)
(0.00502578 0 0)
(0.00502542 0 0)
(0.00503225 0 0)
(0.00503788 0 0)
(0.00503692 0 0)
(0.00503243 0 0)
(0.00502542 0 0)
(0.00502121 0 0)
(0.00502439 0 0)
(0.00502849 0 0)
(0.00503134 0 0)
(0.00503558 0 0)
(0.00503411 0 0)
(0.00502784 0 0)
(0.00502951 0 0)
(0.00503592 0 0)
(0.0050372 0 0)
(0.00503994 0 0)
)
;

boundaryField
{
    inlet
    {
        type            fixedValue;
        value           uniform (0 0 0);
    }
    outlet
    {
        type            zeroGradient;
    }
    yzfaces
    {
        type            empty;
    }
}


// ************************************************************************* //
