/*--------------------------------*- C++ -*----------------------------------*\
| =========                 |                                                 |
| \\      /  F ield         | foam-extend: Open Source CFD                    |
|  \\    /   O peration     | Version:     5.0                                |
|   \\  /    A nd           | Web:         http://www.foam-extend.org         |
|    \\/     M anipulation  |                                                 |
\*---------------------------------------------------------------------------*/
FoamFile
{
    version     2.0;
    format      ascii;
    class       volScalarField;
    location    "7";
    object      Cl.water;
}
// * * * * * * * * * * * * * * * * * * * * * * * * * * * * * * * * * * * * * //

dimensions      [0 0 0 0 0 0 0];

internalField   nonuniform List<scalar> 
100
(
0.00427297
0.0056919
0.0068513
0.0074764
0.00775701
0.00830848
0.00886543
0.00939303
0.00986185
0.0102259
0.0105787
0.0109092
0.0112073
0.0114949
0.0117731
0.0119798
0.0121946
0.0123954
0.0125641
0.0127641
0.0129198
0.0129832
0.0130547
0.013167
0.013293
0.0133989
0.0135397
0.0137062
0.0138108
0.0139332
0.014064
0.0141726
0.0142541
0.0143489
0.0144204
0.0145195
0.0146024
0.0146915
0.014784
0.0148527
0.014939
0.0150005
0.0150602
0.0151462
0.0152147
0.0153018
0.0153867
0.015438
0.0155154
0.0155909
0.0156568
0.0157241
0.0157859
0.015842
0.0158993
0.0159599
0.0160129
0.0160753
0.0161325
0.0161867
0.0162421
0.0162952
0.0163565
0.0164145
0.0164611
0.0165185
0.0165681
0.016612
0.0166505
0.0166856
0.0167305
0.0167861
0.0168292
0.0168797
0.0169286
0.0169754
0.0170185
0.0170653
0.017117
0.0171666
0.0172271
0.0172687
0.0173259
0.0173791
0.0174306
0.0174851
0.0175464
0.0176057
0.0176647
0.01772
0.0177752
0.017831
0.0178846
0.0179392
0.0179963
0.0180505
0.0181096
0.0181632
0.0182238
0.0182768
)
;

boundaryField
{
    inlet
    {
        type            fixedValue;
        value           uniform 0;
    }
    outlet
    {
        type            zeroGradient;
    }
    yzfaces
    {
        type            empty;
    }
}


// ************************************************************************* //
