/*--------------------------------*- C++ -*----------------------------------*\
| =========                 |                                                 |
| \\      /  F ield         | foam-extend: Open Source CFD                    |
|  \\    /   O peration     | Version:     5.0                                |
|   \\  /    A nd           | Web:         http://www.foam-extend.org         |
|    \\/     M anipulation  |                                                 |
\*---------------------------------------------------------------------------*/
FoamFile
{
    version     2.0;
    format      ascii;
    class       volScalarField;
    location    "7";
    object      CO2.gas;
}
// * * * * * * * * * * * * * * * * * * * * * * * * * * * * * * * * * * * * * //

dimensions      [0 0 0 0 0 0 0];

internalField   nonuniform List<scalar> 
100
(
0.16247
0.150134
0.140056
0.13463
0.132203
0.127416
0.122555
0.117972
0.1139
0.110723
0.107653
0.104789
0.102174
0.0996971
0.0972859
0.095546
0.0936631
0.09191
0.0904401
0.0887113
0.087363
0.0868121
0.0861922
0.085182
0.0840819
0.0831402
0.0819054
0.0804436
0.0795383
0.0784846
0.077363
0.076389
0.075696
0.0748745
0.0742595
0.0733876
0.0726786
0.0718959
0.0711153
0.0705228
0.0698026
0.0692552
0.0687092
0.0679872
0.0673945
0.0666778
0.0659459
0.0654611
0.0647897
0.0641201
0.063545
0.0629804
0.0624435
0.0619833
0.0614682
0.0609443
0.0604854
0.0599398
0.0593878
0.0588867
0.058422
0.0579919
0.0575214
0.0569885
0.0565442
0.0560733
0.0556084
0.0552421
0.0549164
0.0545792
0.0541484
0.0536744
0.0532836
0.0528576
0.0524639
0.0520484
0.0516701
0.051255
0.0508204
0.0503966
0.0498911
0.0494893
0.0490043
0.0485295
0.048055
0.0476192
0.0470901
0.0465597
0.0460556
0.0455739
0.0451075
0.044629
0.0441701
0.0436997
0.0432162
0.0427401
0.0422383
0.0417539
0.0412439
0.0407761
)
;

boundaryField
{
    inlet
    {
        type            fixedValue;
        value           uniform 0.2;
    }
    outlet
    {
        type            zeroGradient;
    }
    yzfaces
    {
        type            empty;
    }
}


// ************************************************************************* //
