/*--------------------------------*- C++ -*----------------------------------*\
| =========                 |                                                 |
| \\      /  F ield         | foam-extend: Open Source CFD                    |
|  \\    /   O peration     | Version:     5.0                                |
|   \\  /    A nd           | Web:         http://www.foam-extend.org         |
|    \\/     M anipulation  |                                                 |
\*---------------------------------------------------------------------------*/
FoamFile
{
    version     2.0;
    format      ascii;
    class       volScalarField;
    location    "7";
    object      CO2.water;
}
// * * * * * * * * * * * * * * * * * * * * * * * * * * * * * * * * * * * * * //

dimensions      [0 0 0 0 0 0 0];

internalField   nonuniform List<scalar> 
100
(
0.000976659
0.00130263
0.001555
0.00170401
0.00176758
0.001884
0.0020124
0.00214829
0.00225545
0.00233858
0.00242341
0.00250834
0.00257394
0.0026419
0.00269167
0.00274096
0.00279718
0.00284061
0.00288418
0.0029215
0.00295532
0.00296813
0.00298192
0.00300753
0.00303767
0.00306749
0.0031002
0.00313583
0.00316663
0.00319671
0.00322562
0.0032482
0.0032676
0.0032862
0.00330682
0.00332321
0.00334749
0.0033674
0.00338671
0.00340384
0.00341907
0.00343393
0.00345242
0.00347014
0.00348744
0.00350396
0.00351787
0.00353541
0.00354979
0.00356378
0.00357979
0.00359627
0.00361061
0.00362449
0.00363864
0.00365136
0.00366501
0.0036773
0.00369097
0.0037029
0.00371658
0.00372815
0.00374
0.00375408
0.00376571
0.00377865
0.00378999
0.0037997
0.00381084
0.00382055
0.0038319
0.00384192
0.00385139
0.00386142
0.00387233
0.00388358
0.00389378
0.0039042
0.00391608
0.00392841
0.00393991
0.00395099
0.00396332
0.00397597
0.00398874
0.00400322
0.00401623
0.00402931
0.00404304
0.00405572
0.00406797
0.000374473
3.66947e-05
3.74899e-06
3.89921e-07
4.03656e-08
4.00512e-09
3.68715e-10
2.94785e-11
5.62296e-13
)
;

boundaryField
{
    inlet
    {
        type            fixedValue;
        value           uniform 0;
    }
    outlet
    {
        type            zeroGradient;
    }
    yzfaces
    {
        type            empty;
    }
}


// ************************************************************************* //
