/*--------------------------------*- C++ -*----------------------------------*\
| =========                 |                                                 |
| \\      /  F ield         | foam-extend: Open Source CFD                    |
|  \\    /   O peration     | Version:     5.0                                |
|   \\  /    A nd           | Web:         http://www.foam-extend.org         |
|    \\/     M anipulation  |                                                 |
\*---------------------------------------------------------------------------*/
FoamFile
{
    version     2.0;
    format      ascii;
    class       volScalarField;
    location    "7";
    object      H2O.water;
}
// * * * * * * * * * * * * * * * * * * * * * * * * * * * * * * * * * * * * * //

dimensions      [0 0 0 0 0 0 0];

internalField   nonuniform List<scalar> 
100
(
0.0276685
0.036903
0.0440528
0.0482742
0.050075
0.0533732
0.0570107
0.0608605
0.0638963
0.0662513
0.0686547
0.0710608
0.0729192
0.0748442
0.0762543
0.0776508
0.0792434
0.0804737
0.0817081
0.0827654
0.0837236
0.0840865
0.084477
0.0852025
0.0860564
0.0869013
0.0878278
0.0888373
0.0897098
0.0905621
0.0913811
0.0920208
0.0925702
0.0930972
0.0936814
0.0941456
0.0948337
0.0953977
0.0959445
0.09643
0.0968615
0.0972825
0.0978063
0.0983081
0.0987983
0.0992663
0.0996604
0.100157
0.100565
0.100961
0.101415
0.101881
0.102288
0.102681
0.103082
0.103442
0.103829
0.104177
0.104564
0.104902
0.10529
0.105617
0.105953
0.106352
0.106682
0.107048
0.10737
0.107645
0.10796
0.108235
0.108557
0.108841
0.109109
0.109393
0.109702
0.110021
0.11031
0.110605
0.110941
0.111291
0.111617
0.11193
0.11228
0.112638
0.113
0.11341
0.113779
0.114149
0.114538
0.114897
0.115245
0.119327
0.120051
0.12046
0.120855
0.121223
0.121609
0.122004
0.122384
0.122781
)
;

boundaryField
{
    inlet
    {
        type            fixedValue;
        value           uniform 0;
    }
    outlet
    {
        type            zeroGradient;
    }
    yzfaces
    {
        type            empty;
    }
}


// ************************************************************************* //
