/*--------------------------------*- C++ -*----------------------------------*\
| =========                 |                                                 |
| \\      /  F ield         | foam-extend: Open Source CFD                    |
|  \\    /   O peration     | Version:     5.0                                |
|   \\  /    A nd           | Web:         http://www.foam-extend.org         |
|    \\/     M anipulation  |                                                 |
\*---------------------------------------------------------------------------*/
FoamFile
{
    version     2.0;
    format      ascii;
    class       volScalarField;
    location    "7";
    object      Na.water;
}
// * * * * * * * * * * * * * * * * * * * * * * * * * * * * * * * * * * * * * //

dimensions      [0 0 0 0 0 0 0];

internalField   nonuniform List<scalar> 
100
(
0.00427031
0.00569278
0.006795
0.00744337
0.00772441
0.0082331
0.00879617
0.00939129
0.00985835
0.0102211
0.0105927
0.010961
0.0112501
0.0115444
0.0117641
0.0119849
0.0122319
0.0124184
0.0126057
0.012768
0.0129178
0.012974
0.0130354
0.0131461
0.0132734
0.0134067
0.0135511
0.0137063
0.0138393
0.0139718
0.014099
0.0141998
0.0142884
0.0143662
0.0144556
0.0145263
0.0146318
0.0147189
0.0148028
0.0148783
0.0149443
0.015007
0.0150895
0.0151653
0.0152407
0.0153178
0.0153787
0.0154537
0.0155189
0.0155853
0.0156548
0.0157247
0.015786
0.0158428
0.0159056
0.0159558
0.0160126
0.0160711
0.0161383
0.016191
0.0162521
0.0162969
0.0163509
0.0164118
0.0164651
0.0165195
0.0165657
0.0166123
0.0166564
0.016706
0.0167607
0.0168079
0.0168469
0.0168897
0.0169392
0.0169871
0.0170294
0.0170754
0.0171251
0.0171766
0.0172253
0.0172724
0.0173267
0.0173841
0.0174383
0.0174977
0.0175534
0.0176112
0.0176705
0.017729
0.0177804
0.0178385
0.0178999
0.0179536
0.0180137
0.0180682
0.0181278
0.0181874
0.0182398
0.018301
)
;

boundaryField
{
    inlet
    {
        type            fixedValue;
        value           uniform 0;
    }
    outlet
    {
        type            zeroGradient;
    }
    yzfaces
    {
        type            empty;
    }
}


// ************************************************************************* //
