/*--------------------------------*- C++ -*----------------------------------*\
| =========                 |                                                 |
| \\      /  F ield         | foam-extend: Open Source CFD                    |
|  \\    /   O peration     | Version:     5.0                                |
|   \\  /    A nd           | Web:         http://www.foam-extend.org         |
|    \\/     M anipulation  |                                                 |
\*---------------------------------------------------------------------------*/
FoamFile
{
    version     2.0;
    format      ascii;
    class       volScalarField;
    location    "7";
    object      Na.water;
}
// * * * * * * * * * * * * * * * * * * * * * * * * * * * * * * * * * * * * * //

dimensions      [0 0 0 0 0 0 0];

internalField   nonuniform List<scalar> 
100
(
0.00427357
0.00569354
0.00685314
0.0074766
0.00775453
0.00830461
0.00886615
0.00939337
0.00986147
0.0102286
0.0105823
0.0109106
0.0112144
0.0114968
0.0117734
0.0119671
0.0121855
0.0123882
0.0125577
0.0127556
0.0129101
0.0129735
0.0130446
0.0131648
0.0132919
0.0134027
0.0135461
0.0137159
0.0138197
0.0139397
0.014067
0.0141826
0.0142606
0.0143548
0.0144248
0.0145264
0.0146066
0.0146976
0.0147848
0.0148524
0.0149319
0.0149963
0.0150622
0.0151424
0.0152103
0.0152881
0.0153716
0.0154319
0.015509
0.0155876
0.015654
0.0157167
0.0157784
0.0158282
0.0158894
0.0159494
0.016002
0.0160652
0.016135
0.016196
0.0162476
0.0162935
0.0163404
0.0164051
0.0164607
0.0165116
0.0165691
0.0166094
0.0166459
0.0166884
0.0167426
0.0167961
0.016843
0.0168904
0.0169321
0.0169809
0.0170249
0.0170736
0.017122
0.0171699
0.0172257
0.0172766
0.017331
0.017387
0.0174447
0.0174905
0.0175509
0.0176137
0.0176706
0.0177263
0.0177784
0.0178327
0.0178847
0.0179384
0.0179925
0.0180478
0.0181042
0.0181621
0.0182188
0.0182735
)
;

boundaryField
{
    inlet
    {
        type            fixedValue;
        value           uniform 0;
    }
    outlet
    {
        type            zeroGradient;
    }
    yzfaces
    {
        type            empty;
    }
}


// ************************************************************************* //
