/*--------------------------------*- C++ -*----------------------------------*\
| =========                 |                                                 |
| \\      /  F ield         | foam-extend: Open Source CFD                    |
|  \\    /   O peration     | Version:     5.0                                |
|   \\  /    A nd           | Web:         http://www.foam-extend.org         |
|    \\/     M anipulation  |                                                 |
\*---------------------------------------------------------------------------*/
FoamFile
{
    version     2.0;
    format      ascii;
    class       volScalarField;
    location    "7";
    object      Ns;
}
// * * * * * * * * * * * * * * * * * * * * * * * * * * * * * * * * * * * * * //

dimensions      [0 -3 0 0 1 0 0];

internalField   nonuniform List<scalar> 
100
(
34.1044
106.122
45.7193
194.124
139.859
147.08
115.131
115.345
68.4664
49.1304
84.1732
60.3002
53.8816
34.1314
55.9332
35.7136
19.1874
67.3724
29.0828
24.8969
43.0814
65.2698
93.7572
58.2724
56.4544
83.0002
54.9455
67.5087
49.8365
42.0496
62.9526
47.7029
59.8942
44.9935
47.301
27.0336
64.7104
55.5511
52.5177
46.9228
81.8447
68.8776
57.0469
64.2024
74.9426
57.4195
50.4081
63.5971
64.024
72.6736
54.1262
37.8672
71.9969
52.187
54.5056
69.8459
54.2578
59.6143
50.3425
57.97
56.2255
59.0108
55.1427
53.8958
54.0049
54.5978
62.2063
61.9154
74.0536
70.5801
67.6295
66.9434
65.3388
70.3987
67.1964
58.4599
57.9495
58.3751
60.6363
54.9346
51.5579
52.3067
51.6112
51.6439
55.9293
55.4846
49.3045
52.5982
49.4203
54.9255
48.5262
53.2013
47.8711
51.3069
53.888
48.4042
46.1962
48.5673
48.54
49.9272
)
;

boundaryField
{
    inlet
    {
        type            fixedValue;
        value           uniform 0;
    }
    outlet
    {
        type            zeroGradient;
    }
    yzfaces
    {
        type            empty;
    }
}


// ************************************************************************* //
