/*--------------------------------*- C++ -*----------------------------------*\
| =========                 |                                                 |
| \\      /  F ield         | foam-extend: Open Source CFD                    |
|  \\    /   O peration     | Version:     5.0                                |
|   \\  /    A nd           | Web:         http://www.foam-extend.org         |
|    \\/     M anipulation  |                                                 |
\*---------------------------------------------------------------------------*/
FoamFile
{
    version     2.0;
    format      ascii;
    class       surfaceScalarField;
    location    "7";
    object      phi;
}
// * * * * * * * * * * * * * * * * * * * * * * * * * * * * * * * * * * * * * //

dimensions      [0 3 -1 0 0 0 0];

internalField   nonuniform List<scalar> 
99
(
1.22512e-06
1.2389e-06
1.22688e-06
1.23728e-06
1.23458e-06
1.23101e-06
1.22671e-06
1.21071e-06
1.20882e-06
1.20848e-06
1.20348e-06
1.20528e-06
1.20811e-06
1.21099e-06
1.2054e-06
1.20937e-06
1.21088e-06
1.20818e-06
1.21515e-06
1.21723e-06
1.21499e-06
1.20675e-06
1.20495e-06
1.19869e-06
1.19552e-06
1.19856e-06
1.19976e-06
1.20156e-06
1.20719e-06
1.20709e-06
1.20952e-06
1.21163e-06
1.21261e-06
1.2096e-06
1.20951e-06
1.20619e-06
1.20457e-06
1.2073e-06
1.20943e-06
1.20598e-06
1.20531e-06
1.20376e-06
1.20514e-06
1.20378e-06
1.20501e-06
1.20796e-06
1.20631e-06
1.21125e-06
1.20999e-06
1.20799e-06
1.20954e-06
1.21272e-06
1.21203e-06
1.20923e-06
1.21034e-06
1.2099e-06
1.21066e-06
1.20968e-06
1.20796e-06
1.20425e-06
1.20459e-06
1.20061e-06
1.20016e-06
1.20163e-06
1.20259e-06
1.20162e-06
1.20295e-06
1.20055e-06
1.19747e-06
1.19641e-06
1.1949e-06
1.19747e-06
1.19705e-06
1.19843e-06
1.19788e-06
1.19825e-06
1.19733e-06
1.19856e-06
1.19858e-06
1.19756e-06
1.19406e-06
1.19288e-06
1.19033e-06
1.19075e-06
1.19009e-06
1.18902e-06
1.1898e-06
1.18915e-06
1.19023e-06
1.19064e-06
1.18942e-06
1.19022e-06
1.18923e-06
1.18927e-06
1.18932e-06
1.19139e-06
1.19207e-06
1.19367e-06
1.19416e-06
)
;

boundaryField
{
    inlet
    {
        type            calculated;
        value           uniform -1.225e-06;
    }
    outlet
    {
        type            calculated;
        value           uniform 1.19756e-06;
    }
    yzfaces
    {
        type            empty;
    }
}


// ************************************************************************* //
