/*--------------------------------*- C++ -*----------------------------------*\
| =========                 |                                                 |
| \\      /  F ield         | foam-extend: Open Source CFD                    |
|  \\    /   O peration     | Version:     5.0                                |
|   \\  /    A nd           | Web:         http://www.foam-extend.org         |
|    \\/     M anipulation  |                                                 |
\*---------------------------------------------------------------------------*/
FoamFile
{
    version     2.0;
    format      ascii;
    class       surfaceScalarField;
    location    "7";
    object      phi;
}
// * * * * * * * * * * * * * * * * * * * * * * * * * * * * * * * * * * * * * //

dimensions      [0 3 -1 0 0 0 0];

internalField   nonuniform List<scalar> 
99
(
1.22915e-06
1.22628e-06
1.22628e-06
1.24533e-06
1.22788e-06
1.22507e-06
1.21292e-06
1.21623e-06
1.21253e-06
1.2114e-06
1.20989e-06
1.20375e-06
1.2082e-06
1.20075e-06
1.20202e-06
1.20278e-06
1.20115e-06
1.20432e-06
1.2011e-06
1.2099e-06
1.20883e-06
1.21284e-06
1.20447e-06
1.20559e-06
1.20412e-06
1.19946e-06
1.19521e-06
1.19955e-06
1.19043e-06
1.18885e-06
1.19118e-06
1.19296e-06
1.19228e-06
1.19347e-06
1.19108e-06
1.19507e-06
1.19511e-06
1.19448e-06
1.19424e-06
1.19174e-06
1.19378e-06
1.19156e-06
1.19268e-06
1.1941e-06
1.19163e-06
1.18912e-06
1.19001e-06
1.18745e-06
1.18647e-06
1.18794e-06
1.18858e-06
1.19053e-06
1.19124e-06
1.19088e-06
1.18769e-06
1.18716e-06
1.18867e-06
1.18567e-06
1.1868e-06
1.18561e-06
1.18811e-06
1.18696e-06
1.18567e-06
1.18431e-06
1.18356e-06
1.18122e-06
1.18492e-06
1.18178e-06
1.18029e-06
1.17589e-06
1.17738e-06
1.17853e-06
1.17942e-06
1.18002e-06
1.18148e-06
1.18172e-06
1.17964e-06
1.17639e-06
1.17419e-06
1.17323e-06
1.1742e-06
1.17111e-06
1.17021e-06
1.16958e-06
1.17078e-06
1.16614e-06
1.16481e-06
1.16426e-06
1.16369e-06
1.16359e-06
1.16488e-06
1.16437e-06
1.16452e-06
1.1628e-06
1.16213e-06
1.16174e-06
1.16186e-06
1.16189e-06
1.16171e-06
)
;

boundaryField
{
    inlet
    {
        type            calculated;
        value           uniform -1.225e-06;
    }
    outlet
    {
        type            calculated;
        value           uniform 1.16059e-06;
    }
    yzfaces
    {
        type            empty;
    }
}


// ************************************************************************* //
