/*--------------------------------*- C++ -*----------------------------------*\
| =========                 |                                                 |
| \\      /  F ield         | foam-extend: Open Source CFD                    |
|  \\    /   O peration     | Version:     5.0                                |
|   \\  /    A nd           | Web:         http://www.foam-extend.org         |
|    \\/     M anipulation  |                                                 |
\*---------------------------------------------------------------------------*/
FoamFile
{
    version     2.0;
    format      ascii;
    class       volVectorField;
    location    "7";
    object      U.gas;
}
// * * * * * * * * * * * * * * * * * * * * * * * * * * * * * * * * * * * * * //

dimensions      [0 1 -1 0 0 0 0];

internalField   nonuniform List<vector> 
100
(
(0.0061332 0 0)
(0.00665643 0 0)
(0.00709093 0 0)
(0.00735825 0 0)
(0.00749901 0 0)
(0.0077208 0 0)
(0.00797252 0 0)
(0.00821461 0 0)
(0.00840368 0 0)
(0.00859641 0 0)
(0.00879422 0 0)
(0.00900732 0 0)
(0.0091979 0 0)
(0.00941157 0 0)
(0.00953763 0 0)
(0.00967491 0 0)
(0.0098681 0 0)
(0.00998836 0 0)
(0.0101406 0 0)
(0.0102927 0 0)
(0.0103964 0 0)
(0.0103774 0 0)
(0.010379 0 0)
(0.0104342 0 0)
(0.0104914 0 0)
(0.0105857 0 0)
(0.0107131 0 0)
(0.0108446 0 0)
(0.0109748 0 0)
(0.0110996 0 0)
(0.0112043 0 0)
(0.0112933 0 0)
(0.0113674 0 0)
(0.0114186 0 0)
(0.0114752 0 0)
(0.011506 0 0)
(0.0115731 0 0)
(0.0116381 0 0)
(0.0117227 0 0)
(0.0117688 0 0)
(0.0117959 0 0)
(0.0118326 0 0)
(0.0118966 0 0)
(0.0119514 0 0)
(0.0120042 0 0)
(0.0120754 0 0)
(0.0121207 0 0)
(0.0121979 0 0)
(0.0122539 0 0)
(0.0122779 0 0)
(0.012327 0 0)
(0.0124015 0 0)
(0.012452 0 0)
(0.0124728 0 0)
(0.0125036 0 0)
(0.0125394 0 0)
(0.0125812 0 0)
(0.0126095 0 0)
(0.0126335 0 0)
(0.0126301 0 0)
(0.0126528 0 0)
(0.0126568 0 0)
(0.0126618 0 0)
(0.0127074 0 0)
(0.0127401 0 0)
(0.0127728 0 0)
(0.0127944 0 0)
(0.0128037 0 0)
(0.0128021 0 0)
(0.012794 0 0)
(0.0128059 0 0)
(0.012825 0 0)
(0.0128509 0 0)
(0.0128757 0 0)
(0.0129029 0 0)
(0.0129215 0 0)
(0.0129283 0 0)
(0.0129435 0 0)
(0.0129718 0 0)
(0.0129825 0 0)
(0.0129681 0 0)
(0.0129535 0 0)
(0.0129485 0 0)
(0.0129481 0 0)
(0.012957 0 0)
(0.0129634 0 0)
(0.0129607 0 0)
(0.012964 0 0)
(0.0129717 0 0)
(0.0129748 0 0)
(0.0129658 0 0)
(0.0129637 0 0)
(0.0129553 0 0)
(0.0129393 0 0)
(0.0129331 0 0)
(0.0129243 0 0)
(0.0129288 0 0)
(0.0129238 0 0)
(0.0129103 0 0)
(0.0129183 0 0)
)
;

boundaryField
{
    inlet
    {
        type            fixedValue;
        value           uniform (0.005 0 0);
    }
    outlet
    {
        type            zeroGradient;
    }
    yzfaces
    {
        type            empty;
    }
}


// ************************************************************************* //
