/*--------------------------------*- C++ -*----------------------------------*\
| =========                 |                                                 |
| \\      /  F ield         | foam-extend: Open Source CFD                    |
|  \\    /   O peration     | Version:     5.0                                |
|   \\  /    A nd           | Web:         http://www.foam-extend.org         |
|    \\/     M anipulation  |                                                 |
\*---------------------------------------------------------------------------*/
FoamFile
{
    version     2.0;
    format      ascii;
    class       volVectorField;
    location    "7";
    object      U.gas;
}
// * * * * * * * * * * * * * * * * * * * * * * * * * * * * * * * * * * * * * //

dimensions      [0 1 -1 0 0 0 0];

internalField   nonuniform List<vector> 
100
(
(0.00614428 0 0)
(0.00663227 0 0)
(0.00707542 0 0)
(0.00739181 0 0)
(0.00751583 0 0)
(0.0077153 0 0)
(0.00794229 0 0)
(0.00818494 0 0)
(0.00843636 0 0)
(0.00862157 0 0)
(0.00881817 0 0)
(0.0089879 0 0)
(0.00916674 0 0)
(0.00933609 0 0)
(0.00949212 0 0)
(0.00962661 0 0)
(0.00977141 0 0)
(0.00991418 0 0)
(0.0100283 0 0)
(0.010196 0 0)
(0.0103341 0 0)
(0.0103795 0 0)
(0.0104132 0 0)
(0.0104729 0 0)
(0.0105673 0 0)
(0.0106169 0 0)
(0.0106881 0 0)
(0.010818 0 0)
(0.0108605 0 0)
(0.0109062 0 0)
(0.0110072 0 0)
(0.0111055 0 0)
(0.0111615 0 0)
(0.0112377 0 0)
(0.0112784 0 0)
(0.0113689 0 0)
(0.0114428 0 0)
(0.0115099 0 0)
(0.0115728 0 0)
(0.0116016 0 0)
(0.0116652 0 0)
(0.0117031 0 0)
(0.0117424 0 0)
(0.011822 0 0)
(0.0118601 0 0)
(0.0119006 0 0)
(0.0119533 0 0)
(0.0119708 0 0)
(0.0120152 0 0)
(0.0120697 0 0)
(0.0121194 0 0)
(0.0121749 0 0)
(0.0122257 0 0)
(0.012258 0 0)
(0.0122834 0 0)
(0.012302 0 0)
(0.0123332 0 0)
(0.012369 0 0)
(0.012398 0 0)
(0.0124275 0 0)
(0.0124626 0 0)
(0.0124947 0 0)
(0.0125136 0 0)
(0.0125369 0 0)
(0.0125457 0 0)
(0.0125592 0 0)
(0.0125915 0 0)
(0.012606 0 0)
(0.0125932 0 0)
(0.0125803 0 0)
(0.0125946 0 0)
(0.0126352 0 0)
(0.0126571 0 0)
(0.0126876 0 0)
(0.0127125 0 0)
(0.0127389 0 0)
(0.0127399 0 0)
(0.012731 0 0)
(0.0127172 0 0)
(0.0127123 0 0)
(0.0127362 0 0)
(0.0127241 0 0)
(0.0127228 0 0)
(0.0127229 0 0)
(0.0127349 0 0)
(0.0127169 0 0)
(0.0127022 0 0)
(0.0126955 0 0)
(0.0126892 0 0)
(0.0126828 0 0)
(0.0126854 0 0)
(0.0126894 0 0)
(0.0126785 0 0)
(0.0126624 0 0)
(0.0126398 0 0)
(0.0126227 0 0)
(0.012613 0 0)
(0.0125941 0 0)
(0.0125769 0 0)
(0.012545 0 0)
)
;

boundaryField
{
    inlet
    {
        type            fixedValue;
        value           uniform (0.005 0 0);
    }
    outlet
    {
        type            zeroGradient;
    }
    yzfaces
    {
        type            empty;
    }
}


// ************************************************************************* //
