/*--------------------------------*- C++ -*----------------------------------*\
| =========                 |                                                 |
| \\      /  F ield         | foam-extend: Open Source CFD                    |
|  \\    /   O peration     | Version:     5.0                                |
|   \\  /    A nd           | Web:         http://www.foam-extend.org         |
|    \\/     M anipulation  |                                                 |
\*---------------------------------------------------------------------------*/
FoamFile
{
    version     2.0;
    format      ascii;
    class       volVectorField;
    location    "7";
    object      U.water;
}
// * * * * * * * * * * * * * * * * * * * * * * * * * * * * * * * * * * * * * //

dimensions      [0 1 -1 0 0 0 0];

internalField   nonuniform List<vector> 
100
(
(3.96968e-05 0 0)
(9.22034e-05 0 0)
(0.000136443 0 0)
(0.000177664 0 0)
(0.000205023 0 0)
(0.000223444 0 0)
(0.000254541 0 0)
(0.000291592 0 0)
(0.000331721 0 0)
(0.000368282 0 0)
(0.000401746 0 0)
(0.000439054 0 0)
(0.000478361 0 0)
(0.000514648 0 0)
(0.000548391 0 0)
(0.000577874 0 0)
(0.000612116 0 0)
(0.000647019 0 0)
(0.00067897 0 0)
(0.000711707 0 0)
(0.000740099 0 0)
(0.000758562 0 0)
(0.000765753 0 0)
(0.000777617 0 0)
(0.000798509 0 0)
(0.000825131 0 0)
(0.000854259 0 0)
(0.000887774 0 0)
(0.000923978 0 0)
(0.000956826 0 0)
(0.000989666 0 0)
(0.00102077 0 0)
(0.00104681 0 0)
(0.00106796 0 0)
(0.00108913 0 0)
(0.00111146 0 0)
(0.0011329 0 0)
(0.00116175 0 0)
(0.00119024 0 0)
(0.00121405 0 0)
(0.0012336 0 0)
(0.00125294 0 0)
(0.00127572 0 0)
(0.00130182 0 0)
(0.00132755 0 0)
(0.00135516 0 0)
(0.00137912 0 0)
(0.00140493 0 0)
(0.00143285 0 0)
(0.00145415 0 0)
(0.00147825 0 0)
(0.00150775 0 0)
(0.00153545 0 0)
(0.00155765 0 0)
(0.00158141 0 0)
(0.00160575 0 0)
(0.00162924 0 0)
(0.0016531 0 0)
(0.00167568 0 0)
(0.00169672 0 0)
(0.00171783 0 0)
(0.00173966 0 0)
(0.00175951 0 0)
(0.00178512 0 0)
(0.00181291 0 0)
(0.00183748 0 0)
(0.00186289 0 0)
(0.00188428 0 0)
(0.00190139 0 0)
(0.0019205 0 0)
(0.00194107 0 0)
(0.00196538 0 0)
(0.00198862 0 0)
(0.00201062 0 0)
(0.00203382 0 0)
(0.00205821 0 0)
(0.00208278 0 0)
(0.00210733 0 0)
(0.00213397 0 0)
(0.00216164 0 0)
(0.00218573 0 0)
(0.00220809 0 0)
(0.00223306 0 0)
(0.00226153 0 0)
(0.00229229 0 0)
(0.00232423 0 0)
(0.00235874 0 0)
(0.00239251 0 0)
(0.00242724 0 0)
(0.00246319 0 0)
(0.00249539 0 0)
(0.00252891 0 0)
(0.00256466 0 0)
(0.00259866 0 0)
(0.00263455 0 0)
(0.00267375 0 0)
(0.00271242 0 0)
(0.00275268 0 0)
(0.00279267 0 0)
(0.00283419 0 0)
)
;

boundaryField
{
    inlet
    {
        type            fixedValue;
        value           uniform (0 0 0);
    }
    outlet
    {
        type            zeroGradient;
    }
    yzfaces
    {
        type            empty;
    }
}


// ************************************************************************* //
