/*--------------------------------*- C++ -*----------------------------------*\
| =========                 |                                                 |
| \\      /  F ield         | foam-extend: Open Source CFD                    |
|  \\    /   O peration     | Version:     5.0                                |
|   \\  /    A nd           | Web:         http://www.foam-extend.org         |
|    \\/     M anipulation  |                                                 |
\*---------------------------------------------------------------------------*/
FoamFile
{
    version     2.0;
    format      ascii;
    class       volVectorField;
    location    "7";
    object      U.water;
}
// * * * * * * * * * * * * * * * * * * * * * * * * * * * * * * * * * * * * * //

dimensions      [0 1 -1 0 0 0 0];

internalField   nonuniform List<vector> 
100
(
(3.99123e-05 0 0)
(9.17949e-05 0 0)
(0.000136712 0 0)
(0.00017999 0 0)
(0.000206144 0 0)
(0.000224449 0 0)
(0.000256814 0 0)
(0.000293595 0 0)
(0.000332519 0 0)
(0.000369362 0 0)
(0.000403015 0 0)
(0.000436694 0 0)
(0.000471595 0 0)
(0.000505901 0 0)
(0.000541023 0 0)
(0.000575148 0 0)
(0.000604682 0 0)
(0.000637914 0 0)
(0.000668092 0 0)
(0.000700295 0 0)
(0.00073492 0 0)
(0.000757452 0 0)
(0.000768821 0 0)
(0.00078372 0 0)
(0.000806092 0 0)
(0.000828146 0 0)
(0.000850457 0 0)
(0.000883732 0 0)
(0.00091427 0 0)
(0.000935153 0 0)
(0.000965252 0 0)
(0.000997255 0 0)
(0.00102321 0 0)
(0.00104588 0 0)
(0.00106787 0 0)
(0.00109092 0 0)
(0.00111902 0 0)
(0.0011426 0 0)
(0.001168 0 0)
(0.00119139 0 0)
(0.00121354 0 0)
(0.0012367 0 0)
(0.00125631 0 0)
(0.00128055 0 0)
(0.00130516 0 0)
(0.00132651 0 0)
(0.00135349 0 0)
(0.00137816 0 0)
(0.00139887 0 0)
(0.00142704 0 0)
(0.00145512 0 0)
(0.00148131 0 0)
(0.00150798 0 0)
(0.0015303 0 0)
(0.00154852 0 0)
(0.00156995 0 0)
(0.00159465 0 0)
(0.00161693 0 0)
(0.00164156 0 0)
(0.00166732 0 0)
(0.001692 0 0)
(0.00171545 0 0)
(0.00173645 0 0)
(0.00175987 0 0)
(0.00178385 0 0)
(0.00180512 0 0)
(0.00183122 0 0)
(0.00185452 0 0)
(0.00187057 0 0)
(0.00188385 0 0)
(0.00190202 0 0)
(0.00192919 0 0)
(0.00195546 0 0)
(0.00197967 0 0)
(0.00200516 0 0)
(0.0020307 0 0)
(0.00205266 0 0)
(0.00207101 0 0)
(0.00209191 0 0)
(0.00211514 0 0)
(0.002143 0 0)
(0.0021696 0 0)
(0.00219321 0 0)
(0.00222211 0 0)
(0.00225271 0 0)
(0.00227922 0 0)
(0.00230401 0 0)
(0.00233706 0 0)
(0.00236999 0 0)
(0.00240239 0 0)
(0.00243583 0 0)
(0.00246833 0 0)
(0.00250067 0 0)
(0.0025318 0 0)
(0.00256312 0 0)
(0.00259562 0 0)
(0.00262949 0 0)
(0.00266551 0 0)
(0.00270159 0 0)
(0.00273551 0 0)
)
;

boundaryField
{
    inlet
    {
        type            fixedValue;
        value           uniform (0 0 0);
    }
    outlet
    {
        type            zeroGradient;
    }
    yzfaces
    {
        type            empty;
    }
}


// ************************************************************************* //
