/*--------------------------------*- C++ -*----------------------------------*\
| =========                 |                                                 |
| \\      /  F ield         | foam-extend: Open Source CFD                    |
|  \\    /   O peration     | Version:     5.0                                |
|   \\  /    A nd           | Web:         http://www.foam-extend.org         |
|    \\/     M anipulation  |                                                 |
\*---------------------------------------------------------------------------*/
FoamFile
{
    version     2.0;
    format      ascii;
    class       volScalarField;
    location    "50";
    object      alpha.water;
}
// * * * * * * * * * * * * * * * * * * * * * * * * * * * * * * * * * * * * * //

dimensions      [0 0 0 0 0 0 0];

internalField   nonuniform List<scalar> 
100
(
0.00912986
0.022855
0.0361662
0.0367626
0.0354622
0.0340309
0.0353389
0.0350753
0.0355509
0.0356666
0.0360556
0.0393174
0.0459652
0.0509183
0.050579
0.0518462
0.0522209
0.0538232
0.0538911
0.052693
0.0494287
0.0477081
0.0482227
0.0486951
0.0498782
0.0496183
0.0491781
0.0480217
0.0470456
0.0462683
0.0448692
0.0455591
0.0450647
0.045418
0.045266
0.0459111
0.0475006
0.0502136
0.0531619
0.0559126
0.0601663
0.0640613
0.0682129
0.0704999
0.0727857
0.0750941
0.0778935
0.0786318
0.0789151
0.0785081
0.0780542
0.0763717
0.0753696
0.0756647
0.076745
0.0767687
0.0771996
0.0781589
0.0785964
0.0780851
0.0781632
0.0775517
0.0764812
0.0766075
0.0761403
0.0764428
0.0758544
0.075988
0.0760584
0.0758138
0.0759263
0.0763352
0.0768468
0.0766652
0.0769755
0.0777564
0.0795069
0.0812387
0.0829764
0.0852716
0.0876713
0.0882085
0.088414
0.0888996
0.0892114
0.0895091
0.0903179
0.0914255
0.092566
0.0936896
0.0947327
0.0953536
0.0963786
0.0973841
0.0982919
0.0987195
0.0994323
0.100221
0.100942
0.102297
)
;

boundaryField
{
    inlet
    {
        type            fixedValue;
        value           uniform 0;
    }
    outlet
    {
        type            zeroGradient;
    }
    yzfaces
    {
        type            empty;
    }
}


// ************************************************************************* //
