/*--------------------------------*- C++ -*----------------------------------*\
| =========                 |                                                 |
| \\      /  F ield         | foam-extend: Open Source CFD                    |
|  \\    /   O peration     | Version:     5.0                                |
|   \\  /    A nd           | Web:         http://www.foam-extend.org         |
|    \\/     M anipulation  |                                                 |
\*---------------------------------------------------------------------------*/
FoamFile
{
    version     2.0;
    format      ascii;
    class       volScalarField;
    location    "50";
    object      alpha.water;
}
// * * * * * * * * * * * * * * * * * * * * * * * * * * * * * * * * * * * * * //

dimensions      [0 0 0 0 0 0 0];

internalField   nonuniform List<scalar> 
100
(
0.00874667
0.0226454
0.0342661
0.0354278
0.0338685
0.0358739
0.0346195
0.034983
0.0353098
0.035038
0.0359063
0.0399499
0.0467384
0.0524344
0.0539246
0.051976
0.0489161
0.0502897
0.0509193
0.0495345
0.0487355
0.0499457
0.0494014
0.0491044
0.0494515
0.0498542
0.0487504
0.0470525
0.0456821
0.0451774
0.0447556
0.0440984
0.0442733
0.0452303
0.0467005
0.0468384
0.0481375
0.0499786
0.0533721
0.0560312
0.0594906
0.0642322
0.0678642
0.0713141
0.0743892
0.0771383
0.077591
0.0780357
0.0769385
0.0777197
0.0780706
0.0781539
0.0790806
0.0785272
0.078215
0.0775615
0.0772907
0.0769444
0.0771814
0.0769208
0.0763409
0.0758238
0.0756368
0.0761937
0.0761648
0.0766549
0.0766918
0.0764632
0.0760972
0.076536
0.0768052
0.0766326
0.0767594
0.0769462
0.0767808
0.0775634
0.0780681
0.0800826
0.0829409
0.0858489
0.0873445
0.0881733
0.0888609
0.089194
0.0903533
0.091301
0.0923621
0.0936426
0.0947126
0.0957378
0.09645
0.0973803
0.0977896
0.0987135
0.0990608
0.0994212
0.0999554
0.100991
0.101691
0.10248
)
;

boundaryField
{
    inlet
    {
        type            fixedValue;
        value           uniform 0;
    }
    outlet
    {
        type            zeroGradient;
    }
    yzfaces
    {
        type            empty;
    }
}


// ************************************************************************* //
