/*--------------------------------*- C++ -*----------------------------------*\
| =========                 |                                                 |
| \\      /  F ield         | foam-extend: Open Source CFD                    |
|  \\    /   O peration     | Version:     5.0                                |
|   \\  /    A nd           | Web:         http://www.foam-extend.org         |
|    \\/     M anipulation  |                                                 |
\*---------------------------------------------------------------------------*/
FoamFile
{
    version     2.0;
    format      ascii;
    class       volScalarField;
    location    "50";
    object      Cl.water;
}
// * * * * * * * * * * * * * * * * * * * * * * * * * * * * * * * * * * * * * //

dimensions      [0 0 0 0 0 0 0];

internalField   nonuniform List<scalar> 
100
(
0.00158281
0.000857298
0.00084465
0.00230953
0.00466913
0.00621549
0.00645689
0.00697131
0.00729011
0.00769822
0.00779226
0.00759097
0.00805952
0.0101696
0.011769
0.0110521
0.0108102
0.0103687
0.0101744
0.0109289
0.0125367
0.0126616
0.0121409
0.0117716
0.0114287
0.0115321
0.0117064
0.0123137
0.0125016
0.0126569
0.0131703
0.012815
0.0130832
0.0132357
0.0132682
0.0133363
0.0134734
0.0134356
0.0133251
0.0134033
0.013313
0.013493
0.0133881
0.013752
0.0141899
0.0144303
0.0146224
0.0148384
0.0148258
0.0153629
0.0160154
0.0168641
0.0166689
0.0159064
0.0154791
0.0153349
0.0151981
0.0150032
0.0148639
0.0148715
0.0152469
0.0153751
0.0158003
0.0155354
0.0155788
0.0154806
0.0156659
0.0155654
0.015656
0.0156432
0.0157153
0.0155573
0.0154067
0.0153109
0.0152423
0.0153899
0.0152675
0.0155444
0.0158657
0.0160315
0.0162233
0.0164663
0.016518
0.0166098
0.0166167
0.0167533
0.0168265
0.0169345
0.0170179
0.0172576
0.0174722
0.0176711
0.0178261
0.0179777
0.0181135
0.0181616
0.0180732
0.0180523
0.0182073
0.0180002
)
;

boundaryField
{
    inlet
    {
        type            fixedValue;
        value           uniform 0;
    }
    outlet
    {
        type            zeroGradient;
    }
    yzfaces
    {
        type            empty;
    }
}


// ************************************************************************* //
