/*--------------------------------*- C++ -*----------------------------------*\
| =========                 |                                                 |
| \\      /  F ield         | foam-extend: Open Source CFD                    |
|  \\    /   O peration     | Version:     5.0                                |
|   \\  /    A nd           | Web:         http://www.foam-extend.org         |
|    \\/     M anipulation  |                                                 |
\*---------------------------------------------------------------------------*/
FoamFile
{
    version     2.0;
    format      ascii;
    class       volScalarField;
    location    "50";
    object      Cl.water;
}
// * * * * * * * * * * * * * * * * * * * * * * * * * * * * * * * * * * * * * //

dimensions      [0 0 0 0 0 0 0];

internalField   nonuniform List<scalar> 
100
(
0.00170966
0.000845921
0.00093283
0.00257707
0.00488676
0.00555484
0.00656375
0.00695301
0.00735412
0.0079445
0.00783489
0.00768488
0.00801972
0.00902121
0.00997257
0.011285
0.0123588
0.0114647
0.0111447
0.0118836
0.012052
0.011308
0.0116473
0.011747
0.0115231
0.0112972
0.0119698
0.012562
0.0130626
0.0127423
0.0126702
0.0129069
0.0131098
0.012896
0.0123965
0.0129333
0.013216
0.0132618
0.013446
0.0133195
0.0134978
0.013651
0.0136875
0.014076
0.0141994
0.014566
0.0150674
0.0155214
0.0157837
0.0152611
0.0149698
0.0146649
0.0143573
0.0146618
0.0150091
0.0154424
0.0154028
0.0153729
0.015183
0.0155149
0.0157453
0.016012
0.015626
0.0153643
0.0152054
0.0152438
0.0153279
0.0153807
0.0152459
0.0152219
0.0151268
0.0152863
0.0152948
0.0154054
0.0154938
0.0155162
0.0155574
0.0155556
0.0156725
0.0156914
0.0160737
0.0163107
0.0164474
0.0165329
0.0164211
0.0165582
0.0166796
0.0168317
0.0170391
0.017286
0.0175893
0.0176879
0.0179651
0.0180229
0.0183651
0.0184079
0.018534
0.0186398
0.0187696
0.0188067
)
;

boundaryField
{
    inlet
    {
        type            fixedValue;
        value           uniform 0;
    }
    outlet
    {
        type            zeroGradient;
    }
    yzfaces
    {
        type            empty;
    }
}


// ************************************************************************* //
