/*--------------------------------*- C++ -*----------------------------------*\
| =========                 |                                                 |
| \\      /  F ield         | foam-extend: Open Source CFD                    |
|  \\    /   O peration     | Version:     5.0                                |
|   \\  /    A nd           | Web:         http://www.foam-extend.org         |
|    \\/     M anipulation  |                                                 |
\*---------------------------------------------------------------------------*/
FoamFile
{
    version     2.0;
    format      ascii;
    class       volScalarField;
    location    "50";
    object      CO2.water;
}
// * * * * * * * * * * * * * * * * * * * * * * * * * * * * * * * * * * * * * //

dimensions      [0 0 0 0 0 0 0];

internalField   nonuniform List<scalar> 
100
(
0.000229727
0.00059477
0.000899983
0.000930495
0.000889542
0.000942212
0.000909264
0.000918812
0.000927395
0.000920256
0.000943063
0.00104927
0.00122756
0.00137717
0.00141631
0.00136513
0.00128476
0.00132084
0.00133737
0.001301
0.00128002
0.0013118
0.00129751
0.00128971
0.00129882
0.0013094
0.00128041
0.00123581
0.00119982
0.00118656
0.00117548
0.00115823
0.00116282
0.00118795
0.00122657
0.00123019
0.00126431
0.00131267
0.00140179
0.00147163
0.00156249
0.00168703
0.00178242
0.00187303
0.0019538
0.002026
0.00203789
0.00204957
0.00202075
0.00204127
0.00205049
0.00205268
0.00207702
0.00206248
0.00205428
0.00203712
0.00203
0.00202091
0.00202713
0.00202029
0.00200506
0.00199148
0.00198657
0.00200119
0.00200043
0.00201331
0.00201427
0.00200827
0.00199866
0.00201018
0.00201725
0.00201272
0.00201605
0.00202096
0.00201661
0.00203717
0.00205042
0.00210333
0.0021784
0.00225478
0.00229406
0.00231583
0.00233389
0.00234264
0.00237309
0.00239798
0.00242585
0.00245948
0.00248758
0.00251451
0.00253322
0.00255765
0.0025684
0.00259267
0.00260179
0.00261125
0.00262528
0.00265249
0.00267087
0.00269159
)
;

boundaryField
{
    inlet
    {
        type            fixedValue;
        value           uniform 0;
    }
    outlet
    {
        type            zeroGradient;
    }
    yzfaces
    {
        type            empty;
    }
}


// ************************************************************************* //
