/*--------------------------------*- C++ -*----------------------------------*\
| =========                 |                                                 |
| \\      /  F ield         | foam-extend: Open Source CFD                    |
|  \\    /   O peration     | Version:     5.0                                |
|   \\  /    A nd           | Web:         http://www.foam-extend.org         |
|    \\/     M anipulation  |                                                 |
\*---------------------------------------------------------------------------*/
FoamFile
{
    version     2.0;
    format      ascii;
    class       volScalarField;
    location    "50";
    object      CO2.water;
}
// * * * * * * * * * * * * * * * * * * * * * * * * * * * * * * * * * * * * * //

dimensions      [0 0 0 0 0 0 0];

internalField   nonuniform List<scalar> 
100
(
0.000239792
0.000600277
0.000949889
0.000965552
0.000931399
0.000893805
0.00092816
0.000921236
0.000933728
0.000936766
0.000946984
0.00103265
0.00120726
0.00133735
0.00132843
0.00136172
0.00137156
0.00141364
0.00141542
0.00138396
0.00129822
0.00125303
0.00126655
0.00127895
0.00131003
0.0013032
0.00129164
0.00126127
0.00123563
0.00121522
0.00117847
0.00119659
0.0011836
0.00119288
0.00118889
0.00120583
0.00124758
0.00131884
0.00139627
0.00146852
0.00158024
0.00168254
0.00179158
0.00185165
0.00191168
0.00197231
0.00204584
0.00206523
0.00207267
0.00206198
0.00205006
0.00200587
0.00197955
0.0019873
0.00201567
0.00201629
0.00202761
0.00205281
0.0020643
0.00205087
0.00205292
0.00203686
0.00200874
0.00201206
0.00199979
0.00200773
0.00199228
0.00199579
0.00199764
0.00199121
0.00199417
0.00200491
0.00201834
0.00201358
0.00202173
0.00204224
0.00208821
0.0021337
0.00217934
0.00223962
0.00230265
0.00231675
0.00232215
0.00233491
0.0023431
0.00235092
0.00237216
0.00240125
0.0024312
0.00246072
0.00248811
0.00250442
0.00253134
0.00255775
0.00258159
0.00259282
0.00261154
0.00263227
0.00265119
0.00268679
)
;

boundaryField
{
    inlet
    {
        type            fixedValue;
        value           uniform 0;
    }
    outlet
    {
        type            zeroGradient;
    }
    yzfaces
    {
        type            empty;
    }
}


// ************************************************************************* //
