/*--------------------------------*- C++ -*----------------------------------*\
| =========                 |                                                 |
| \\      /  F ield         | foam-extend: Open Source CFD                    |
|  \\    /   O peration     | Version:     5.0                                |
|   \\  /    A nd           | Web:         http://www.foam-extend.org         |
|    \\/     M anipulation  |                                                 |
\*---------------------------------------------------------------------------*/
FoamFile
{
    version     2.0;
    format      ascii;
    class       volScalarField;
    location    "50";
    object      H2O.water;
}
// * * * * * * * * * * * * * * * * * * * * * * * * * * * * * * * * * * * * * //

dimensions      [0 0 0 0 0 0 0];

internalField   nonuniform List<scalar> 
100
(
0.00572525
0.0205402
0.0335271
0.0311773
0.025191
0.0207074
0.0214939
0.0202071
0.0200286
0.0193204
0.0195058
0.0230907
0.0286175
0.0292189
0.0256953
0.0283792
0.0292292
0.0316715
0.0321287
0.0294454
0.0230541
0.0211289
0.0226861
0.0238847
0.0257177
0.0252486
0.02447
0.0221275
0.0208025
0.0197268
0.0173427
0.0187281
0.0177068
0.0177393
0.0175305
0.018013
0.0192992
0.0220197
0.0251189
0.027645
0.0319756
0.0354101
0.0396702
0.041158
0.0425068
0.0442751
0.0466162
0.0468949
0.047193
0.0457173
0.043973
0.0406269
0.0400462
0.0418695
0.0437813
0.0440855
0.0447771
0.0461082
0.0468227
0.0463064
0.0456362
0.0447928
0.0429153
0.0435691
0.0430297
0.043515
0.0425689
0.0428878
0.0427664
0.0425527
0.0425154
0.0432069
0.0440011
0.0440095
0.044469
0.0449208
0.0468804
0.0480096
0.0490635
0.0509818
0.052926
0.0529685
0.0530658
0.0533703
0.0536625
0.0536831
0.0543163
0.0551814
0.0561195
0.0567366
0.0573066
0.0575075
0.0582049
0.0588839
0.0594966
0.0598152
0.0606809
0.0614935
0.06189
0.0636313
)
;

boundaryField
{
    inlet
    {
        type            fixedValue;
        value           uniform 0;
    }
    outlet
    {
        type            zeroGradient;
    }
    yzfaces
    {
        type            empty;
    }
}


// ************************************************************************* //
