/*--------------------------------*- C++ -*----------------------------------*\
| =========                 |                                                 |
| \\      /  F ield         | foam-extend: Open Source CFD                    |
|  \\    /   O peration     | Version:     5.0                                |
|   \\  /    A nd           | Web:         http://www.foam-extend.org         |
|    \\/     M anipulation  |                                                 |
\*---------------------------------------------------------------------------*/
FoamFile
{
    version     2.0;
    format      ascii;
    class       volScalarField;
    location    "50";
    object      H2O.gas;
}
// * * * * * * * * * * * * * * * * * * * * * * * * * * * * * * * * * * * * * //

dimensions      [0 0 0 0 0 0 0];

internalField   nonuniform List<scalar> 
100
(
0.000371714
0.000344985
0.000319061
0.0003179
0.000320433
0.00032322
0.000320673
0.000321186
0.00032026
0.000320035
0.000319277
0.000312925
0.000299978
0.000290332
0.000290993
0.000288525
0.000287796
0.000284675
0.000284543
0.000286876
0.000293233
0.000296584
0.000295582
0.000294662
0.000292358
0.000292864
0.000293721
0.000295973
0.000297874
0.000299388
0.000302113
0.000300769
0.000301732
0.000301044
0.00030134
0.000300084
0.000296988
0.000291705
0.000285963
0.000280606
0.000272322
0.000264737
0.000256652
0.000252198
0.000247746
0.000243251
0.000237799
0.000236361
0.000235809
0.000236602
0.000237486
0.000240763
0.000242714
0.000242139
0.000240036
0.000239989
0.00023915
0.000237282
0.00023643
0.000237426
0.000237274
0.000238465
0.000240549
0.000240303
0.000241213
0.000240624
0.00024177
0.00024151
0.000241373
0.000241849
0.00024163
0.000240834
0.000239837
0.000240191
0.000239587
0.000238066
0.000234657
0.000231284
0.0002279
0.00022343
0.000218757
0.000217711
0.00021731
0.000216365
0.000215758
0.000215178
0.000213603
0.000211446
0.000209225
0.000207036
0.000205005
0.000203796
0.0002018
0.000199841
0.000198074
0.000197241
0.000195853
0.000194316
0.000192913
0.000190273
)
;

boundaryField
{
    inlet
    {
        type            fixedValue;
        value           uniform 0;
    }
    outlet
    {
        type            zeroGradient;
    }
    yzfaces
    {
        type            empty;
    }
}


// ************************************************************************* //
