/*--------------------------------*- C++ -*----------------------------------*\
| =========                 |                                                 |
| \\      /  F ield         | foam-extend: Open Source CFD                    |
|  \\    /   O peration     | Version:     5.0                                |
|   \\  /    A nd           | Web:         http://www.foam-extend.org         |
|    \\/     M anipulation  |                                                 |
\*---------------------------------------------------------------------------*/
FoamFile
{
    version     2.0;
    format      ascii;
    class       volScalarField;
    location    "50";
    object      H2O.gas;
}
// * * * * * * * * * * * * * * * * * * * * * * * * * * * * * * * * * * * * * //

dimensions      [0 0 0 0 0 0 0];

internalField   nonuniform List<scalar> 
100
(
0.00037246
0.000345393
0.000322762
0.0003205
0.000323536
0.000319631
0.000322074
0.000321366
0.000320729
0.000321259
0.000319568
0.000311693
0.000298473
0.00028738
0.000284478
0.000288272
0.000294231
0.000291556
0.00029033
0.000293027
0.000294583
0.000292226
0.000293286
0.000293865
0.000293189
0.000292405
0.000294554
0.000297861
0.00030053
0.000301512
0.000302334
0.000303614
0.000303273
0.000301409
0.000298546
0.000298278
0.000295748
0.000292162
0.000285554
0.000280375
0.000273638
0.000264404
0.000257331
0.000250612
0.000244623
0.00023927
0.000238388
0.000237522
0.000239659
0.000238137
0.000237454
0.000237292
0.000235487
0.000236565
0.000237173
0.000238446
0.000238973
0.000239647
0.000239186
0.000239693
0.000240823
0.00024183
0.000242194
0.000241109
0.000241165
0.000240211
0.000240139
0.000240584
0.000241297
0.000240443
0.000239918
0.000240254
0.000240007
0.000239644
0.000239966
0.000238442
0.000237459
0.000233536
0.000227969
0.000222306
0.000219393
0.000217779
0.00021644
0.000215792
0.000213534
0.000211688
0.000209622
0.000207128
0.000205044
0.000203048
0.000201661
0.000199849
0.000199052
0.000197252
0.000196576
0.000195874
0.000194834
0.000192816
0.000191454
0.000189917
)
;

boundaryField
{
    inlet
    {
        type            fixedValue;
        value           uniform 0;
    }
    outlet
    {
        type            zeroGradient;
    }
    yzfaces
    {
        type            empty;
    }
}


// ************************************************************************* //
