/*--------------------------------*- C++ -*----------------------------------*\
| =========                 |                                                 |
| \\      /  F ield         | foam-extend: Open Source CFD                    |
|  \\    /   O peration     | Version:     5.0                                |
|   \\  /    A nd           | Web:         http://www.foam-extend.org         |
|    \\/     M anipulation  |                                                 |
\*---------------------------------------------------------------------------*/
FoamFile
{
    version     2.0;
    format      ascii;
    class       volScalarField;
    location    "50";
    object      H2O.water;
}
// * * * * * * * * * * * * * * * * * * * * * * * * * * * * * * * * * * * * * //

dimensions      [0 0 0 0 0 0 0];

internalField   nonuniform List<scalar> 
100
(
0.00509768
0.0203586
0.0314997
0.0293389
0.0232026
0.0238201
0.0205788
0.0201579
0.0196717
0.0182218
0.0192883
0.0235296
0.0294684
0.0330103
0.0325486
0.0280196
0.0228924
0.0260285
0.0272892
0.0244623
0.0233435
0.0260062
0.0247952
0.0243162
0.0251058
0.0259584
0.023551
0.020696
0.0183522
0.0185048
0.0182514
0.0171374
0.0169092
0.0182652
0.0206825
0.0197388
0.0204353
0.0221361
0.025084
0.0279206
0.0309361
0.0352378
0.0387037
0.0412949
0.0440415
0.0459824
0.0454113
0.0449326
0.043356
0.0451652
0.0460875
0.0467803
0.0482964
0.047155
0.0461657
0.0446457
0.0444463
0.0441611
0.0447788
0.0438653
0.0428385
0.0417774
0.042373
0.0434548
0.0437439
0.0441446
0.0440199
0.0436878
0.0436027
0.0440926
0.0445403
0.0440471
0.0441539
0.0441117
0.0437689
0.0444908
0.0449083
0.0468769
0.0494254
0.0522186
0.0529032
0.0532277
0.0536174
0.0537804
0.0551343
0.0557926
0.056586
0.0575234
0.0581567
0.0586584
0.058753
0.0594542
0.0592966
0.0600873
0.0597396
0.0600073
0.0602628
0.0610692
0.0615037
0.0622031
)
;

boundaryField
{
    inlet
    {
        type            fixedValue;
        value           uniform 0;
    }
    outlet
    {
        type            zeroGradient;
    }
    yzfaces
    {
        type            empty;
    }
}


// ************************************************************************* //
