/*--------------------------------*- C++ -*----------------------------------*\
| =========                 |                                                 |
| \\      /  F ield         | foam-extend: Open Source CFD                    |
|  \\    /   O peration     | Version:     5.0                                |
|   \\  /    A nd           | Web:         http://www.foam-extend.org         |
|    \\/     M anipulation  |                                                 |
\*---------------------------------------------------------------------------*/
FoamFile
{
    version     2.0;
    format      ascii;
    class       volScalarField;
    location    "50";
    object      Na.water;
}
// * * * * * * * * * * * * * * * * * * * * * * * * * * * * * * * * * * * * * //

dimensions      [0 0 0 0 0 0 0];

internalField   nonuniform List<scalar> 
100
(
0.00170959
0.000846083
0.00093362
0.00258129
0.00488961
0.00555674
0.00656766
0.00695324
0.00735654
0.00795144
0.00784007
0.00768617
0.00802277
0.00902574
0.00998715
0.0113063
0.0123801
0.0114758
0.0111479
0.0118877
0.01206
0.0113198
0.0116614
0.0117516
0.0115237
0.0112893
0.0119492
0.0125587
0.0130674
0.0127438
0.0126585
0.0128959
0.0130915
0.0128811
0.012395
0.0129361
0.0132219
0.0132681
0.0134404
0.0133195
0.0134942
0.0136564
0.0136906
0.0140701
0.0141945
0.0145639
0.0150744
0.0155321
0.015778
0.0152521
0.0149627
0.014656
0.0143499
0.014648
0.014986
0.0154362
0.0154115
0.0153895
0.0151925
0.0155203
0.015752
0.0160429
0.0156513
0.0153734
0.015215
0.0152531
0.0153297
0.0153864
0.01525
0.0152112
0.0151208
0.0152865
0.0152946
0.0154082
0.0155016
0.0155193
0.015552
0.0155467
0.0156645
0.0156842
0.0160735
0.016319
0.0164623
0.016538
0.0164249
0.0165521
0.0166706
0.0168281
0.0170293
0.0172789
0.0175745
0.0176806
0.0179594
0.0180107
0.0183543
0.0183947
0.0185334
0.0186298
0.0187469
0.0187788
)
;

boundaryField
{
    inlet
    {
        type            fixedValue;
        value           uniform 0;
    }
    outlet
    {
        type            zeroGradient;
    }
    yzfaces
    {
        type            empty;
    }
}


// ************************************************************************* //
