/*--------------------------------*- C++ -*----------------------------------*\
| =========                 |                                                 |
| \\      /  F ield         | foam-extend: Open Source CFD                    |
|  \\    /   O peration     | Version:     5.0                                |
|   \\  /    A nd           | Web:         http://www.foam-extend.org         |
|    \\/     M anipulation  |                                                 |
\*---------------------------------------------------------------------------*/
FoamFile
{
    version     2.0;
    format      ascii;
    class       volScalarField;
    location    "50";
    object      Na.water;
}
// * * * * * * * * * * * * * * * * * * * * * * * * * * * * * * * * * * * * * //

dimensions      [0 0 0 0 0 0 0];

internalField   nonuniform List<scalar> 
100
(
0.00158201
0.0008573
0.000844623
0.00231015
0.0046707
0.00621413
0.00645997
0.00697561
0.00729844
0.00771123
0.00781051
0.00760308
0.00808094
0.0101925
0.0117862
0.0110532
0.0108098
0.0103693
0.0101725
0.0109348
0.0125396
0.0126646
0.0121291
0.0117599
0.0114217
0.0115344
0.01171
0.0123193
0.0125058
0.0126694
0.0131778
0.0128194
0.0130911
0.0132501
0.0132784
0.0133559
0.0134805
0.0134395
0.0133217
0.0133957
0.0132976
0.0134758
0.013363
0.0137382
0.0141773
0.0144164
0.0146091
0.0148332
0.0148236
0.015366
0.0160158
0.0168748
0.016675
0.0159016
0.0154689
0.015332
0.0151967
0.0149946
0.0148455
0.0148564
0.0152271
0.0153469
0.0157569
0.0154909
0.015532
0.0154394
0.0156273
0.015539
0.0156383
0.0156267
0.0157014
0.0155661
0.0154206
0.0153313
0.0152425
0.0154035
0.0152709
0.015551
0.0158679
0.0160187
0.0162194
0.0164569
0.0165081
0.0165845
0.0165891
0.0167218
0.0168029
0.0169084
0.0169974
0.0172348
0.0174658
0.0176706
0.0178163
0.0179648
0.0181003
0.0181499
0.0180667
0.0180434
0.0181933
0.017979
)
;

boundaryField
{
    inlet
    {
        type            fixedValue;
        value           uniform 0;
    }
    outlet
    {
        type            zeroGradient;
    }
    yzfaces
    {
        type            empty;
    }
}


// ************************************************************************* //
