/*--------------------------------*- C++ -*----------------------------------*\
| =========                 |                                                 |
| \\      /  F ield         | foam-extend: Open Source CFD                    |
|  \\    /   O peration     | Version:     5.0                                |
|   \\  /    A nd           | Web:         http://www.foam-extend.org         |
|    \\/     M anipulation  |                                                 |
\*---------------------------------------------------------------------------*/
FoamFile
{
    version     2.0;
    format      ascii;
    class       surfaceScalarField;
    location    "50";
    object      phi;
}
// * * * * * * * * * * * * * * * * * * * * * * * * * * * * * * * * * * * * * //

dimensions      [0 3 -1 0 0 0 0];

internalField   nonuniform List<scalar> 
99
(
1.22757e-06
1.23016e-06
1.24759e-06
1.25296e-06
1.24581e-06
1.26479e-06
1.27514e-06
1.26791e-06
1.26505e-06
1.2706e-06
1.26316e-06
1.26306e-06
1.27126e-06
1.27731e-06
1.26544e-06
1.27997e-06
1.27066e-06
1.29067e-06
1.28957e-06
1.30355e-06
1.29523e-06
1.29808e-06
1.29961e-06
1.305e-06
1.31568e-06
1.31171e-06
1.31151e-06
1.3187e-06
1.33244e-06
1.31987e-06
1.31971e-06
1.31172e-06
1.30005e-06
1.30094e-06
1.29774e-06
1.30484e-06
1.30298e-06
1.29439e-06
1.29304e-06
1.27515e-06
1.2623e-06
1.25692e-06
1.25341e-06
1.2415e-06
1.23617e-06
1.23414e-06
1.2311e-06
1.24128e-06
1.25331e-06
1.26018e-06
1.26583e-06
1.27141e-06
1.27061e-06
1.27094e-06
1.27644e-06
1.26769e-06
1.27172e-06
1.28294e-06
1.28847e-06
1.2813e-06
1.2913e-06
1.28138e-06
1.28729e-06
1.29588e-06
1.30246e-06
1.30629e-06
1.2981e-06
1.29619e-06
1.29825e-06
1.2956e-06
1.29557e-06
1.28806e-06
1.28644e-06
1.28389e-06
1.27507e-06
1.27984e-06
1.27225e-06
1.28526e-06
1.2881e-06
1.2774e-06
1.28748e-06
1.28356e-06
1.27507e-06
1.27457e-06
1.27887e-06
1.2663e-06
1.27071e-06
1.26856e-06
1.26137e-06
1.26068e-06
1.25794e-06
1.25458e-06
1.25079e-06
1.24815e-06
1.24453e-06
1.24004e-06
1.24385e-06
1.25127e-06
1.24925e-06
)
;

boundaryField
{
    inlet
    {
        type            calculated;
        value           uniform -1.225e-06;
    }
    outlet
    {
        type            calculated;
        value           uniform 1.26438e-06;
    }
    yzfaces
    {
        type            empty;
    }
}


// ************************************************************************* //
