/*--------------------------------*- C++ -*----------------------------------*\
| =========                 |                                                 |
| \\      /  F ield         | foam-extend: Open Source CFD                    |
|  \\    /   O peration     | Version:     5.0                                |
|   \\  /    A nd           | Web:         http://www.foam-extend.org         |
|    \\/     M anipulation  |                                                 |
\*---------------------------------------------------------------------------*/
FoamFile
{
    version     2.0;
    format      ascii;
    class       surfaceScalarField;
    location    "50";
    object      phi;
}
// * * * * * * * * * * * * * * * * * * * * * * * * * * * * * * * * * * * * * //

dimensions      [0 3 -1 0 0 0 0];

internalField   nonuniform List<scalar> 
99
(
1.236e-06
1.24096e-06
1.24366e-06
1.24225e-06
1.25505e-06
1.25653e-06
1.2486e-06
1.24923e-06
1.24456e-06
1.24845e-06
1.23293e-06
1.23032e-06
1.23681e-06
1.23479e-06
1.22742e-06
1.20686e-06
1.19983e-06
1.20448e-06
1.19693e-06
1.19741e-06
1.20969e-06
1.22013e-06
1.22357e-06
1.23493e-06
1.23506e-06
1.24614e-06
1.242e-06
1.24311e-06
1.24954e-06
1.24348e-06
1.22999e-06
1.24365e-06
1.24212e-06
1.24216e-06
1.2486e-06
1.24181e-06
1.22697e-06
1.21974e-06
1.2114e-06
1.19527e-06
1.19424e-06
1.19428e-06
1.18207e-06
1.18871e-06
1.1886e-06
1.19778e-06
1.20109e-06
1.19689e-06
1.18001e-06
1.19071e-06
1.18967e-06
1.18333e-06
1.18197e-06
1.18069e-06
1.18985e-06
1.19803e-06
1.20966e-06
1.21595e-06
1.2134e-06
1.21612e-06
1.21881e-06
1.2112e-06
1.20453e-06
1.20653e-06
1.19489e-06
1.19481e-06
1.19899e-06
1.19382e-06
1.18179e-06
1.18865e-06
1.18832e-06
1.18058e-06
1.16549e-06
1.17176e-06
1.1786e-06
1.18189e-06
1.17327e-06
1.16194e-06
1.16991e-06
1.16743e-06
1.17251e-06
1.18087e-06
1.17385e-06
1.16205e-06
1.15437e-06
1.14847e-06
1.14952e-06
1.1528e-06
1.15365e-06
1.14676e-06
1.14127e-06
1.1376e-06
1.137e-06
1.13593e-06
1.13377e-06
1.13602e-06
1.13152e-06
1.13202e-06
1.13727e-06
)
;

boundaryField
{
    inlet
    {
        type            calculated;
        value           uniform -1.225e-06;
    }
    outlet
    {
        type            calculated;
        value           uniform 1.147e-06;
    }
    yzfaces
    {
        type            empty;
    }
}


// ************************************************************************* //
