/*--------------------------------*- C++ -*----------------------------------*\
| =========                 |                                                 |
| \\      /  F ield         | foam-extend: Open Source CFD                    |
|  \\    /   O peration     | Version:     5.0                                |
|   \\  /    A nd           | Web:         http://www.foam-extend.org         |
|    \\/     M anipulation  |                                                 |
\*---------------------------------------------------------------------------*/
FoamFile
{
    version     2.0;
    format      ascii;
    class       surfaceScalarField;
    location    "50";
    object      phi.water;
}
// * * * * * * * * * * * * * * * * * * * * * * * * * * * * * * * * * * * * * //

dimensions      [0 3 -1 0 0 0 0];

internalField   nonuniform List<scalar> 
99
(
9.9808e-09
3.93204e-08
9.43485e-08
9.98145e-08
9.43798e-08
8.67348e-08
9.45805e-08
9.21594e-08
9.44863e-08
9.44555e-08
9.1706e-08
1.00549e-07
1.32118e-07
1.65589e-07
1.60241e-07
1.70338e-07
1.69198e-07
1.83092e-07
1.85895e-07
1.84036e-07
1.62291e-07
1.49872e-07
1.52476e-07
1.54608e-07
1.64896e-07
1.62915e-07
1.62311e-07
1.5683e-07
1.52833e-07
1.48485e-07
1.37831e-07
1.42318e-07
1.37251e-07
1.40451e-07
1.3749e-07
1.4024e-07
1.46304e-07
1.58309e-07
1.75056e-07
1.85697e-07
2.10701e-07
2.36441e-07
2.70118e-07
2.85323e-07
3.04495e-07
3.24993e-07
3.56262e-07
3.67527e-07
3.75268e-07
3.73194e-07
3.71858e-07
3.55568e-07
3.42477e-07
3.44008e-07
3.58547e-07
3.55731e-07
3.59806e-07
3.73403e-07
3.81399e-07
3.73995e-07
3.77348e-07
3.70212e-07
3.58224e-07
3.63766e-07
3.58003e-07
3.63485e-07
3.55297e-07
3.55527e-07
3.58352e-07
3.54586e-07
3.53883e-07
3.57272e-07
3.6281e-07
3.58681e-07
3.58038e-07
3.65242e-07
3.82594e-07
4.06335e-07
4.23655e-07
4.49979e-07
4.89403e-07
4.96174e-07
4.95782e-07
5.02637e-07
5.08027e-07
5.06532e-07
5.18569e-07
5.3332e-07
5.48079e-07
5.6537e-07
5.81814e-07
5.89348e-07
6.05553e-07
6.20557e-07
6.36131e-07
6.41215e-07
6.56723e-07
6.7362e-07
6.85536e-07
)
;

boundaryField
{
    inlet
    {
        type            fixedValue;
        value           uniform 0;
    }
    outlet
    {
        type            calculated;
        value           uniform 7.27147e-07;
    }
    yzfaces
    {
        type            empty;
    }
}


// ************************************************************************* //
