/*--------------------------------*- C++ -*----------------------------------*\
| =========                 |                                                 |
| \\      /  F ield         | foam-extend: Open Source CFD                    |
|  \\    /   O peration     | Version:     5.0                                |
|   \\  /    A nd           | Web:         http://www.foam-extend.org         |
|    \\/     M anipulation  |                                                 |
\*---------------------------------------------------------------------------*/
FoamFile
{
    version     2.0;
    format      ascii;
    class       surfaceScalarField;
    location    "50";
    object      phi.water;
}
// * * * * * * * * * * * * * * * * * * * * * * * * * * * * * * * * * * * * * //

dimensions      [0 3 -1 0 0 0 0];

internalField   nonuniform List<scalar> 
99
(
9.37226e-09
4.04313e-08
8.66046e-08
9.39376e-08
8.4993e-08
9.67138e-08
8.90066e-08
9.04856e-08
9.19906e-08
8.9812e-08
8.81283e-08
9.97372e-08
1.30806e-07
1.65432e-07
1.7765e-07
1.65642e-07
1.42793e-07
1.51954e-07
1.5712e-07
1.49487e-07
1.44084e-07
1.54262e-07
1.50629e-07
1.49746e-07
1.51585e-07
1.57343e-07
1.5217e-07
1.43187e-07
1.3651e-07
1.3283e-07
1.30453e-07
1.27098e-07
1.2711e-07
1.30469e-07
1.39977e-07
1.38038e-07
1.41965e-07
1.4792e-07
1.65044e-07
1.76577e-07
1.94636e-07
2.27188e-07
2.51325e-07
2.80151e-07
3.06951e-07
3.39809e-07
3.44353e-07
3.4991e-07
3.31913e-07
3.43108e-07
3.46064e-07
3.44562e-07
3.55939e-07
3.49766e-07
3.50016e-07
3.45578e-07
3.46603e-07
3.42579e-07
3.45465e-07
3.44311e-07
3.38844e-07
3.31821e-07
3.26965e-07
3.33415e-07
3.28959e-07
3.34311e-07
3.36309e-07
3.33587e-07
3.25607e-07
3.30227e-07
3.33813e-07
3.29218e-07
3.26968e-07
3.31172e-07
3.29019e-07
3.37178e-07
3.37173e-07
3.51648e-07
3.84463e-07
4.20344e-07
4.4195e-07
4.55363e-07
4.61184e-07
4.59026e-07
4.71706e-07
4.81985e-07
4.96334e-07
5.16004e-07
5.32033e-07
5.45161e-07
5.52849e-07
5.68041e-07
5.72121e-07
5.87441e-07
5.92333e-07
5.98883e-07
6.0555e-07
6.24449e-07
6.39907e-07
)
;

boundaryField
{
    inlet
    {
        type            fixedValue;
        value           uniform 0;
    }
    outlet
    {
        type            calculated;
        value           uniform 6.59501e-07;
    }
    yzfaces
    {
        type            empty;
    }
}


// ************************************************************************* //
