/*--------------------------------*- C++ -*----------------------------------*\
| =========                 |                                                 |
| \\      /  F ield         | foam-extend: Open Source CFD                    |
|  \\    /   O peration     | Version:     5.0                                |
|   \\  /    A nd           | Web:         http://www.foam-extend.org         |
|    \\/     M anipulation  |                                                 |
\*---------------------------------------------------------------------------*/
FoamFile
{
    version     2.0;
    format      ascii;
    class       volVectorField;
    location    "50";
    object      U.gas;
}
// * * * * * * * * * * * * * * * * * * * * * * * * * * * * * * * * * * * * * //

dimensions      [0 1 -1 0 0 0 0];

internalField   nonuniform List<vector> 
100
(
(0.00525183 0 0)
(0.00569748 0 0)
(0.00610873 0 0)
(0.00614985 0 0)
(0.00612028 0 0)
(0.00623019 0 0)
(0.00616666 0 0)
(0.00616275 0 0)
(0.00616463 0 0)
(0.00615252 0 0)
(0.00615587 0 0)
(0.00626225 0 0)
(0.00654161 0 0)
(0.0067941 0 0)
(0.00682895 0 0)
(0.00666319 0 0)
(0.00646003 0 0)
(0.00651473 0 0)
(0.00653209 0 0)
(0.00645373 0 0)
(0.00645623 0 0)
(0.00656924 0 0)
(0.00658225 0 0)
(0.00661009 0 0)
(0.0066562 0 0)
(0.0067035 0 0)
(0.00667393 0 0)
(0.00659475 0 0)
(0.00655899 0 0)
(0.00654031 0 0)
(0.0064722 0 0)
(0.00644633 0 0)
(0.00648565 0 0)
(0.00652083 0 0)
(0.00659834 0 0)
(0.00660182 0 0)
(0.00659901 0 0)
(0.00661698 0 0)
(0.00672101 0 0)
(0.00676853 0 0)
(0.00687657 0 0)
(0.00709932 0 0)
(0.00724013 0 0)
(0.0073995 0 0)
(0.00758316 0 0)
(0.00776347 0 0)
(0.00782197 0 0)
(0.00784455 0 0)
(0.00770833 0 0)
(0.00773832 0 0)
(0.00778836 0 0)
(0.00776779 0 0)
(0.007798 0 0)
(0.00775256 0 0)
(0.00776181 0 0)
(0.00778046 0 0)
(0.00783094 0 0)
(0.00786946 0 0)
(0.00789735 0 0)
(0.00788116 0 0)
(0.00786481 0 0)
(0.00782001 0 0)
(0.00776452 0 0)
(0.00778313 0 0)
(0.00774848 0 0)
(0.0077398 0 0)
(0.00775371 0 0)
(0.00773658 0 0)
(0.00765999 0 0)
(0.00767063 0 0)
(0.00770646 0 0)
(0.00766909 0 0)
(0.00760306 0 0)
(0.00758492 0 0)
(0.00761742 0 0)
(0.00769709 0 0)
(0.00770649 0 0)
(0.00775972 0 0)
(0.00791754 0 0)
(0.00811134 0 0)
(0.00820562 0 0)
(0.00830118 0 0)
(0.00834863 0 0)
(0.00830077 0 0)
(0.00830955 0 0)
(0.0083198 0 0)
(0.00837098 0 0)
(0.00847178 0 0)
(0.00855634 0 0)
(0.00860186 0 0)
(0.00860074 0 0)
(0.00863024 0 0)
(0.00863735 0 0)
(0.00869874 0 0)
(0.0087052 0 0)
(0.00873035 0 0)
(0.00875941 0 0)
(0.00881969 0 0)
(0.00888814 0 0)
(0.00900563 0 0)
)
;

boundaryField
{
    inlet
    {
        type            fixedValue;
        value           uniform (0.005 0 0);
    }
    outlet
    {
        type            zeroGradient;
    }
    yzfaces
    {
        type            empty;
    }
}


// ************************************************************************* //
