/*--------------------------------*- C++ -*----------------------------------*\
| =========                 |                                                 |
| \\      /  F ield         | foam-extend: Open Source CFD                    |
|  \\    /   O peration     | Version:     5.0                                |
|   \\  /    A nd           | Web:         http://www.foam-extend.org         |
|    \\/     M anipulation  |                                                 |
\*---------------------------------------------------------------------------*/
FoamFile
{
    version     2.0;
    format      ascii;
    class       volVectorField;
    location    "50";
    object      U.gas;
}
// * * * * * * * * * * * * * * * * * * * * * * * * * * * * * * * * * * * * * //

dimensions      [0 1 -1 0 0 0 0];

internalField   nonuniform List<vector> 
100
(
(0.00524432 0 0)
(0.00565988 0 0)
(0.00616144 0 0)
(0.00623485 0 0)
(0.00618155 0 0)
(0.00615879 0 0)
(0.00628031 0 0)
(0.00627738 0 0)
(0.0062704 0 0)
(0.00628117 0 0)
(0.00629114 0 0)
(0.0063974 0 0)
(0.00668714 0 0)
(0.00693707 0 0)
(0.00690052 0 0)
(0.00696563 0 0)
(0.00699561 0 0)
(0.00709941 0 0)
(0.00715291 0 0)
(0.00713167 0 0)
(0.00699783 0 0)
(0.00691003 0 0)
(0.0069466 0 0)
(0.00698582 0 0)
(0.00708233 0 0)
(0.00708709 0 0)
(0.00705599 0 0)
(0.00702272 0 0)
(0.00703577 0 0)
(0.00700508 0 0)
(0.00691074 0 0)
(0.00692093 0 0)
(0.00684712 0 0)
(0.00683455 0 0)
(0.00682159 0 0)
(0.00685998 0 0)
(0.00694314 0 0)
(0.00703595 0 0)
(0.0071429 0 0)
(0.00721733 0 0)
(0.00733677 0 0)
(0.00747766 0 0)
(0.00766813 0 0)
(0.00773979 0 0)
(0.00781155 0 0)
(0.00791755 0 0)
(0.00806431 0 0)
(0.00812376 0 0)
(0.00821214 0 0)
(0.0082472 0 0)
(0.00826109 0 0)
(0.00819306 0 0)
(0.00815205 0 0)
(0.00817228 0 0)
(0.00825783 0 0)
(0.0082448 0 0)
(0.00825666 0 0)
(0.00836658 0 0)
(0.00844641 0 0)
(0.00840555 0 0)
(0.00842211 0 0)
(0.00838257 0 0)
(0.00830325 0 0)
(0.00836227 0 0)
(0.00838096 0 0)
(0.00843607 0 0)
(0.00838285 0 0)
(0.00836095 0 0)
(0.00836547 0 0)
(0.00834746 0 0)
(0.00834708 0 0)
(0.00834816 0 0)
(0.00834954 0 0)
(0.00832269 0 0)
(0.00830643 0 0)
(0.00834233 0 0)
(0.00844384 0 0)
(0.00856973 0 0)
(0.00873503 0 0)
(0.0088619 0 0)
(0.00902217 0 0)
(0.00906981 0 0)
(0.0090376 0 0)
(0.00904088 0 0)
(0.00907501 0 0)
(0.00906594 0 0)
(0.00909611 0 0)
(0.00918418 0 0)
(0.00923122 0 0)
(0.00928246 0 0)
(0.0093446 0 0)
(0.00936353 0 0)
(0.00941483 0 0)
(0.00946477 0 0)
(0.00950791 0 0)
(0.00950409 0 0)
(0.00955737 0 0)
(0.0096618 0 0)
(0.00973741 0 0)
(0.00990006 0 0)
)
;

boundaryField
{
    inlet
    {
        type            fixedValue;
        value           uniform (0.005 0 0);
    }
    outlet
    {
        type            zeroGradient;
    }
    yzfaces
    {
        type            empty;
    }
}


// ************************************************************************* //
