/*--------------------------------*- C++ -*----------------------------------*\
| =========                 |                                                 |
| \\      /  F ield         | foam-extend: Open Source CFD                    |
|  \\    /   O peration     | Version:     5.0                                |
|   \\  /    A nd           | Web:         http://www.foam-extend.org         |
|    \\/     M anipulation  |                                                 |
\*---------------------------------------------------------------------------*/
FoamFile
{
    version     2.0;
    format      ascii;
    class       volVectorField;
    location    "50";
    object      U.water;
}
// * * * * * * * * * * * * * * * * * * * * * * * * * * * * * * * * * * * * * //

dimensions      [0 1 -1 0 0 0 0];

internalField   nonuniform List<vector> 
100
(
(7.12575e-06 0 0)
(2.35354e-05 0 0)
(5.18829e-05 0 0)
(7.81789e-05 0 0)
(7.9217e-05 0 0)
(7.54067e-05 0 0)
(7.31301e-05 0 0)
(7.65159e-05 0 0)
(7.59318e-05 0 0)
(7.72207e-05 0 0)
(7.73995e-05 0 0)
(8.03584e-05 0 0)
(9.49125e-05 0 0)
(0.000118625 0 0)
(0.000133921 0 0)
(0.000134234 0 0)
(0.000139196 0 0)
(0.000142554 0 0)
(0.000149456 0 0)
(0.000149332 0 0)
(0.000142703 0 0)
(0.000129012 0 0)
(0.000123314 0 0)
(0.000125645 0 0)
(0.000129369 0 0)
(0.000133746 0 0)
(0.000132305 0 0)
(0.000130251 0 0)
(0.000126399 0 0)
(0.000122679 0 0)
(0.000118425 0 0)
(0.000113737 0 0)
(0.000114726 0 0)
(0.000113018 0 0)
(0.000113923 0 0)
(0.000113985 0 0)
(0.000117739 0 0)
(0.000124682 0 0)
(0.000136279 0 0)
(0.00014868 0 0)
(0.000162308 0 0)
(0.000183421 0 0)
(0.000206151 0 0)
(0.000227327 0 0)
(0.00024119 0 0)
(0.000257587 0 0)
(0.000276255 0 0)
(0.000294653 0 0)
(0.000302027 0 0)
(0.000305047 0 0)
(0.00030265 0 0)
(0.000297416 0 0)
(0.000286098 0 0)
(0.000280993 0 0)
(0.000285727 0 0)
(0.000291833 0 0)
(0.000292406 0 0)
(0.000298454 0 0)
(0.000307038 0 0)
(0.000308981 0 0)
(0.000306026 0 0)
(0.000304882 0 0)
(0.000298496 0 0)
(0.000293847 0 0)
(0.000295254 0 0)
(0.0002938 0 0)
(0.00029432 0 0)
(0.00029002 0 0)
(0.000290902 0 0)
(0.000291188 0 0)
(0.000289355 0 0)
(0.000290449 0 0)
(0.000293345 0 0)
(0.000295271 0 0)
(0.000293356 0 0)
(0.000296094 0 0)
(0.000304939 0 0)
(0.000321645 0 0)
(0.000339234 0 0)
(0.000356884 0 0)
(0.000381417 0 0)
(0.000402157 0 0)
(0.000405682 0 0)
(0.000407494 0 0)
(0.000412666 0 0)
(0.000414942 0 0)
(0.000418884 0 0)
(0.000429515 0 0)
(0.00044159 0 0)
(0.000454515 0 0)
(0.00046792 0 0)
(0.00047885 0 0)
(0.000487882 0 0)
(0.000500505 0 0)
(0.000512676 0 0)
(0.000522028 0 0)
(0.000529743 0 0)
(0.000542592 0 0)
(0.000555268 0 0)
(0.000573884 0 0)
)
;

boundaryField
{
    inlet
    {
        type            fixedValue;
        value           uniform (0 0 0);
    }
    outlet
    {
        type            zeroGradient;
    }
    yzfaces
    {
        type            empty;
    }
}


// ************************************************************************* //
