/*--------------------------------*- C++ -*----------------------------------*\
| =========                 |                                                 |
| \\      /  F ield         | foam-extend: Open Source CFD                    |
|  \\    /   O peration     | Version:     5.0                                |
|   \\  /    A nd           | Web:         http://www.foam-extend.org         |
|    \\/     M anipulation  |                                                 |
\*---------------------------------------------------------------------------*/
FoamFile
{
    version     2.0;
    format      ascii;
    class       volVectorField;
    location    "50";
    object      U.water;
}
// * * * * * * * * * * * * * * * * * * * * * * * * * * * * * * * * * * * * * //

dimensions      [0 1 -1 0 0 0 0];

internalField   nonuniform List<vector> 
100
(
(6.84366e-06 0 0)
(2.3375e-05 0 0)
(4.97011e-05 0 0)
(7.2274e-05 0 0)
(7.48348e-05 0 0)
(7.24513e-05 0 0)
(7.66893e-05 0 0)
(7.32125e-05 0 0)
(7.41558e-05 0 0)
(7.48157e-05 0 0)
(7.42819e-05 0 0)
(7.84109e-05 0 0)
(9.44363e-05 0 0)
(0.000119013 0 0)
(0.000137993 0 0)
(0.000139898 0 0)
(0.000129076 0 0)
(0.000119823 0 0)
(0.00012483 0 0)
(0.000125498 0 0)
(0.000120892 0 0)
(0.000120524 0 0)
(0.00012446 0 0)
(0.000122919 0 0)
(0.000122921 0 0)
(0.000125044 0 0)
(0.000125949 0 0)
(0.000120763 0 0)
(0.00011468 0 0)
(0.000110042 0 0)
(0.000107411 0 0)
(0.000105612 0 0)
(0.000104152 0 0)
(0.000105392 0 0)
(0.000109589 0 0)
(0.000114201 0 0)
(0.000114677 0 0)
(0.000119376 0 0)
(0.000127683 0 0)
(0.00014025 0 0)
(0.00015272 0 0)
(0.000171958 0 0)
(0.00019538 0 0)
(0.000216698 0 0)
(0.000239324 0 0)
(0.00026185 0 0)
(0.000279028 0 0)
(0.000282062 0 0)
(0.000280261 0 0)
(0.000275344 0 0)
(0.000281239 0 0)
(0.000282743 0 0)
(0.000284527 0 0)
(0.000288155 0 0)
(0.000285052 0 0)
(0.000283882 0 0)
(0.000282067 0 0)
(0.000281528 0 0)
(0.000280254 0 0)
(0.000281268 0 0)
(0.000278951 0 0)
(0.000274072 0 0)
(0.000269557 0 0)
(0.00026912 0 0)
(0.000270992 0 0)
(0.000270328 0 0)
(0.000273374 0 0)
(0.000273408 0 0)
(0.000269963 0 0)
(0.000267585 0 0)
(0.000270746 0 0)
(0.000271197 0 0)
(0.000268045 0 0)
(0.000268045 0 0)
(0.000269837 0 0)
(0.000271554 0 0)
(0.000276969 0 0)
(0.000282447 0 0)
(0.0003009 0 0)
(0.000327322 0 0)
(0.000351114 0 0)
(0.000365937 0 0)
(0.000374169 0 0)
(0.000377302 0 0)
(0.000380308 0 0)
(0.000389693 0 0)
(0.000399748 0 0)
(0.00041313 0 0)
(0.000427952 0 0)
(0.000439673 0 0)
(0.000448755 0 0)
(0.000457142 0 0)
(0.00046611 0 0)
(0.000472719 0 0)
(0.000481639 0 0)
(0.000486354 0 0)
(0.000492153 0 0)
(0.000501699 0 0)
(0.000515861 0 0)
(0.000528201 0 0)
)
;

boundaryField
{
    inlet
    {
        type            fixedValue;
        value           uniform (0 0 0);
    }
    outlet
    {
        type            zeroGradient;
    }
    yzfaces
    {
        type            empty;
    }
}


// ************************************************************************* //
