/*--------------------------------*- C++ -*----------------------------------*\
| =========                 |                                                 |
| \\      /  F ield         | foam-extend: Open Source CFD                    |
|  \\    /   O peration     | Version:     5.0                                |
|   \\  /    A nd           | Web:         http://www.foam-extend.org         |
|    \\/     M anipulation  |                                                 |
\*---------------------------------------------------------------------------*/
FoamFile
{
    version     2.0;
    format      ascii;
    class       volScalarField;
    location    "9";
    object      H2O.water;
}
// * * * * * * * * * * * * * * * * * * * * * * * * * * * * * * * * * * * * * //

dimensions      [0 0 0 0 0 0 0];

internalField   nonuniform List<scalar> 
100
(
0.00221697
0.00358595
0.00481073
0.00594535
0.00702012
0.00804949
0.00903998
0.00999604
0.0109211
0.0118184
0.0126904
0.013539
0.0143647
0.0151683
0.0159525
0.0167185
0.0174669
0.0181974
0.0189117
0.0196114
0.0202964
0.0209661
0.0216225
0.022267
0.0228979
0.0235165
0.0241249
0.0247212
0.0253059
0.0258822
0.0264477
0.0270025
0.0275489
0.0280863
0.0286134
0.0291347
0.0296462
0.0301485
0.0306455
0.0311332
0.0316133
0.032088
0.0325549
0.0330151
0.0334688
0.0339154
0.0343577
0.0347927
0.035222
0.0356463
0.0360632
0.0364768
0.0368836
0.037285
0.0376826
0.0380735
0.0384621
0.0388439
0.0392212
0.0395954
0.0399625
0.040329
0.0406886
0.0410451
0.0413973
0.041744
0.0420897
0.0424295
0.0427678
0.0431001
0.043431
0.0437577
0.0440787
0.0443984
0.0447134
0.0450287
0.0453378
0.0456459
0.0459481
0.0462508
0.0465476
0.046843
0.0471355
0.0474234
0.0477109
0.0479931
0.0482768
0.0485547
0.0488322
0.0491041
0.0493757
0.0496446
0.0499109
0.0501752
0.0504371
0.0506963
0.0509525
0.0512093
0.0514626
0.0517202
)
;

boundaryField
{
    inlet
    {
        type            fixedValue;
        value           uniform 0;
    }
    outlet
    {
        type            zeroGradient;
    }
    yzfaces
    {
        type            empty;
    }
}


// ************************************************************************* //
