/*--------------------------------*- C++ -*----------------------------------*\
| =========                 |                                                 |
| \\      /  F ield         | foam-extend: Open Source CFD                    |
|  \\    /   O peration     | Version:     5.0                                |
|   \\  /    A nd           | Web:         http://www.foam-extend.org         |
|    \\/     M anipulation  |                                                 |
\*---------------------------------------------------------------------------*/
FoamFile
{
    version     2.0;
    format      ascii;
    class       volScalarField;
    location    "9";
    object      H2O.gas;
}
// * * * * * * * * * * * * * * * * * * * * * * * * * * * * * * * * * * * * * //

dimensions      [0 0 0 0 0 0 0];

internalField   nonuniform List<scalar> 
100
(
0.00038506
0.000277355
0.000276855
0.000275399
0.000273737
0.000272189
0.000270718
0.000269335
0.000268051
0.000266737
0.000265487
0.000264275
0.000263066
0.000261874
0.000260768
0.000259615
0.000258548
0.000257508
0.000256513
0.00025551
0.000254519
0.000253554
0.000252588
0.000251693
0.000250789
0.000249911
0.000249024
0.000248181
0.000247319
0.000246441
0.000245635
0.000244842
0.000244033
0.000243259
0.000242485
0.000241711
0.000240957
0.000240199
0.000239499
0.000238822
0.000238082
0.000237405
0.000236736
0.000236011
0.000235346
0.000234669
0.000234086
0.000233479
0.000232823
0.000232203
0.000231605
0.000230986
0.000230387
0.000229852
0.000229258
0.000228728
0.00022818
0.00022762
0.000227017
0.000226498
0.000225898
0.000225386
0.000224883
0.000224349
0.000223829
0.000223283
0.000222805
0.00022224
0.00022186
0.000221326
0.000220841
0.000220375
0.000219912
0.000219414
0.000218942
0.000218478
0.000218052
0.000217621
0.000217203
0.000216751
0.000216337
0.000215868
0.000215428
0.000214978
0.000214565
0.000214117
0.00021379
0.000213343
0.000212968
0.00021254
0.000212138
0.000211735
0.00021134
0.000210942
0.000210531
0.000210179
0.000209773
0.000209411
0.000209049
0.000208757
)
;

boundaryField
{
    inlet
    {
        type            fixedValue;
        value           uniform 0;
    }
    outlet
    {
        type            zeroGradient;
    }
    yzfaces
    {
        type            empty;
    }
}


// ************************************************************************* //
