/*--------------------------------*- C++ -*----------------------------------*\
| =========                 |                                                 |
| \\      /  F ield         | foam-extend: Open Source CFD                    |
|  \\    /   O peration     | Version:     5.0                                |
|   \\  /    A nd           | Web:         http://www.foam-extend.org         |
|    \\/     M anipulation  |                                                 |
\*---------------------------------------------------------------------------*/
FoamFile
{
    version     2.0;
    format      ascii;
    class       surfaceScalarField;
    location    "9";
    object      phi;
}
// * * * * * * * * * * * * * * * * * * * * * * * * * * * * * * * * * * * * * //

dimensions      [0 3 -1 0 0 0 0];

internalField   nonuniform List<scalar> 
99
(
0.000122488
0.000122466
0.000122484
0.000122478
0.000122491
0.00012249
0.0001225
0.000122514
0.000122524
0.000122485
0.000122491
0.000122484
0.000122493
0.000122508
0.000122506
0.000122478
0.000122504
0.000122489
0.000122487
0.000122477
0.000122486
0.000122496
0.000122502
0.000122503
0.0001225
0.000122502
0.000122525
0.000122536
0.000122536
0.000122527
0.00012252
0.000122542
0.000122535
0.000122546
0.000122534
0.000122525
0.000122524
0.000122524
0.000122519
0.00012253
0.000122555
0.000122531
0.000122532
0.000122524
0.000122531
0.000122519
0.000122505
0.000122493
0.000122498
0.000122475
0.000122479
0.000122467
0.000122498
0.000122503
0.000122529
0.000122506
0.000122476
0.000122464
0.00012246
0.000122469
0.000122471
0.000122464
0.000122446
0.000122459
0.000122462
0.000122465
0.00012245
0.000122464
0.000122459
0.000122424
0.000122432
0.000122453
0.000122439
0.000122431
0.000122403
0.000122391
0.000122413
0.000122402
0.000122391
0.000122406
0.000122381
0.000122363
0.000122359
0.000122333
0.000122312
0.000122335
0.000122339
0.000122327
0.000122312
0.000122323
0.000122313
0.000122308
0.000122308
0.000122284
0.000122279
0.000122254
0.000122266
0.00012224
0.000122226
)
;

boundaryField
{
    inlet
    {
        type            calculated;
        value           uniform -0.0001225;
    }
    outlet
    {
        type            calculated;
        value           uniform 0.000122187;
    }
    yzfaces
    {
        type            empty;
    }
}


// ************************************************************************* //
