/*--------------------------------*- C++ -*----------------------------------*\
| =========                 |                                                 |
| \\      /  F ield         | foam-extend: Open Source CFD                    |
|  \\    /   O peration     | Version:     5.0                                |
|   \\  /    A nd           | Web:         http://www.foam-extend.org         |
|    \\/     M anipulation  |                                                 |
\*---------------------------------------------------------------------------*/
FoamFile
{
    version     2.0;
    format      ascii;
    class       surfaceScalarField;
    location    "9";
    object      phi.gas;
}
// * * * * * * * * * * * * * * * * * * * * * * * * * * * * * * * * * * * * * //

dimensions      [0 3 -1 0 0 0 0];

internalField   nonuniform List<scalar> 
99
(
0.000621437
0.000625292
0.000629267
0.000632911
0.000636506
0.000639873
0.000643203
0.000646444
0.00064962
0.000652532
0.000655581
0.00065851
0.000661509
0.000664449
0.000667301
0.000670003
0.000672903
0.000675555
0.000678242
0.000680827
0.000683465
0.000686138
0.000688714
0.000691166
0.000693577
0.00069601
0.000698524
0.00070099
0.000703463
0.000705783
0.000708013
0.000710413
0.000712662
0.000715002
0.000717217
0.00071943
0.000721658
0.000723832
0.000725877
0.000728054
0.00073034
0.000732261
0.000734372
0.00073641
0.0007385
0.000740409
0.000742213
0.000744149
0.000746231
0.000748053
0.000750026
0.000751937
0.000753991
0.000755853
0.000757843
0.000759457
0.000761087
0.00076293
0.000764736
0.00076662
0.000768485
0.000770157
0.000771783
0.000773652
0.000775496
0.000777256
0.000778974
0.000780703
0.00078225
0.000783794
0.000785498
0.000787256
0.000788895
0.000790622
0.000792136
0.000793675
0.000795361
0.000796832
0.000798366
0.000800072
0.000801562
0.000803132
0.000804751
0.000806152
0.000807605
0.00080919
0.000810609
0.000812049
0.000813445
0.000815045
0.000816487
0.000817977
0.000819506
0.000820891
0.000822327
0.000823634
0.000825195
0.000826421
0.000827622
)
;

boundaryField
{
    inlet
    {
        type            fixedValue;
        value           uniform -0.0006125;
    }
    outlet
    {
        type            calculated;
        value           uniform 0.000827937;
    }
    yzfaces
    {
        type            empty;
    }
}


// ************************************************************************* //
