/*--------------------------------*- C++ -*----------------------------------*\
| =========                 |                                                 |
| \\      /  F ield         | foam-extend: Open Source CFD                    |
|  \\    /   O peration     | Version:     5.0                                |
|   \\  /    A nd           | Web:         http://www.foam-extend.org         |
|    \\/     M anipulation  |                                                 |
\*---------------------------------------------------------------------------*/
FoamFile
{
    version     2.0;
    format      ascii;
    class       surfaceScalarField;
    location    "9";
    object      phi.water;
}
// * * * * * * * * * * * * * * * * * * * * * * * * * * * * * * * * * * * * * //

dimensions      [0 3 -1 0 0 0 0];

internalField   nonuniform List<scalar> 
99
(
9.72744e-08
1.72066e-07
2.43659e-07
3.12135e-07
3.78717e-07
4.43799e-07
5.0778e-07
5.70861e-07
6.32822e-07
6.94159e-07
7.54936e-07
8.15048e-07
8.74852e-07
9.34019e-07
9.92368e-07
1.05068e-06
1.1086e-06
1.16573e-06
1.22267e-06
1.27924e-06
1.33546e-06
1.39126e-06
1.44717e-06
1.50199e-06
1.55655e-06
1.61077e-06
1.66519e-06
1.71882e-06
1.77265e-06
1.82671e-06
1.87936e-06
1.93225e-06
1.98472e-06
2.03728e-06
2.08925e-06
2.14154e-06
2.19357e-06
2.24512e-06
2.29613e-06
2.34664e-06
2.39827e-06
2.44832e-06
2.49837e-06
2.54928e-06
2.5988e-06
2.64872e-06
2.69698e-06
2.74579e-06
2.79608e-06
2.84486e-06
2.89333e-06
2.94231e-06
2.99206e-06
3.03898e-06
3.08821e-06
3.13453e-06
3.18104e-06
3.22857e-06
3.27718e-06
3.32384e-06
3.37212e-06
3.4186e-06
3.46432e-06
3.51148e-06
3.55881e-06
3.60614e-06
3.65145e-06
3.70042e-06
3.74256e-06
3.78887e-06
3.83506e-06
3.88099e-06
3.9251e-06
3.97242e-06
4.01734e-06
4.06284e-06
4.10772e-06
4.15187e-06
4.19564e-06
4.24145e-06
4.28469e-06
4.33066e-06
4.37548e-06
4.4203e-06
4.46271e-06
4.5093e-06
4.54962e-06
4.59388e-06
4.63589e-06
4.68059e-06
4.72356e-06
4.76716e-06
4.8108e-06
4.85391e-06
4.89823e-06
4.939e-06
4.98394e-06
5.02498e-06
5.06695e-06
)
;

boundaryField
{
    inlet
    {
        type            fixedValue;
        value           uniform 0;
    }
    outlet
    {
        type            calculated;
        value           uniform 5.11905e-06;
    }
    yzfaces
    {
        type            empty;
    }
}


// ************************************************************************* //
