/*--------------------------------*- C++ -*----------------------------------*\
| =========                 |                                                 |
| \\      /  F ield         | foam-extend: Open Source CFD                    |
|  \\    /   O peration     | Version:     5.0                                |
|   \\  /    A nd           | Web:         http://www.foam-extend.org         |
|    \\/     M anipulation  |                                                 |
\*---------------------------------------------------------------------------*/
FoamFile
{
    version     2.0;
    format      ascii;
    class       volVectorField;
    location    "9";
    object      U.water;
}
// * * * * * * * * * * * * * * * * * * * * * * * * * * * * * * * * * * * * * //

dimensions      [0 1 -1 0 0 0 0];

internalField   nonuniform List<vector> 
100
(
(5.12487e-05 0 0)
(0.000114514 0 0)
(0.000172559 0 0)
(0.000228912 0 0)
(0.000283532 0 0)
(0.00033693 0 0)
(0.000389369 0 0)
(0.000441046 0 0)
(0.000491989 0 0)
(0.000542154 0 0)
(0.00059186 0 0)
(0.000641116 0 0)
(0.000689935 0 0)
(0.000738375 0 0)
(0.00078631 0 0)
(0.000833689 0 0)
(0.000881013 0 0)
(0.000927855 0 0)
(0.000974264 0 0)
(0.00102045 0 0)
(0.00106638 0 0)
(0.00111202 0 0)
(0.00115735 0 0)
(0.00120252 0 0)
(0.00124711 0 0)
(0.0012915 0 0)
(0.00133567 0 0)
(0.00137977 0 0)
(0.00142336 0 0)
(0.00146701 0 0)
(0.0015105 0 0)
(0.00155354 0 0)
(0.00159635 0 0)
(0.00163899 0 0)
(0.00168147 0 0)
(0.00172363 0 0)
(0.00176593 0 0)
(0.00180795 0 0)
(0.00184963 0 0)
(0.00189113 0 0)
(0.00193246 0 0)
(0.00197376 0 0)
(0.0020145 0 0)
(0.00205524 0 0)
(0.0020961 0 0)
(0.00213632 0 0)
(0.00217649 0 0)
(0.00221607 0 0)
(0.002256 0 0)
(0.00229605 0 0)
(0.00233561 0 0)
(0.00237497 0 0)
(0.00241484 0 0)
(0.00245449 0 0)
(0.00249332 0 0)
(0.00253251 0 0)
(0.0025703 0 0)
(0.00260844 0 0)
(0.00264702 0 0)
(0.00268593 0 0)
(0.00272403 0 0)
(0.00276251 0 0)
(0.00280016 0 0)
(0.00283773 0 0)
(0.00287588 0 0)
(0.00291398 0 0)
(0.00295168 0 0)
(0.00298916 0 0)
(0.00302726 0 0)
(0.00306261 0 0)
(0.00310011 0 0)
(0.00313749 0 0)
(0.0031742 0 0)
(0.00321053 0 0)
(0.00324773 0 0)
(0.0032841 0 0)
(0.00332099 0 0)
(0.00335722 0 0)
(0.00339304 0 0)
(0.00342902 0 0)
(0.00346522 0 0)
(0.0035007 0 0)
(0.00353721 0 0)
(0.00357318 0 0)
(0.00360857 0 0)
(0.00364415 0 0)
(0.00368045 0 0)
(0.0037144 0 0)
(0.00374954 0 0)
(0.00378443 0 0)
(0.00381993 0 0)
(0.00385477 0 0)
(0.00388992 0 0)
(0.00392478 0 0)
(0.00395978 0 0)
(0.00399446 0 0)
(0.00402872 0 0)
(0.00406357 0 0)
(0.00409742 0 0)
(0.00413123 0 0)
)
;

boundaryField
{
    inlet
    {
        type            fixedValue;
        value           uniform (0 0 0);
    }
    outlet
    {
        type            zeroGradient;
    }
    yzfaces
    {
        type            empty;
    }
}


// ************************************************************************* //
