/*--------------------------------*- C++ -*----------------------------------*\
| =========                 |                                                 |
| \\      /  F ield         | foam-extend: Open Source CFD                    |
|  \\    /   O peration     | Version:     5.0                                |
|   \\  /    A nd           | Web:         http://www.foam-extend.org         |
|    \\/     M anipulation  |                                                 |
\*---------------------------------------------------------------------------*/
FoamFile
{
    version     2.0;
    format      ascii;
    class       volScalarField;
    location    "9";
    object      alpha.water;
}
// * * * * * * * * * * * * * * * * * * * * * * * * * * * * * * * * * * * * * //

dimensions      [0 0 0 0 0 0 0];

internalField   nonuniform List<scalar> 
100
(
-0.000534745
0.000399441
0.0433369
0.034007
0.0273707
0.033742
0.0350394
0.0321437
0.0328715
0.0350482
0.0347962
0.0396021
0.0372624
0.0411448
0.0448415
0.0434134
0.0479218
0.0461275
0.0470974
0.0499532
0.0506015
0.0503192
0.0545507
0.0532169
0.0571228
0.0592122
0.062398
0.0627252
0.064935
0.0686263
0.0694775
0.0698027
0.0723258
0.0726558
0.0720566
0.0732584
0.0727244
0.0730656
0.0742161
0.075767
0.0769552
0.0787515
0.0810588
0.0838326
0.0859029
0.0881767
0.0883918
0.0883089
0.0889414
0.0898383
0.0908538
0.0930351
0.0946218
0.0944063
0.0961924
0.0976203
0.0982731
0.0999885
0.101186
0.101356
0.102959
0.104636
0.105218
0.106447
0.107603
0.108552
0.110112
0.110491
0.112552
0.113693
0.114856
0.116605
0.117797
0.119659
0.121457
0.123615
0.125379
0.127612
0.129946
0.132326
0.135255
0.138567
0.142536
0.147741
0.155087
0.167946
0.196495
0.173979
0.174518
0.174665
0.174659
0.174579
0.174489
0.174412
0.174318
0.174233
0.174145
0.174053
0.17395
0.173823
)
;

boundaryField
{
    inlet
    {
        type            fixedValue;
        value           uniform 0;
    }
    outlet
    {
        type            zeroGradient;
    }
    yzfaces
    {
        type            empty;
    }
}


// ************************************************************************* //
