/*--------------------------------*- C++ -*----------------------------------*\
| =========                 |                                                 |
| \\      /  F ield         | foam-extend: Open Source CFD                    |
|  \\    /   O peration     | Version:     5.0                                |
|   \\  /    A nd           | Web:         http://www.foam-extend.org         |
|    \\/     M anipulation  |                                                 |
\*---------------------------------------------------------------------------*/
FoamFile
{
    version     2.0;
    format      ascii;
    class       volScalarField;
    location    "9";
    object      Cl.water;
}
// * * * * * * * * * * * * * * * * * * * * * * * * * * * * * * * * * * * * * //

dimensions      [0 0 0 0 0 0 0];

internalField   nonuniform List<scalar> 
100
(
0
8.09581e-05
0.00688836
0.00627152
0.00545213
0.00670168
0.00696093
0.00655245
0.00685921
0.00733652
0.00730734
0.00818289
0.00790194
0.00860518
0.00924288
0.00914065
0.0099681
0.00977375
0.0100153
0.0105468
0.0107381
0.0108465
0.011545
0.0114726
0.0119691
0.0123828
0.0128628
0.0130256
0.0133537
0.0139719
0.0142035
0.0144072
0.014834
0.0149243
0.0149469
0.0152203
0.0150854
0.0152221
0.01545
0.0156922
0.0158735
0.0161839
0.0166178
0.0170979
0.0175421
0.017788
0.0180385
0.0180834
0.0182516
0.0184318
0.0185717
0.0189035
0.0192046
0.0192872
0.0195905
0.0198692
0.0199751
0.0202424
0.0205454
0.0206979
0.0209013
0.0212837
0.0214936
0.021694
0.0218831
0.0222079
0.0224658
0.0226875
0.0229406
0.0231944
0.0234997
0.0238788
0.0242328
0.0245189
0.0248659
0.025281
0.0256893
0.0261138
0.0265932
0.0271218
0.0277083
0.0284018
0.0292103
0.0302718
0.0317686
0.0343882
0.0402662
0.0364887
0.0367237
0.0367752
0.0367737
0.0367817
0.036731
0.0366962
0.0367187
0.0366917
0.0366724
0.0366583
0.0366332
0.0366119
)
;

boundaryField
{
    inlet
    {
        type            fixedValue;
        value           uniform 0;
    }
    outlet
    {
        type            zeroGradient;
    }
    yzfaces
    {
        type            empty;
    }
}


// ************************************************************************* //
