/*--------------------------------*- C++ -*----------------------------------*\
| =========                 |                                                 |
| \\      /  F ield         | foam-extend: Open Source CFD                    |
|  \\    /   O peration     | Version:     5.0                                |
|   \\  /    A nd           | Web:         http://www.foam-extend.org         |
|    \\/     M anipulation  |                                                 |
\*---------------------------------------------------------------------------*/
FoamFile
{
    version     2.0;
    format      ascii;
    class       volScalarField;
    location    "9";
    object      CO2.gas;
}
// * * * * * * * * * * * * * * * * * * * * * * * * * * * * * * * * * * * * * //

dimensions      [0 0 0 0 0 0 0];

internalField   nonuniform List<scalar> 
100
(
0.200144
0.199212
0.156358
0.16567
0.172293
0.165934
0.164639
0.167529
0.166803
0.164631
0.164882
0.160086
0.162421
0.158546
0.154856
0.156282
0.151782
0.153573
0.152605
0.149755
0.149108
0.149389
0.145166
0.146497
0.142599
0.140514
0.137334
0.137008
0.134802
0.131118
0.130268
0.129944
0.127426
0.127096
0.127694
0.126495
0.127028
0.126687
0.125539
0.123991
0.122805
0.121012
0.11871
0.115941
0.113875
0.111606
0.111391
0.111474
0.110842
0.109947
0.108934
0.106757
0.105173
0.105388
0.103605
0.10218
0.101529
0.0998167
0.0986219
0.0984517
0.0968523
0.0951782
0.0945978
0.0933703
0.0922169
0.0912701
0.0897127
0.0893349
0.0872778
0.0861387
0.0849786
0.0832327
0.0820428
0.0801841
0.0783903
0.0762359
0.0744761
0.0722467
0.0699175
0.0675418
0.0646185
0.0613129
0.0573521
0.0521576
0.0448254
0.0319912
0.00349821
0.0252911
0.0243439
0.023727
0.0232327
0.0227919
0.0222835
0.0217315
0.0211909
0.0205712
0.0199151
0.0192408
0.0185347
0.0178145
)
;

boundaryField
{
    inlet
    {
        type            fixedValue;
        value           uniform 0.2;
    }
    outlet
    {
        type            zeroGradient;
    }
    yzfaces
    {
        type            empty;
    }
}


// ************************************************************************* //
