/*--------------------------------*- C++ -*----------------------------------*\
| =========                 |                                                 |
| \\      /  F ield         | foam-extend: Open Source CFD                    |
|  \\    /   O peration     | Version:     5.0                                |
|   \\  /    A nd           | Web:         http://www.foam-extend.org         |
|    \\/     M anipulation  |                                                 |
\*---------------------------------------------------------------------------*/
FoamFile
{
    version     2.0;
    format      ascii;
    class       volScalarField;
    location    "9";
    object      CO2.water;
}
// * * * * * * * * * * * * * * * * * * * * * * * * * * * * * * * * * * * * * //

dimensions      [0 0 0 0 0 0 0];

internalField   nonuniform List<scalar> 
100
(
-1.40448e-05
1.04911e-05
0.00113822
0.000893177
0.00071888
0.000886219
0.000920293
0.000844239
0.000863355
0.000920526
0.000913906
0.00104013
0.000978679
0.00108065
0.00117774
0.00114023
0.00125864
0.00121152
0.00123699
0.001312
0.00132903
0.00132161
0.00143275
0.00139772
0.0015003
0.00155518
0.00163885
0.00164745
0.00170549
0.00180244
0.0018248
0.00183334
0.0018996
0.00190827
0.00189253
0.0019241
0.00191007
0.00191903
0.00194925
0.00198999
0.00202119
0.00206837
0.00212897
0.00220182
0.0022562
0.00231592
0.00232157
0.00231939
0.002336
0.00235956
0.00238623
0.00244353
0.0024852
0.00247954
0.00252645
0.00256395
0.0025811
0.00262615
0.0026576
0.00266207
0.00270416
0.00274822
0.00276349
0.00279579
0.00282615
0.00285106
0.00289205
0.00290199
0.00295612
0.0029861
0.00301663
0.00306257
0.00309389
0.0031428
0.00319001
0.0032467
0.00329301
0.00335168
0.00341297
0.00347549
0.00355242
0.00363941
0.00374364
0.00388034
0.00407329
0.00441103
0.00516085
0.000598497
0.000194445
6.074e-05
1.84625e-05
5.51966e-06
1.63411e-06
4.83408e-07
1.43993e-07
4.32362e-08
1.31349e-08
4.0509e-09
1.26654e-09
3.87789e-10
)
;

boundaryField
{
    inlet
    {
        type            fixedValue;
        value           uniform 0;
    }
    outlet
    {
        type            zeroGradient;
    }
    yzfaces
    {
        type            empty;
    }
}


// ************************************************************************* //
