/*--------------------------------*- C++ -*----------------------------------*\
| =========                 |                                                 |
| \\      /  F ield         | foam-extend: Open Source CFD                    |
|  \\    /   O peration     | Version:     5.0                                |
|   \\  /    A nd           | Web:         http://www.foam-extend.org         |
|    \\/     M anipulation  |                                                 |
\*---------------------------------------------------------------------------*/
FoamFile
{
    version     2.0;
    format      ascii;
    class       volScalarField;
    location    "9";
    object      H2O.gas;
}
// * * * * * * * * * * * * * * * * * * * * * * * * * * * * * * * * * * * * * //

dimensions      [0 0 0 0 0 0 0];

internalField   nonuniform List<scalar> 
100
(
0.000390536
0.000388716
0.000305097
0.000323267
0.00033619
0.000323783
0.000321256
0.000326895
0.000325478
0.000321239
0.00032173
0.00031237
0.000316927
0.000309366
0.000302167
0.000304948
0.000296168
0.000299662
0.000297773
0.000292212
0.000290949
0.000291499
0.000283258
0.000285856
0.000278249
0.00027418
0.000267976
0.000267339
0.000263035
0.000255846
0.000254189
0.000253555
0.000248642
0.000247999
0.000249166
0.000246826
0.000247865
0.000247201
0.00024496
0.00024194
0.000239626
0.000236128
0.000231635
0.000226233
0.000222201
0.000217773
0.000217354
0.000217515
0.000216283
0.000214537
0.000212559
0.000208311
0.000205221
0.000205641
0.000202162
0.000199381
0.00019811
0.000194769
0.000192438
0.000192106
0.000188985
0.000185718
0.000184586
0.000182191
0.00017994
0.000178093
0.000175054
0.000174317
0.000170303
0.00016808
0.000165816
0.00016241
0.000160088
0.000156461
0.000152961
0.000148757
0.000145323
0.000140973
0.000136428
0.000131792
0.000126088
0.000119638
0.000111909
0.000101774
8.74665e-05
6.24235e-05
6.82596e-06
0.000715329
0.00114176
0.00160447
0.00210439
0.00264777
0.00322642
0.00384404
0.00450664
0.00520325
0.00593998
0.0067117
0.00752002
0.00836821
)
;

boundaryField
{
    inlet
    {
        type            fixedValue;
        value           uniform 0;
    }
    outlet
    {
        type            zeroGradient;
    }
    yzfaces
    {
        type            empty;
    }
}


// ************************************************************************* //
