/*--------------------------------*- C++ -*----------------------------------*\
| =========                 |                                                 |
| \\      /  F ield         | foam-extend: Open Source CFD                    |
|  \\    /   O peration     | Version:     5.0                                |
|   \\  /    A nd           | Web:         http://www.foam-extend.org         |
|    \\/     M anipulation  |                                                 |
\*---------------------------------------------------------------------------*/
FoamFile
{
    version     2.0;
    format      ascii;
    class       volScalarField;
    location    "9";
    object      H2O.water;
}
// * * * * * * * * * * * * * * * * * * * * * * * * * * * * * * * * * * * * * //

dimensions      [0 0 0 0 0 0 0];

internalField   nonuniform List<scalar> 
100
(
-0.0005207
0.000227081
0.028421
0.0205724
0.0157454
0.0194519
0.0202017
0.0181912
0.0182867
0.0194517
0.019259
0.0221896
0.0204765
0.0228503
0.0251688
0.0239893
0.0267258
0.0253708
0.0258248
0.027556
0.0278009
0.0272998
0.0300151
0.0288667
0.0316806
0.0328898
0.035026
0.0350243
0.0365214
0.038868
0.0392244
0.0391331
0.0407335
0.0408741
0.0402389
0.0408762
0.0406247
0.0406897
0.0413581
0.0423855
0.0431785
0.044305
0.0456759
0.0474338
0.0485627
0.0502898
0.0499918
0.0498309
0.0501082
0.0506135
0.0513275
0.0527852
0.0537242
0.0533509
0.0544818
0.0553042
0.0557365
0.0568634
0.0574322
0.0572915
0.0584344
0.0592955
0.0594472
0.0602455
0.0609997
0.0612679
0.0622588
0.06219
0.0636821
0.0642966
0.0648278
0.0657713
0.066228
0.0674773
0.0685298
0.0698122
0.0707083
0.0720319
0.0733365
0.0746001
0.0762882
0.0781425
0.0803921
0.0833401
0.0874889
0.0947732
0.11082
0.100325
0.100929
0.101056
0.101086
0.101151
0.101029
0.100946
0.101004
0.100923
0.100834
0.100797
0.100741
0.100671
)
;

boundaryField
{
    inlet
    {
        type            fixedValue;
        value           uniform 0;
    }
    outlet
    {
        type            zeroGradient;
    }
    yzfaces
    {
        type            empty;
    }
}


// ************************************************************************* //
