/*--------------------------------*- C++ -*----------------------------------*\
| =========                 |                                                 |
| \\      /  F ield         | foam-extend: Open Source CFD                    |
|  \\    /   O peration     | Version:     5.0                                |
|   \\  /    A nd           | Web:         http://www.foam-extend.org         |
|    \\/     M anipulation  |                                                 |
\*---------------------------------------------------------------------------*/
FoamFile
{
    version     2.0;
    format      ascii;
    class       volScalarField;
    location    "9";
    object      Na.water;
}
// * * * * * * * * * * * * * * * * * * * * * * * * * * * * * * * * * * * * * //

dimensions      [0 0 0 0 0 0 0];

internalField   nonuniform List<scalar> 
100
(
0
8.09113e-05
0.00688932
0.00626983
0.0054543
0.00670219
0.00695645
0.00655576
0.00686219
0.00733947
0.00731596
0.0081895
0.00790521
0.00860866
0.00925207
0.0091433
0.00996924
0.00977141
0.0100203
0.0105385
0.0107335
0.0108514
0.0115578
0.0114799
0.0119727
0.0123845
0.0128703
0.0130278
0.0133545
0.0139841
0.0142248
0.0144291
0.0148587
0.014949
0.0149783
0.0152379
0.0151043
0.0152348
0.0154588
0.0156993
0.015882
0.0161942
0.0166361
0.0170991
0.0175419
0.017783
0.0180399
0.0180752
0.0182456
0.0184335
0.0185683
0.0189029
0.0192079
0.0192887
0.0195936
0.0198829
0.0199803
0.0202565
0.0205504
0.0207047
0.0209188
0.0213087
0.0215133
0.0217122
0.0218943
0.0222249
0.0224956
0.0227113
0.0229731
0.023216
0.0235115
0.0238922
0.0242425
0.0245204
0.0248711
0.0252754
0.025688
0.0261149
0.0266034
0.027129
0.0277066
0.0283837
0.02919
0.0302484
0.0317564
0.0343739
0.0402476
0.0364664
0.0366978
0.0367469
0.0367511
0.0367654
0.0367153
0.0366821
0.0367008
0.0366654
0.0366396
0.0366342
0.0366113
0.0365807
)
;

boundaryField
{
    inlet
    {
        type            fixedValue;
        value           uniform 0;
    }
    outlet
    {
        type            zeroGradient;
    }
    yzfaces
    {
        type            empty;
    }
}


// ************************************************************************* //
