/*--------------------------------*- C++ -*----------------------------------*\
| =========                 |                                                 |
| \\      /  F ield         | foam-extend: Open Source CFD                    |
|  \\    /   O peration     | Version:     5.0                                |
|   \\  /    A nd           | Web:         http://www.foam-extend.org         |
|    \\/     M anipulation  |                                                 |
\*---------------------------------------------------------------------------*/
FoamFile
{
    version     2.0;
    format      ascii;
    class       surfaceScalarField;
    location    "9";
    object      phi;
}
// * * * * * * * * * * * * * * * * * * * * * * * * * * * * * * * * * * * * * //

dimensions      [0 3 -1 0 0 0 0];

internalField   nonuniform List<scalar> 
99
(
1.22589e-06
1.24011e-06
1.24972e-06
1.24582e-06
1.25494e-06
1.26644e-06
1.26703e-06
1.26697e-06
1.27492e-06
1.28023e-06
1.27615e-06
1.27256e-06
1.2631e-06
1.26524e-06
1.26808e-06
1.2708e-06
1.26563e-06
1.26387e-06
1.26199e-06
1.26403e-06
1.27409e-06
1.26001e-06
1.25872e-06
1.24536e-06
1.24177e-06
1.23593e-06
1.23877e-06
1.2317e-06
1.23031e-06
1.2275e-06
1.22339e-06
1.22322e-06
1.22148e-06
1.24336e-06
1.2391e-06
1.24035e-06
1.24013e-06
1.2418e-06
1.24584e-06
1.24855e-06
1.23866e-06
1.22565e-06
1.21394e-06
1.20745e-06
1.20992e-06
1.20087e-06
1.20455e-06
1.19917e-06
1.19709e-06
1.19787e-06
1.19812e-06
1.1934e-06
1.1941e-06
1.18576e-06
1.18952e-06
1.18955e-06
1.18736e-06
1.1911e-06
1.19853e-06
1.20381e-06
1.20365e-06
1.21497e-06
1.21216e-06
1.21416e-06
1.20315e-06
1.20266e-06
1.21136e-06
1.21288e-06
1.22431e-06
1.22789e-06
1.23345e-06
1.22992e-06
1.22633e-06
1.22318e-06
1.22083e-06
1.22577e-06
1.22149e-06
1.22096e-06
1.21877e-06
1.21692e-06
1.21557e-06
1.21593e-06
1.21216e-06
1.21236e-06
1.21138e-06
1.21281e-06
1.21171e-06
1.214e-06
1.21445e-06
1.2148e-06
1.21476e-06
1.21385e-06
1.21261e-06
1.21423e-06
1.21439e-06
1.21321e-06
1.21564e-06
1.21668e-06
1.21809e-06
)
;

boundaryField
{
    inlet
    {
        type            calculated;
        value           uniform -1.225e-06;
    }
    outlet
    {
        type            calculated;
        value           uniform 1.21489e-06;
    }
    yzfaces
    {
        type            empty;
    }
}


// ************************************************************************* //
