/*--------------------------------*- C++ -*----------------------------------*\
| =========                 |                                                 |
| \\      /  F ield         | foam-extend: Open Source CFD                    |
|  \\    /   O peration     | Version:     5.0                                |
|   \\  /    A nd           | Web:         http://www.foam-extend.org         |
|    \\/     M anipulation  |                                                 |
\*---------------------------------------------------------------------------*/
FoamFile
{
    version     2.0;
    format      ascii;
    class       volVectorField;
    location    "9";
    object      U.gas;
}
// * * * * * * * * * * * * * * * * * * * * * * * * * * * * * * * * * * * * * //

dimensions      [0 1 -1 0 0 0 0];

internalField   nonuniform List<vector> 
100
(
(0.00500182 0 0)
(0.00504376 0 0)
(0.00648085 0 0)
(0.00614046 0 0)
(0.00588678 0 0)
(0.00617478 0 0)
(0.00626897 0 0)
(0.0061579 0 0)
(0.00621169 0 0)
(0.00631442 0 0)
(0.00632254 0 0)
(0.00647003 0 0)
(0.00636766 0 0)
(0.00649425 0 0)
(0.00662873 0 0)
(0.00660384 0 0)
(0.0067833 0 0)
(0.00668267 0 0)
(0.00672854 0 0)
(0.00685139 0 0)
(0.00689072 0 0)
(0.00690011 0 0)
(0.00706119 0 0)
(0.00694747 0 0)
(0.00706436 0 0)
(0.00713332 0 0)
(0.00728215 0 0)
(0.00728913 0 0)
(0.00739128 0 0)
(0.007534 0 0)
(0.00757017 0 0)
(0.00758024 0 0)
(0.00769468 0 0)
(0.00774339 0 0)
(0.00780387 0 0)
(0.00786175 0 0)
(0.00783766 0 0)
(0.00786869 0 0)
(0.00793845 0 0)
(0.00805689 0 0)
(0.00811234 0 0)
(0.00815652 0 0)
(0.00820843 0 0)
(0.0083063 0 0)
(0.00840846 0 0)
(0.00854928 0 0)
(0.00852215 0 0)
(0.00851786 0 0)
(0.00853537 0 0)
(0.00857161 0 0)
(0.00864773 0 0)
(0.00879808 0 0)
(0.00888307 0 0)
(0.00884567 0 0)
(0.00893738 0 0)
(0.00905134 0 0)
(0.00909173 0 0)
(0.00921953 0 0)
(0.00935099 0 0)
(0.00940952 0 0)
(0.00956608 0 0)
(0.0097287 0 0)
(0.00980298 0 0)
(0.00991966 0 0)
(0.00998744 0 0)
(0.00997836 0 0)
(0.0101407 0 0)
(0.0102152 0 0)
(0.0104457 0 0)
(0.0106168 0 0)
(0.0107417 0 0)
(0.0109369 0 0)
(0.0109945 0 0)
(0.0111461 0 0)
(0.0112756 0 0)
(0.0114714 0 0)
(0.0116479 0 0)
(0.0118291 0 0)
(0.0120244 0 0)
(0.0122247 0 0)
(0.0124891 0 0)
(0.0127731 0 0)
(0.0131197 0 0)
(0.0135555 0 0)
(0.0141571 0 0)
(0.0152197 0 0)
(0.0124384 0 0)
(0.0112619 0 0)
(0.0108023 0 0)
(0.0106272 0 0)
(0.0105745 0 0)
(0.0105682 0 0)
(0.0105815 0 0)
(0.0106105 0 0)
(0.0106373 0 0)
(0.0106583 0 0)
(0.0106877 0 0)
(0.0107262 0 0)
(0.0107607 0 0)
(0.0107762 0 0)
)
;

boundaryField
{
    inlet
    {
        type            fixedValue;
        value           uniform (0.005 0 0);
    }
    outlet
    {
        type            zeroGradient;
    }
    yzfaces
    {
        type            empty;
    }
}


// ************************************************************************* //
