/*--------------------------------*- C++ -*----------------------------------*\
| =========                 |                                                 |
| \\      /  F ield         | foam-extend: Open Source CFD                    |
|  \\    /   O peration     | Version:     5.0                                |
|   \\  /    A nd           | Web:         http://www.foam-extend.org         |
|    \\/     M anipulation  |                                                 |
\*---------------------------------------------------------------------------*/
FoamFile
{
    version     2.0;
    format      ascii;
    class       volVectorField;
    location    "9";
    object      U.water;
}
// * * * * * * * * * * * * * * * * * * * * * * * * * * * * * * * * * * * * * //

dimensions      [0 1 -1 0 0 0 0];

internalField   nonuniform List<vector> 
100
(
(0 0 0)
(3.18198e-07 0 0)
(5.12912e-05 0 0)
(0.000100853 0 0)
(7.30902e-05 0 0)
(5.65189e-05 0 0)
(7.21385e-05 0 0)
(7.57539e-05 0 0)
(6.82846e-05 0 0)
(7.1911e-05 0 0)
(7.68615e-05 0 0)
(7.99599e-05 0 0)
(8.99609e-05 0 0)
(8.7209e-05 0 0)
(9.94084e-05 0 0)
(0.000107936 0 0)
(0.000108807 0 0)
(0.000120456 0 0)
(0.000115303 0 0)
(0.00012205 0 0)
(0.000132043 0 0)
(0.000132916 0 0)
(0.000138683 0 0)
(0.000151643 0 0)
(0.000148964 0 0)
(0.000163722 0 0)
(0.000176332 0 0)
(0.00018987 0 0)
(0.000194884 0 0)
(0.000210098 0 0)
(0.000225303 0 0)
(0.000231506 0 0)
(0.000237677 0 0)
(0.00025027 0 0)
(0.000251425 0 0)
(0.000253854 0 0)
(0.000259362 0 0)
(0.00025859 0 0)
(0.00026351 0 0)
(0.000272671 0 0)
(0.000284071 0 0)
(0.000293734 0 0)
(0.000308108 0 0)
(0.000326925 0 0)
(0.00034903 0 0)
(0.000368864 0 0)
(0.000386024 0 0)
(0.0003862 0 0)
(0.000387423 0 0)
(0.000394426 0 0)
(0.000402937 0 0)
(0.000419153 0 0)
(0.000443339 0 0)
(0.000454999 0 0)
(0.000460242 0 0)
(0.000479064 0 0)
(0.00049527 0 0)
(0.000510631 0 0)
(0.000534543 0 0)
(0.000550702 0 0)
(0.000562645 0 0)
(0.000591488 0 0)
(0.000614912 0 0)
(0.000630803 0 0)
(0.000653076 0 0)
(0.000669882 0 0)
(0.000689271 0 0)
(0.000714166 0 0)
(0.000738817 0 0)
(0.000779654 0 0)
(0.000810516 0 0)
(0.000843039 0 0)
(0.000882128 0 0)
(0.000917522 0 0)
(0.000964849 0 0)
(0.00101871 0 0)
(0.00107873 0 0)
(0.00114239 0 0)
(0.00121787 0 0)
(0.00130282 0 0)
(0.00140592 0 0)
(0.00153659 0 0)
(0.00170257 0 0)
(0.00194055 0 0)
(0.00231511 0 0)
(0.00302057 0 0)
(0.00375267 0 0)
(0.00400644 0 0)
(0.00410239 0 0)
(0.00413529 0 0)
(0.00414343 0 0)
(0.00413918 0 0)
(0.00412888 0 0)
(0.00412269 0 0)
(0.00411941 0 0)
(0.00411072 0 0)
(0.00410599 0 0)
(0.00410489 0 0)
(0.00410158 0 0)
(0.00409015 0 0)
)
;

boundaryField
{
    inlet
    {
        type            fixedValue;
        value           uniform (0 0 0);
    }
    outlet
    {
        type            zeroGradient;
    }
    yzfaces
    {
        type            empty;
    }
}


// ************************************************************************* //
