/*--------------------------------*- C++ -*----------------------------------*\
| =========                 |                                                 |
| \\      /  F ield         | foam-extend: Open Source CFD                    |
|  \\    /   O peration     | Version:     5.0                                |
|   \\  /    A nd           | Web:         http://www.foam-extend.org         |
|    \\/     M anipulation  |                                                 |
\*---------------------------------------------------------------------------*/
FoamFile
{
    version     2.0;
    format      ascii;
    class       volScalarField;
    location    "8.51897";
    object      CO2.water;
}
// * * * * * * * * * * * * * * * * * * * * * * * * * * * * * * * * * * * * * //

dimensions      [0 0 0 0 0 0 0];

internalField   nonuniform List<scalar> 
100
(
6.18615e-05
1.29771e-05
2.23978e-06
3.48554e-07
5.0805e-08
7.07476e-09
9.51805e-10
1.24589e-10
1.59459e-11
2.00273e-12
2.47485e-13
3.01519e-14
3.62671e-15
4.31217e-16
5.07443e-17
5.91553e-18
6.83579e-19
7.83408e-20
8.91046e-21
1.00633e-21
1.12877e-22
1.25809e-23
1.39388e-24
1.53537e-25
1.68177e-26
1.83273e-27
1.98712e-28
2.14398e-29
2.30268e-30
2.46196e-31
2.62055e-32
2.77812e-33
2.93289e-34
3.08396e-35
3.23069e-36
3.37155e-37
3.50613e-38
3.63316e-39
3.7517e-40
3.86201e-41
3.96212e-42
4.05231e-43
4.13102e-44
4.19851e-45
4.25512e-46
4.29984e-47
4.333e-48
4.35427e-49
4.36338e-50
4.36097e-51
4.34673e-52
4.32204e-53
4.28667e-54
4.24059e-55
4.18507e-56
4.12052e-57
4.04744e-58
3.96608e-59
3.87796e-60
3.78321e-61
3.68288e-62
3.57717e-63
3.46746e-64
3.35333e-65
3.23713e-66
3.11811e-67
2.99761e-68
2.87618e-69
2.75402e-70
2.6324e-71
2.51104e-72
2.39138e-73
2.27308e-74
2.15682e-75
2.04289e-76
1.93157e-77
1.82302e-78
1.71768e-79
1.61563e-80
1.51717e-81
1.42229e-82
1.33135e-83
1.24411e-84
1.16073e-85
1.08118e-86
1.00566e-87
9.34098e-89
8.66272e-90
8.02224e-91
7.41735e-92
6.84825e-93
6.31343e-94
5.81264e-95
5.34433e-96
4.90733e-97
4.49961e-98
4.12069e-99
3.7683e-100
3.44178e-101
3.13939e-102
)
;

boundaryField
{
    inlet
    {
        type            fixedValue;
        value           uniform 0;
    }
    outlet
    {
        type            zeroGradient;
    }
    yzfaces
    {
        type            empty;
    }
}


// ************************************************************************* //
