/*--------------------------------*- C++ -*----------------------------------*\
| =========                 |                                                 |
| \\      /  F ield         | foam-extend: Open Source CFD                    |
|  \\    /   O peration     | Version:     5.0                                |
|   \\  /    A nd           | Web:         http://www.foam-extend.org         |
|    \\/     M anipulation  |                                                 |
\*---------------------------------------------------------------------------*/
FoamFile
{
    version     2.0;
    format      ascii;
    class       volScalarField;
    location    "5";
    object      alpha.gas;
}
// * * * * * * * * * * * * * * * * * * * * * * * * * * * * * * * * * * * * * //

dimensions      [0 0 0 0 0 0 0];

internalField   nonuniform List<scalar> 
100
(
0.156024
0.142203
0.133852
0.127511
0.1203
0.114526
0.110446
0.106283
0.102719
0.0994116
0.0966913
0.0943926
0.0919053
0.0898794
0.0882943
0.0869823
0.0851784
0.0838107
0.0820038
0.0804216
0.0789135
0.0776756
0.0766052
0.0753683
0.074368
0.0732376
0.072094
0.0712686
0.0703276
0.0693292
0.0683934
0.0674425
0.0664802
0.0655482
0.0647579
0.0639085
0.0630259
0.0622724
0.0615713
0.0607649
0.0601631
0.059496
0.0588019
0.0581152
0.0575235
0.0568962
0.0562435
0.0555712
0.0550149
0.0543743
0.0537402
0.0531076
0.0526189
0.0519816
0.0513898
0.0507964
0.050174
0.0495373
0.0489671
0.0483544
0.0476581
0.0471046
0.0464708
0.0457891
0.0451091
0.0444492
0.0437911
0.0430816
0.0423864
0.0416478
0.0409301
0.0402036
0.0394831
0.0386973
0.0378997
0.0370845
0.0362282
0.0353247
0.0343689
0.0333338
0.0322332
0.0310619
0.0297831
0.028398
0.0269008
0.0252645
0.0235147
0.0216347
0.0196999
0.0177701
0.0159422
0.0143136
0.0129755
0.011951
0.0112343
0.0107565
0.0104559
0.0102717
0.0101624
0.0100966
)
;

boundaryField
{
    inlet
    {
        type            fixedValue;
        value           uniform 0.2;
    }
    outlet
    {
        type            zeroGradient;
    }
    yzfaces
    {
        type            empty;
    }
}


// ************************************************************************* //
