/*--------------------------------*- C++ -*----------------------------------*\
| =========                 |                                                 |
| \\      /  F ield         | foam-extend: Open Source CFD                    |
|  \\    /   O peration     | Version:     5.0                                |
|   \\  /    A nd           | Web:         http://www.foam-extend.org         |
|    \\/     M anipulation  |                                                 |
\*---------------------------------------------------------------------------*/
FoamFile
{
    version     2.0;
    format      ascii;
    class       volScalarField;
    location    "5";
    object      alpha.gas;
}
// * * * * * * * * * * * * * * * * * * * * * * * * * * * * * * * * * * * * * //

dimensions      [0 0 0 0 0 0 0];

internalField   nonuniform List<scalar> 
100
(
0.156353
0.141811
0.133644
0.126828
0.120766
0.115151
0.11049
0.106079
0.102836
0.0990652
0.0966642
0.09404
0.0918396
0.0898056
0.0875341
0.0864025
0.0848024
0.0834689
0.0817294
0.0800406
0.0785531
0.0771406
0.0761435
0.0750988
0.0739725
0.0730285
0.0719159
0.0708271
0.0698549
0.0689599
0.0681117
0.0672929
0.0665358
0.0657015
0.0647811
0.0639182
0.0631162
0.0624011
0.0616734
0.0608139
0.0601232
0.0594153
0.0587091
0.0580756
0.0573506
0.0566861
0.0560744
0.0554882
0.0549276
0.0543342
0.053825
0.0531971
0.0525941
0.0519638
0.0513898
0.0508612
0.0502482
0.0496507
0.0489765
0.0483609
0.0476995
0.0470092
0.0463169
0.0457042
0.0449745
0.0443255
0.0436486
0.0429785
0.0423232
0.0416344
0.0409472
0.0402218
0.0394881
0.0387588
0.0379538
0.0371745
0.0363346
0.035431
0.0344635
0.0334439
0.0323281
0.0311681
0.0298853
0.0284856
0.0269897
0.025339
0.023589
0.0217204
0.0197827
0.0178593
0.016019
0.0143765
0.0130219
0.0119876
0.0112591
0.0107701
0.01046
0.0102734
0.010157
0.0100852
)
;

boundaryField
{
    inlet
    {
        type            fixedValue;
        value           uniform 0.2;
    }
    outlet
    {
        type            zeroGradient;
    }
    yzfaces
    {
        type            empty;
    }
}


// ************************************************************************* //
