/*--------------------------------*- C++ -*----------------------------------*\
| =========                 |                                                 |
| \\      /  F ield         | foam-extend: Open Source CFD                    |
|  \\    /   O peration     | Version:     5.0                                |
|   \\  /    A nd           | Web:         http://www.foam-extend.org         |
|    \\/     M anipulation  |                                                 |
\*---------------------------------------------------------------------------*/
FoamFile
{
    version     2.0;
    format      ascii;
    class       volScalarField;
    location    "5";
    object      Cl.water;
}
// * * * * * * * * * * * * * * * * * * * * * * * * * * * * * * * * * * * * * //

dimensions      [0 0 0 0 0 0 0];

internalField   nonuniform List<scalar> 
100
(
0.00504996
0.00663577
0.00759533
0.00832453
0.00915384
0.00981447
0.0102816
0.0107638
0.0111723
0.0115531
0.0118644
0.0121263
0.0124126
0.0126476
0.01283
0.0129804
0.0131855
0.0133442
0.0135534
0.0137357
0.013909
0.0140519
0.0141716
0.0143108
0.014423
0.0145539
0.0146861
0.0147782
0.0148862
0.0150034
0.0151102
0.0152221
0.0153321
0.0154373
0.0155243
0.0156256
0.0157252
0.0158126
0.015895
0.015986
0.0160604
0.0161417
0.0162216
0.0163032
0.0163712
0.0164367
0.0165099
0.0165916
0.0166519
0.016721
0.0167988
0.0168732
0.016927
0.0169999
0.0170636
0.0171298
0.017203
0.0172825
0.0173455
0.0174191
0.0174976
0.0175622
0.017633
0.0177122
0.0177923
0.0178679
0.0179387
0.0180174
0.0180919
0.0181793
0.0182626
0.0193056
0.0194308
0.0195309
0.0196378
0.0197513
0.0198306
0.0199303
0.0200537
0.0201661
0.0203158
0.0204584
0.0205951
0.020787
0.0209408
0.0211296
0.0213303
0.0215498
0.0218019
0.0220419
0.0222596
0.0224535
0.0226301
0.022732
0.0228283
0.0228988
0.0229422
0.0229701
0.022977
0.0229872
)
;

boundaryField
{
    inlet
    {
        type            fixedValue;
        value           uniform 0;
    }
    outlet
    {
        type            zeroGradient;
    }
    yzfaces
    {
        type            empty;
    }
}


// ************************************************************************* //
