/*--------------------------------*- C++ -*----------------------------------*\
| =========                 |                                                 |
| \\      /  F ield         | foam-extend: Open Source CFD                    |
|  \\    /   O peration     | Version:     5.0                                |
|   \\  /    A nd           | Web:         http://www.foam-extend.org         |
|    \\/     M anipulation  |                                                 |
\*---------------------------------------------------------------------------*/
FoamFile
{
    version     2.0;
    format      ascii;
    class       volScalarField;
    location    "5";
    object      Cl.water;
}
// * * * * * * * * * * * * * * * * * * * * * * * * * * * * * * * * * * * * * //

dimensions      [0 0 0 0 0 0 0];

internalField   nonuniform List<scalar> 
100
(
0.00501198
0.00668425
0.00762408
0.0084086
0.00910232
0.00974751
0.0102816
0.0107855
0.0111579
0.0115913
0.0118694
0.0121728
0.0124258
0.0126567
0.0129158
0.0130477
0.0132316
0.013384
0.0135803
0.0137766
0.0139504
0.014114
0.0142299
0.0143458
0.0144748
0.0145854
0.0147161
0.0148431
0.0149458
0.0150474
0.0151475
0.0152408
0.0153291
0.0154253
0.0155359
0.015633
0.0157196
0.0158058
0.0158913
0.0159906
0.0160716
0.016151
0.0162303
0.0163
0.0163845
0.0164639
0.0165294
0.0165955
0.0166624
0.0167287
0.0167886
0.0168585
0.0169267
0.0169982
0.017063
0.0171296
0.0172005
0.0172713
0.0173463
0.0174244
0.017497
0.0175726
0.0176528
0.017725
0.0178062
0.0178757
0.0179526
0.0180278
0.0180999
0.018182
0.0182578
0.018346
0.0184301
0.0185037
0.0186153
0.0186931
0.0187917
0.0189008
0.0190063
0.0191248
0.0192624
0.0193855
0.0195413
0.019708
0.0198716
0.0200684
0.0202605
0.0204904
0.0207077
0.0209168
0.0211324
0.0213178
0.0214741
0.0216027
0.02168
0.0217312
0.0217736
0.0217831
0.0217992
0.0218116
)
;

boundaryField
{
    inlet
    {
        type            fixedValue;
        value           uniform 0;
    }
    outlet
    {
        type            zeroGradient;
    }
    yzfaces
    {
        type            empty;
    }
}


// ************************************************************************* //
