/*--------------------------------*- C++ -*----------------------------------*\
| =========                 |                                                 |
| \\      /  F ield         | foam-extend: Open Source CFD                    |
|  \\    /   O peration     | Version:     5.0                                |
|   \\  /    A nd           | Web:         http://www.foam-extend.org         |
|    \\/     M anipulation  |                                                 |
\*---------------------------------------------------------------------------*/
FoamFile
{
    version     2.0;
    format      ascii;
    class       volScalarField;
    location    "5";
    object      CO2.gas;
}
// * * * * * * * * * * * * * * * * * * * * * * * * * * * * * * * * * * * * * //

dimensions      [0 0 0 0 0 0 0];

internalField   nonuniform List<scalar> 
100
(
0.15572
0.141926
0.133592
0.127262
0.120066
0.114303
0.110231
0.106076
0.102519
0.099218
0.096503
0.0942088
0.0917263
0.0897044
0.0881224
0.0868129
0.0850125
0.0836475
0.0818441
0.080265
0.0787598
0.0775244
0.076456
0.0752216
0.0742232
0.073095
0.0719535
0.0711298
0.0701906
0.0691941
0.0682602
0.0673111
0.0663507
0.0654206
0.0646318
0.0637841
0.0629032
0.0621511
0.0614514
0.0606465
0.0600459
0.0593801
0.0586874
0.0580021
0.0574115
0.0567854
0.056134
0.055463
0.0549078
0.0542684
0.0536355
0.0530042
0.0525165
0.0518804
0.0512897
0.0506975
0.0500762
0.0494408
0.0488717
0.0482602
0.0475652
0.0470128
0.0463803
0.0456999
0.0450213
0.0443626
0.0437059
0.0429977
0.0423039
0.0415667
0.0408503
0.0330269
0.029195
0.025583
0.0222666
0.0192256
0.0164082
0.0138648
0.0115845
0.00953577
0.00773223
0.00615339
0.00479079
0.00364648
0.0026922
0.00192014
0.00131376
0.00085363
0.0005221
0.000297016
0.000155504
7.4318e-05
3.24725e-05
1.30453e-05
4.90918e-06
1.76093e-06
6.14464e-07
2.10818e-07
7.07193e-08
2.17671e-08
)
;

boundaryField
{
    inlet
    {
        type            fixedValue;
        value           uniform 0.2;
    }
    outlet
    {
        type            zeroGradient;
    }
    yzfaces
    {
        type            empty;
    }
}


// ************************************************************************* //
