/*--------------------------------*- C++ -*----------------------------------*\
| =========                 |                                                 |
| \\      /  F ield         | foam-extend: Open Source CFD                    |
|  \\    /   O peration     | Version:     5.0                                |
|   \\  /    A nd           | Web:         http://www.foam-extend.org         |
|    \\/     M anipulation  |                                                 |
\*---------------------------------------------------------------------------*/
FoamFile
{
    version     2.0;
    format      ascii;
    class       volScalarField;
    location    "5";
    object      CO2.water;
}
// * * * * * * * * * * * * * * * * * * * * * * * * * * * * * * * * * * * * * //

dimensions      [0 0 0 0 0 0 0];

internalField   nonuniform List<scalar> 
100
(
0.00115501
0.00151802
0.00173734
0.0019039
0.00209327
0.00224493
0.00235209
0.00246143
0.00255504
0.00264191
0.00271335
0.00277373
0.00283906
0.00289227
0.0029339
0.00296836
0.00301574
0.00305166
0.00309912
0.00314067
0.00318028
0.00321279
0.00324091
0.00327339
0.00329967
0.00332936
0.00335939
0.00338107
0.00340579
0.00343201
0.00345659
0.00348156
0.00350684
0.00353131
0.00355207
0.00357438
0.00359756
0.00361735
0.00363577
0.00365695
0.00367275
0.00369027
0.0037085
0.00372654
0.00374208
0.00375855
0.0037757
0.00379336
0.00380797
0.00382479
0.00384145
0.00385806
0.0038709
0.00388764
0.00390318
0.00391876
0.00393511
0.00395183
0.00396681
0.0039829
0.00400119
0.00401573
0.00403237
0.00405028
0.00406814
0.00408547
0.00410275
0.00412139
0.00413965
0.00415905
0.0041779
0.000176814
3.82529e-05
8.58025e-06
2.00611e-06
4.90171e-07
1.24991e-07
3.30227e-08
8.85125e-09
2.24718e-09
5.42092e-10
1.1746e-10
1.85457e-11
0
0
0
0
0
0
0
0
0
0
0
0
0
0
0
0
0
)
;

boundaryField
{
    inlet
    {
        type            fixedValue;
        value           uniform 0;
    }
    outlet
    {
        type            zeroGradient;
    }
    yzfaces
    {
        type            empty;
    }
}


// ************************************************************************* //
