/*--------------------------------*- C++ -*----------------------------------*\
| =========                 |                                                 |
| \\      /  F ield         | foam-extend: Open Source CFD                    |
|  \\    /   O peration     | Version:     5.0                                |
|   \\  /    A nd           | Web:         http://www.foam-extend.org         |
|    \\/     M anipulation  |                                                 |
\*---------------------------------------------------------------------------*/
FoamFile
{
    version     2.0;
    format      ascii;
    class       volScalarField;
    location    "5";
    object      Na.water;
}
// * * * * * * * * * * * * * * * * * * * * * * * * * * * * * * * * * * * * * //

dimensions      [0 0 0 0 0 0 0];

internalField   nonuniform List<scalar> 
100
(
0.00504992
0.00663841
0.00759665
0.00832395
0.00915058
0.00981608
0.010286
0.01076
0.01117
0.0115488
0.0118623
0.0121283
0.0124133
0.0126435
0.0128252
0.0129761
0.0131853
0.0133407
0.0135465
0.0137276
0.0139006
0.0140421
0.0141682
0.014313
0.0144306
0.0145593
0.0146897
0.0147872
0.0148953
0.0150074
0.0151156
0.0152221
0.0153331
0.0154419
0.0155364
0.0156302
0.0157334
0.015819
0.0158976
0.0159917
0.0160556
0.0161275
0.0162071
0.0162831
0.0163511
0.0164296
0.0165063
0.016579
0.0166465
0.0167246
0.0167923
0.0168632
0.0169216
0.0169951
0.0170674
0.0171374
0.0172071
0.0172739
0.0173419
0.017409
0.0174904
0.0175529
0.0176276
0.017705
0.0177812
0.017857
0.0179374
0.0180216
0.0181068
0.0181891
0.0182706
0.0193169
0.0194394
0.0195351
0.0196415
0.0197612
0.019837
0.0199315
0.020057
0.0201703
0.0203235
0.0204645
0.0206005
0.0207892
0.0209482
0.0211414
0.0213397
0.0215564
0.0218043
0.0220379
0.0222506
0.0224418
0.0226202
0.0227282
0.0228242
0.0228866
0.0229402
0.0229633
0.0229726
0.022981
)
;

boundaryField
{
    inlet
    {
        type            fixedValue;
        value           uniform 0;
    }
    outlet
    {
        type            zeroGradient;
    }
    yzfaces
    {
        type            empty;
    }
}


// ************************************************************************* //
