/*--------------------------------*- C++ -*----------------------------------*\
| =========                 |                                                 |
| \\      /  F ield         | foam-extend: Open Source CFD                    |
|  \\    /   O peration     | Version:     5.0                                |
|   \\  /    A nd           | Web:         http://www.foam-extend.org         |
|    \\/     M anipulation  |                                                 |
\*---------------------------------------------------------------------------*/
FoamFile
{
    version     2.0;
    format      ascii;
    class       volScalarField;
    location    "5";
    object      Ns;
}
// * * * * * * * * * * * * * * * * * * * * * * * * * * * * * * * * * * * * * //

dimensions      [0 -3 0 0 1 0 0];

internalField   nonuniform List<scalar> 
100
(
63.1679
105.08
130.871
150.448
168.422
125.623
121.275
130.863
60.8268
115.358
119.185
78.2798
79.695
130.489
94.0113
126.848
87.9488
100.66
99.1311
104.286
91.9238
105.719
89.6243
111.186
103.715
115.071
84.495
114.839
116.809
142.633
108.071
114.814
125.87
127.445
117.162
115.46
101.091
112.623
125.37
117.748
141.358
117.655
118.151
121.495
109.991
102.958
116.95
113.965
131.821
144.837
129.367
120.095
117.657
118.529
121.319
127.702
117.327
127.053
105.402
112.31
108.743
106.882
103.792
111.531
103.94
110.885
169.624
169.297
179.158
175.704
177.521
172.702
171.112
177.095
170.791
175.76
176.666
181.557
171.201
173.017
170.973
172.509
168.964
173.383
170.052
175.511
178.902
171.831
174.699
176.585
170.868
171.111
169.032
171.173
176.614
173.31
170.724
176.329
167.231
174.564
)
;

boundaryField
{
    inlet
    {
        type            fixedValue;
        value           uniform 0;
    }
    outlet
    {
        type            zeroGradient;
    }
    yzfaces
    {
        type            empty;
    }
}


// ************************************************************************* //
