/*--------------------------------*- C++ -*----------------------------------*\
| =========                 |                                                 |
| \\      /  F ield         | foam-extend: Open Source CFD                    |
|  \\    /   O peration     | Version:     5.0                                |
|   \\  /    A nd           | Web:         http://www.foam-extend.org         |
|    \\/     M anipulation  |                                                 |
\*---------------------------------------------------------------------------*/
FoamFile
{
    version     2.0;
    format      ascii;
    class       volScalarField;
    location    "5";
    object      Ns;
}
// * * * * * * * * * * * * * * * * * * * * * * * * * * * * * * * * * * * * * //

dimensions      [0 -3 0 0 1 0 0];

internalField   nonuniform List<scalar> 
100
(
46.4727
105.35
104.863
148.889
61.5089
71.9701
64.2626
69.0685
58.4068
16.9407
74.918
53.703
51.9037
58.3752
66.8005
47.8902
54.355
78.4702
53.8294
33.6092
41.9627
50.9367
78.5165
52.1942
57.395
75.5358
56.9883
75.897
45.3658
47.0015
73.0127
49.696
60.1692
51.7904
50.577
38.0996
68.4017
54.1563
58.8875
59.9241
75.5165
66.2796
52.5373
74.2725
66.7562
65.9281
64.166
55.1798
68.9117
68.1691
60.3678
47.7261
62.9291
48.0406
47.9753
61.0435
58.3273
60.3762
51.929
59.7718
50.4202
55.7927
48.8641
55.9344
49.845
52.0388
53.8764
50.258
54.817
53.0887
52.2157
2
2
2
2
2
2
2
2
2
2
2
2
2
2
2
2
2
2
2
2
2
2
2
2
2
2
2
2
2
)
;

boundaryField
{
    inlet
    {
        type            fixedValue;
        value           uniform 0;
    }
    outlet
    {
        type            zeroGradient;
    }
    yzfaces
    {
        type            empty;
    }
}


// ************************************************************************* //
