/*--------------------------------*- C++ -*----------------------------------*\
| =========                 |                                                 |
| \\      /  F ield         | foam-extend: Open Source CFD                    |
|  \\    /   O peration     | Version:     5.0                                |
|   \\  /    A nd           | Web:         http://www.foam-extend.org         |
|    \\/     M anipulation  |                                                 |
\*---------------------------------------------------------------------------*/
FoamFile
{
    version     2.0;
    format      ascii;
    class       surfaceScalarField;
    location    "5";
    object      phi;
}
// * * * * * * * * * * * * * * * * * * * * * * * * * * * * * * * * * * * * * //

dimensions      [0 3 -1 0 0 0 0];

internalField   nonuniform List<scalar> 
99
(
1.22964e-06
1.22328e-06
1.22614e-06
1.22596e-06
1.21991e-06
1.22459e-06
1.22014e-06
1.2251e-06
1.21674e-06
1.21404e-06
1.21423e-06
1.21511e-06
1.21892e-06
1.21487e-06
1.21488e-06
1.21486e-06
1.21598e-06
1.21658e-06
1.21637e-06
1.21674e-06
1.22392e-06
1.22704e-06
1.22504e-06
1.22118e-06
1.22005e-06
1.2196e-06
1.21957e-06
1.21995e-06
1.22093e-06
1.22266e-06
1.22441e-06
1.2236e-06
1.22406e-06
1.22724e-06
1.22632e-06
1.22605e-06
1.22781e-06
1.22804e-06
1.22784e-06
1.22882e-06
1.22859e-06
1.22854e-06
1.23025e-06
1.23237e-06
1.23149e-06
1.23015e-06
1.23032e-06
1.23237e-06
1.23194e-06
1.23203e-06
1.23313e-06
1.23685e-06
1.23359e-06
1.23636e-06
1.23436e-06
1.23922e-06
1.24228e-06
1.24545e-06
1.24306e-06
1.24287e-06
1.24673e-06
1.24352e-06
1.24092e-06
1.24469e-06
1.24426e-06
1.24525e-06
1.2437e-06
1.24416e-06
1.24401e-06
1.24303e-06
1.24312e-06
1.24274e-06
1.23934e-06
1.24103e-06
1.2406e-06
1.2414e-06
1.23928e-06
1.23861e-06
1.23825e-06
1.23916e-06
1.23901e-06
1.2388e-06
1.2388e-06
1.23761e-06
1.23599e-06
1.23609e-06
1.2347e-06
1.23542e-06
1.23721e-06
1.23651e-06
1.23462e-06
1.23582e-06
1.23446e-06
1.23783e-06
1.23861e-06
1.24087e-06
1.24178e-06
1.24148e-06
1.24187e-06
)
;

boundaryField
{
    inlet
    {
        type            calculated;
        value           uniform -1.225e-06;
    }
    outlet
    {
        type            calculated;
        value           uniform 1.24269e-06;
    }
    yzfaces
    {
        type            empty;
    }
}


// ************************************************************************* //
