/*--------------------------------*- C++ -*----------------------------------*\
| =========                 |                                                 |
| \\      /  F ield         | foam-extend: Open Source CFD                    |
|  \\    /   O peration     | Version:     5.0                                |
|   \\  /    A nd           | Web:         http://www.foam-extend.org         |
|    \\/     M anipulation  |                                                 |
\*---------------------------------------------------------------------------*/
FoamFile
{
    version     2.0;
    format      ascii;
    class       surfaceScalarField;
    location    "5";
    object      phi.water;
}
// * * * * * * * * * * * * * * * * * * * * * * * * * * * * * * * * * * * * * //

dimensions      [0 3 -1 0 0 0 0];

internalField   nonuniform List<scalar> 
99
(
1.084e-07
1.83148e-07
2.41988e-07
2.89953e-07
3.57863e-07
4.29212e-07
4.78488e-07
5.40974e-07
5.95434e-07
6.54048e-07
7.08712e-07
7.54317e-07
8.14261e-07
8.60917e-07
9.01145e-07
9.33543e-07
9.84249e-07
1.02202e-06
1.07818e-06
1.12957e-06
1.18773e-06
1.23328e-06
1.26793e-06
1.31116e-06
1.34765e-06
1.39386e-06
1.44159e-06
1.47712e-06
1.51922e-06
1.56626e-06
1.61033e-06
1.65514e-06
1.70399e-06
1.75615e-06
1.79418e-06
1.83855e-06
1.8919e-06
1.93467e-06
1.97344e-06
2.02282e-06
2.058e-06
2.09843e-06
2.14594e-06
2.19425e-06
2.22918e-06
2.26711e-06
2.31295e-06
2.36411e-06
2.39945e-06
2.44503e-06
2.49395e-06
2.54772e-06
2.57456e-06
2.63046e-06
2.67217e-06
2.72931e-06
2.78511e-06
2.84058e-06
2.88117e-06
2.93398e-06
3.00175e-06
3.03761e-06
3.08643e-06
3.15732e-06
3.216e-06
3.27671e-06
3.33213e-06
3.39875e-06
3.46363e-06
3.53307e-06
3.60129e-06
3.67002e-06
3.72962e-06
3.81229e-06
3.88789e-06
3.97267e-06
4.05643e-06
4.14552e-06
4.24095e-06
4.34853e-06
4.46009e-06
4.58187e-06
4.71187e-06
4.8473e-06
4.99312e-06
5.15407e-06
5.31387e-06
5.48363e-06
5.64968e-06
5.79373e-06
5.91129e-06
6.01417e-06
6.07805e-06
6.14444e-06
6.17745e-06
6.20488e-06
6.2193e-06
6.22572e-06
6.2329e-06
)
;

boundaryField
{
    inlet
    {
        type            fixedValue;
        value           uniform 0;
    }
    outlet
    {
        type            calculated;
        value           uniform 6.2404e-06;
    }
    yzfaces
    {
        type            empty;
    }
}


// ************************************************************************* //
