/*--------------------------------*- C++ -*----------------------------------*\
| =========                 |                                                 |
| \\      /  F ield         | foam-extend: Open Source CFD                    |
|  \\    /   O peration     | Version:     5.0                                |
|   \\  /    A nd           | Web:         http://www.foam-extend.org         |
|    \\/     M anipulation  |                                                 |
\*---------------------------------------------------------------------------*/
FoamFile
{
    version     2.0;
    format      ascii;
    class       surfaceScalarField;
    location    "5";
    object      phi.water;
}
// * * * * * * * * * * * * * * * * * * * * * * * * * * * * * * * * * * * * * //

dimensions      [0 3 -1 0 0 0 0];

internalField   nonuniform List<scalar> 
99
(
1.06713e-07
1.89023e-07
2.45644e-07
3.01904e-07
3.57354e-07
4.24149e-07
4.79705e-07
5.4596e-07
5.91349e-07
6.63406e-07
7.04621e-07
7.60749e-07
8.10361e-07
8.62801e-07
9.24843e-07
9.49821e-07
9.93025e-07
1.02029e-06
1.07333e-06
1.12041e-06
1.17372e-06
1.22763e-06
1.25808e-06
1.29244e-06
1.33975e-06
1.37217e-06
1.41629e-06
1.46384e-06
1.50332e-06
1.54587e-06
1.5846e-06
1.62082e-06
1.65057e-06
1.69171e-06
1.73787e-06
1.78151e-06
1.81994e-06
1.85256e-06
1.88623e-06
1.93768e-06
1.97877e-06
2.01926e-06
2.06158e-06
2.09128e-06
2.14724e-06
2.19349e-06
2.23022e-06
2.27061e-06
2.30327e-06
2.34339e-06
2.37295e-06
2.41843e-06
2.46172e-06
2.50755e-06
2.54743e-06
2.57725e-06
2.62045e-06
2.66306e-06
2.71966e-06
2.76229e-06
2.80832e-06
2.86458e-06
2.91394e-06
2.94633e-06
3.01783e-06
3.06284e-06
3.12532e-06
3.18441e-06
3.24377e-06
3.30455e-06
3.37042e-06
3.43697e-06
3.50224e-06
3.56364e-06
3.64618e-06
3.71551e-06
3.79137e-06
3.87753e-06
3.96359e-06
4.06717e-06
4.17397e-06
4.28852e-06
4.40754e-06
4.54579e-06
4.68323e-06
4.83633e-06
4.99003e-06
5.15906e-06
5.31214e-06
5.45049e-06
5.5709e-06
5.66637e-06
5.7349e-06
5.78739e-06
5.81465e-06
5.82338e-06
5.83397e-06
5.83308e-06
5.83529e-06
)
;

boundaryField
{
    inlet
    {
        type            fixedValue;
        value           uniform 0;
    }
    outlet
    {
        type            calculated;
        value           uniform 5.83387e-06;
    }
    yzfaces
    {
        type            empty;
    }
}


// ************************************************************************* //
