/*--------------------------------*- C++ -*----------------------------------*\
| =========                 |                                                 |
| \\      /  F ield         | foam-extend: Open Source CFD                    |
|  \\    /   O peration     | Version:     5.0                                |
|   \\  /    A nd           | Web:         http://www.foam-extend.org         |
|    \\/     M anipulation  |                                                 |
\*---------------------------------------------------------------------------*/
FoamFile
{
    version     2.0;
    format      ascii;
    class       volVectorField;
    location    "5";
    object      U.water;
}
// * * * * * * * * * * * * * * * * * * * * * * * * * * * * * * * * * * * * * //

dimensions      [0 1 -1 0 0 0 0];

internalField   nonuniform List<vector> 
100
(
(5.06595e-05 0 0)
(0.000120498 0 0)
(0.000177856 0 0)
(0.000224256 0 0)
(0.000270063 0 0)
(0.000319477 0 0)
(0.000369885 0 0)
(0.000418658 0 0)
(0.000465966 0 0)
(0.000511503 0 0)
(0.000559349 0 0)
(0.000598116 0 0)
(0.000641163 0 0)
(0.000682796 0 0)
(0.000727708 0 0)
(0.0007666 0 0)
(0.000793811 0 0)
(0.000824085 0 0)
(0.000855601 0 0)
(0.000895771 0 0)
(0.000936447 0 0)
(0.000978954 0 0)
(0.00101496 0 0)
(0.00104175 0 0)
(0.00107401 0 0)
(0.00110756 0 0)
(0.00113884 0 0)
(0.00117589 0 0)
(0.00121097 0 0)
(0.00124408 0 0)
(0.00127751 0 0)
(0.0013088 0 0)
(0.00133665 0 0)
(0.00136532 0 0)
(0.00139987 0 0)
(0.00143647 0 0)
(0.00147055 0 0)
(0.00150018 0 0)
(0.00152698 0 0)
(0.00156015 0 0)
(0.00159844 0 0)
(0.0016319 0 0)
(0.00166588 0 0)
(0.00169566 0 0)
(0.00172893 0 0)
(0.00177048 0 0)
(0.00180544 0 0)
(0.00183745 0 0)
(0.00186766 0 0)
(0.00189709 0 0)
(0.00192606 0 0)
(0.0019557 0 0)
(0.0019914 0 0)
(0.00202759 0 0)
(0.00206405 0 0)
(0.0020939 0 0)
(0.00212293 0 0)
(0.00215747 0 0)
(0.00219689 0 0)
(0.00223834 0 0)
(0.00227504 0 0)
(0.00231642 0 0)
(0.0023601 0 0)
(0.0023945 0 0)
(0.00243472 0 0)
(0.00248223 0 0)
(0.00252581 0 0)
(0.00257522 0 0)
(0.00262397 0 0)
(0.00267262 0 0)
(0.00272439 0 0)
(0.00277831 0 0)
(0.00283255 0 0)
(0.00288491 0 0)
(0.00294265 0 0)
(0.00300529 0 0)
(0.00306499 0 0)
(0.0031311 0 0)
(0.00320158 0 0)
(0.0032787 0 0)
(0.0033638 0 0)
(0.00345479 0 0)
(0.00354993 0 0)
(0.00365462 0 0)
(0.0037675 0 0)
(0.00388593 0 0)
(0.00401096 0 0)
(0.00414141 0 0)
(0.00427276 0 0)
(0.00439268 0 0)
(0.00449789 0 0)
(0.00458526 0 0)
(0.00465146 0 0)
(0.00470045 0 0)
(0.00473428 0 0)
(0.0047502 0 0)
(0.00475841 0 0)
(0.00476286 0 0)
(0.00476355 0 0)
(0.0047638 0 0)
)
;

boundaryField
{
    inlet
    {
        type            fixedValue;
        value           uniform (0 0 0);
    }
    outlet
    {
        type            zeroGradient;
    }
    yzfaces
    {
        type            empty;
    }
}


// ************************************************************************* //
