/*--------------------------------*- C++ -*----------------------------------*\
| =========                 |                                                 |
| \\      /  F ield         | foam-extend: Open Source CFD                    |
|  \\    /   O peration     | Version:     5.0                                |
|   \\  /    A nd           | Web:         http://www.foam-extend.org         |
|    \\/     M anipulation  |                                                 |
\*---------------------------------------------------------------------------*/
FoamFile
{
    version     2.0;
    format      ascii;
    class       volScalarField;
    location    "3";
    object      alpha.water;
}
// * * * * * * * * * * * * * * * * * * * * * * * * * * * * * * * * * * * * * //

dimensions      [0 0 0 0 0 0 0];

internalField   nonuniform List<scalar> 
100
(
0.00212824
0.00339308
0.00453939
0.00563202
0.00662988
0.00762682
0.00853918
0.00945533
0.0103153
0.0111804
0.0120091
0.0128378
0.0136194
0.0143984
0.0151675
0.0159143
0.0166449
0.0174013
0.0181918
0.0189979
0.0198034
0.0205529
0.0212657
0.0219338
0.022573
0.0231605
0.0237053
0.0241963
0.0246168
0.0249077
0.0251498
0.0254316
0.0257695
0.0261626
0.0265922
0.0270664
0.0275407
0.0280283
0.0285473
0.0290806
0.0296383
0.0302401
0.0308408
0.0314001
0.031943
0.0324644
0.0329616
0.033427
0.0338808
0.0343302
0.0347635
0.0351852
0.0356102
0.0360298
0.0363951
0.0367042
0.0369666
0.0372482
0.037577
0.0379162
0.0382898
0.0386842
0.039094
0.0394911
0.0398702
0.040237
0.0405992
0.0409561
0.0413147
0.0416339
0.0419037
0.0421351
0.0423446
0.0425551
0.0428011
0.0430728
0.0433664
0.0436858
0.0440003
0.0443005
0.0445849
0.0448789
0.0451538
0.0454262
0.0456887
0.0459512
0.0461696
0.0463775
0.04654
0.0466967
0.0468877
0.0471057
0.0473637
0.0476392
0.0479326
0.0482376
0.0485271
0.048821
0.0491038
0.0493719
)
;

boundaryField
{
    inlet
    {
        type            fixedValue;
        value           uniform 0;
    }
    outlet
    {
        type            zeroGradient;
    }
    yzfaces
    {
        type            empty;
    }
}


// ************************************************************************* //
