/*--------------------------------*- C++ -*----------------------------------*\
| =========                 |                                                 |
| \\      /  F ield         | foam-extend: Open Source CFD                    |
|  \\    /   O peration     | Version:     5.0                                |
|   \\  /    A nd           | Web:         http://www.foam-extend.org         |
|    \\/     M anipulation  |                                                 |
\*---------------------------------------------------------------------------*/
FoamFile
{
    version     2.0;
    format      ascii;
    class       volScalarField;
    location    "3";
    object      CO2.water;
}
// * * * * * * * * * * * * * * * * * * * * * * * * * * * * * * * * * * * * * //

dimensions      [0 0 0 0 0 0 0];

internalField   nonuniform List<scalar> 
100
(
5.58974e-05
8.91177e-05
0.000119225
0.000147922
0.000174131
0.000200315
0.000224278
0.00024834
0.000270926
0.000293649
0.000315413
0.000337179
0.000357709
0.000378167
0.000398368
0.000417981
0.000437172
0.000457037
0.000477799
0.00049897
0.000520126
0.000539813
0.000558533
0.000576082
0.00059287
0.0006083
0.000622609
0.000635504
0.000646549
0.000654189
0.000660547
0.00066795
0.000676825
0.000687149
0.000698433
0.000710888
0.000723343
0.00073615
0.000749782
0.000763789
0.000778437
0.000794243
0.000810019
0.000824709
0.000838967
0.000852664
0.00086572
0.000877945
0.000889863
0.000901668
0.000913048
0.000924124
0.000935285
0.000946305
0.000955902
0.000964018
0.000970912
0.000978307
0.000986943
0.00099585
0.00100566
0.00101602
0.00102678
0.00103722
0.00104717
0.00105681
0.00106632
0.00107569
0.00108511
0.0010935
0.00110058
0.00110666
0.00111216
0.00111769
0.00112415
0.00113129
0.001139
0.00114739
0.00115565
0.00116353
0.001171
0.00117872
0.00118594
0.0011931
0.00119999
0.00120689
0.00121262
0.00121808
0.00122235
0.00122647
0.00123149
0.00123721
0.00124398
0.00125122
0.00125893
0.00126694
0.00127454
0.00128226
0.00128969
0.00129673
)
;

boundaryField
{
    inlet
    {
        type            fixedValue;
        value           uniform 0;
    }
    outlet
    {
        type            zeroGradient;
    }
    yzfaces
    {
        type            empty;
    }
}


// ************************************************************************* //
