/*--------------------------------*- C++ -*----------------------------------*\
| =========                 |                                                 |
| \\      /  F ield         | foam-extend: Open Source CFD                    |
|  \\    /   O peration     | Version:     5.0                                |
|   \\  /    A nd           | Web:         http://www.foam-extend.org         |
|    \\/     M anipulation  |                                                 |
\*---------------------------------------------------------------------------*/
FoamFile
{
    version     2.0;
    format      ascii;
    class       volScalarField;
    location    "3";
    object      H2O.gas;
}
// * * * * * * * * * * * * * * * * * * * * * * * * * * * * * * * * * * * * * //

dimensions      [0 0 0 0 0 0 0];

internalField   nonuniform List<scalar> 
100
(
0.000385349
0.000382886
0.000380654
0.000378526
0.000376583
0.000374641
0.000372864
0.00037108
0.000369405
0.000367721
0.000366107
0.000364493
0.000362971
0.000361454
0.000359956
0.000358502
0.000357079
0.000355606
0.000354066
0.000352496
0.000350928
0.000349468
0.00034808
0.000346779
0.000345534
0.00034439
0.000343329
0.000342373
0.000341554
0.000340987
0.000340516
0.000339967
0.000339309
0.000338543
0.000337707
0.000336783
0.00033586
0.00033491
0.000333899
0.000332861
0.000331774
0.000330602
0.000329433
0.000328343
0.000327286
0.000326271
0.000325302
0.000324396
0.000323512
0.000322637
0.000321793
0.000320972
0.000320144
0.000319327
0.000318616
0.000318014
0.000317503
0.000316954
0.000316314
0.000315654
0.000314926
0.000314158
0.00031336
0.000312586
0.000311848
0.000311134
0.000310428
0.000309733
0.000309035
0.000308413
0.000307888
0.000307437
0.000307029
0.000306619
0.00030614
0.000305611
0.000305039
0.000304417
0.000303805
0.00030322
0.000302666
0.000302094
0.000301558
0.000301028
0.000300517
0.000300006
0.00029958
0.000299175
0.000298859
0.000298554
0.000298182
0.000297757
0.000297255
0.000296718
0.000296147
0.000295553
0.000294989
0.000294417
0.000293866
0.000293344
)
;

boundaryField
{
    inlet
    {
        type            fixedValue;
        value           uniform 0;
    }
    outlet
    {
        type            zeroGradient;
    }
    yzfaces
    {
        type            empty;
    }
}


// ************************************************************************* //
