/*--------------------------------*- C++ -*----------------------------------*\
| =========                 |                                                 |
| \\      /  F ield         | foam-extend: Open Source CFD                    |
|  \\    /   O peration     | Version:     5.0                                |
|   \\  /    A nd           | Web:         http://www.foam-extend.org         |
|    \\/     M anipulation  |                                                 |
\*---------------------------------------------------------------------------*/
FoamFile
{
    version     2.0;
    format      ascii;
    class       volScalarField;
    location    "3";
    object      H2O.water;
}
// * * * * * * * * * * * * * * * * * * * * * * * * * * * * * * * * * * * * * //

dimensions      [0 0 0 0 0 0 0];

internalField   nonuniform List<scalar> 
100
(
0.00207235
0.00330396
0.00442017
0.00548409
0.00645575
0.00742651
0.0083149
0.00920699
0.0100443
0.0108868
0.0116937
0.0125006
0.0132617
0.0140202
0.0147691
0.0154963
0.0162078
0.0169442
0.017714
0.0184989
0.0192832
0.0200131
0.0207071
0.0213578
0.0219802
0.0225522
0.0230827
0.0235608
0.0239702
0.0242535
0.0244892
0.0247637
0.0250927
0.0254755
0.0258938
0.0263556
0.0268173
0.0272921
0.0277975
0.0283168
0.0288599
0.0294459
0.0300308
0.0305754
0.031104
0.0316118
0.0320958
0.0325491
0.0329909
0.0334286
0.0338505
0.0342611
0.0346749
0.0350835
0.0354392
0.0357402
0.0359957
0.0362699
0.0365901
0.0369203
0.0372841
0.0376682
0.0380672
0.0384539
0.038823
0.0391802
0.0395329
0.0398804
0.0402296
0.0405404
0.0408031
0.0410285
0.0412324
0.0414375
0.0416769
0.0419415
0.0422274
0.0425384
0.0428446
0.043137
0.0434139
0.0437002
0.0439679
0.0442331
0.0444887
0.0447443
0.044957
0.0451594
0.0453176
0.0454703
0.0456563
0.0458685
0.0461197
0.0463879
0.0466737
0.0469707
0.0472525
0.0475388
0.0478141
0.0480752
)
;

boundaryField
{
    inlet
    {
        type            fixedValue;
        value           uniform 0;
    }
    outlet
    {
        type            zeroGradient;
    }
    yzfaces
    {
        type            empty;
    }
}


// ************************************************************************* //
