/*--------------------------------*- C++ -*----------------------------------*\
| =========                 |                                                 |
| \\      /  F ield         | foam-extend: Open Source CFD                    |
|  \\    /   O peration     | Version:     5.0                                |
|   \\  /    A nd           | Web:         http://www.foam-extend.org         |
|    \\/     M anipulation  |                                                 |
\*---------------------------------------------------------------------------*/
FoamFile
{
    version     2.0;
    format      ascii;
    class       surfaceScalarField;
    location    "3";
    object      phi;
}
// * * * * * * * * * * * * * * * * * * * * * * * * * * * * * * * * * * * * * //

dimensions      [0 3 -1 0 0 0 0];

internalField   nonuniform List<scalar> 
99
(
0.000122504
0.000122514
0.000122535
0.000122559
0.000122559
0.000122554
0.000122549
0.000122544
0.00012253
0.000122552
0.000122553
0.000122549
0.000122558
0.000122568
0.000122587
0.000122597
0.000122596
0.00012258
0.000122595
0.00012261
0.000122613
0.000122601
0.000122613
0.000122625
0.000122631
0.000122647
0.000122659
0.000122684
0.000122697
0.000122698
0.000122695
0.000122706
0.000122705
0.000122688
0.000122675
0.000122705
0.000122684
0.000122686
0.000122667
0.00012265
0.000122644
0.000122625
0.000122629
0.000122639
0.000122634
0.00012265
0.000122654
0.00012267
0.000122665
0.00012266
0.00012268
0.000122673
0.00012268
0.000122685
0.000122683
0.000122687
0.000122675
0.000122684
0.000122676
0.000122665
0.000122669
0.000122663
0.000122662
0.000122673
0.00012268
0.000122695
0.000122703
0.000122695
0.000122686
0.000122697
0.000122708
0.000122705
0.000122718
0.000122722
0.00012272
0.000122716
0.000122719
0.000122701
0.00012271
0.000122704
0.00012271
0.000122716
0.000122713
0.000122718
0.000122706
0.000122714
0.00012271
0.000122705
0.000122715
0.000122719
0.000122705
0.000122692
0.000122688
0.00012269
0.000122665
0.000122668
0.000122654
0.000122648
0.000122643
)
;

boundaryField
{
    inlet
    {
        type            calculated;
        value           uniform -0.0001225;
    }
    outlet
    {
        type            calculated;
        value           uniform 0.000122654;
    }
    yzfaces
    {
        type            empty;
    }
}


// ************************************************************************* //
