/*--------------------------------*- C++ -*----------------------------------*\
| =========                 |                                                 |
| \\      /  F ield         | foam-extend: Open Source CFD                    |
|  \\    /   O peration     | Version:     5.0                                |
|   \\  /    A nd           | Web:         http://www.foam-extend.org         |
|    \\/     M anipulation  |                                                 |
\*---------------------------------------------------------------------------*/
FoamFile
{
    version     2.0;
    format      ascii;
    class       surfaceScalarField;
    location    "3";
    object      phi.gas;
}
// * * * * * * * * * * * * * * * * * * * * * * * * * * * * * * * * * * * * * //

dimensions      [0 3 -1 0 0 0 0];

internalField   nonuniform List<scalar> 
99
(
0.00062111
0.000624959
0.000628668
0.000632187
0.000635406
0.000638523
0.000641531
0.000644449
0.000647331
0.000650348
0.000653177
0.000655975
0.00065875
0.000661559
0.000664354
0.000667016
0.000669662
0.000672421
0.000675472
0.000678494
0.0006814
0.000684066
0.000686763
0.000689325
0.000691688
0.000693981
0.000696048
0.00069795
0.000699418
0.000700451
0.000701448
0.000702747
0.000704182
0.000705684
0.000707469
0.00070955
0.000711314
0.000713371
0.000715426
0.000717571
0.000719918
0.000722315
0.000724774
0.000727135
0.000729372
0.000731631
0.000733694
0.000735756
0.000737674
0.000739602
0.000741545
0.00074334
0.000745261
0.000746995
0.000748468
0.000749757
0.000750906
0.000752337
0.000753767
0.000755307
0.00075708
0.00075887
0.000760705
0.000762566
0.000764339
0.000766109
0.000767807
0.000769406
0.000770945
0.000772408
0.000773638
0.000774662
0.00077575
0.000776854
0.000778047
0.000779389
0.000780871
0.000782269
0.000783837
0.000785201
0.000786645
0.000788054
0.000789352
0.0007907
0.000791917
0.000793145
0.000794172
0.000795051
0.000795908
0.000796761
0.000797682
0.000798811
0.000800137
0.000801575
0.00080292
0.000804445
0.000805816
0.000807241
0.000808625
)
;

boundaryField
{
    inlet
    {
        type            fixedValue;
        value           uniform -0.0006125;
    }
    outlet
    {
        type            calculated;
        value           uniform 0.000809367;
    }
    yzfaces
    {
        type            empty;
    }
}


// ************************************************************************* //
