/*--------------------------------*- C++ -*----------------------------------*\
| =========                 |                                                 |
| \\      /  F ield         | foam-extend: Open Source CFD                    |
|  \\    /   O peration     | Version:     5.0                                |
|   \\  /    A nd           | Web:         http://www.foam-extend.org         |
|    \\/     M anipulation  |                                                 |
\*---------------------------------------------------------------------------*/
FoamFile
{
    version     2.0;
    format      ascii;
    class       surfaceScalarField;
    location    "3";
    object      phi.water;
}
// * * * * * * * * * * * * * * * * * * * * * * * * * * * * * * * * * * * * * //

dimensions      [0 3 -1 0 0 0 0];

internalField   nonuniform List<scalar> 
99
(
2.91694e-07
5.22715e-07
7.38385e-07
9.53595e-07
1.14822e-06
1.3539e-06
1.53921e-06
1.734e-06
1.91527e-06
2.10526e-06
2.28668e-06
2.4759e-06
2.65349e-06
2.83415e-06
3.01697e-06
3.1964e-06
3.37049e-06
3.55235e-06
3.74885e-06
3.95349e-06
4.16717e-06
4.36734e-06
4.56241e-06
4.74658e-06
4.92813e-06
5.09656e-06
5.2562e-06
5.4047e-06
5.54047e-06
5.63005e-06
5.69624e-06
5.77277e-06
5.86638e-06
5.97797e-06
6.10114e-06
6.24636e-06
6.38845e-06
6.53525e-06
6.69483e-06
6.8599e-06
7.03267e-06
7.22616e-06
7.42825e-06
7.61619e-06
7.80106e-06
7.98245e-06
8.15656e-06
8.32127e-06
8.48063e-06
8.64229e-06
8.79979e-06
8.95076e-06
9.10743e-06
9.26888e-06
9.41146e-06
9.53314e-06
9.62892e-06
9.73019e-06
9.85367e-06
9.9785e-06
1.01208e-05
1.02722e-05
1.04356e-05
1.05966e-05
1.07511e-05
1.09014e-05
1.10503e-05
1.11959e-05
1.1349e-05
1.14909e-05
1.161e-05
1.17109e-05
1.18015e-05
1.18862e-05
1.19882e-05
1.21019e-05
1.22263e-05
1.2365e-05
1.25067e-05
1.26422e-05
1.27677e-05
1.29033e-05
1.30271e-05
1.31534e-05
1.32726e-05
1.34012e-05
1.35035e-05
1.36067e-05
1.36845e-05
1.37531e-05
1.38375e-05
1.39338e-05
1.40535e-05
1.41831e-05
1.43194e-05
1.4471e-05
1.46095e-05
1.47554e-05
1.48972e-05
)
;

boundaryField
{
    inlet
    {
        type            fixedValue;
        value           uniform 0;
    }
    outlet
    {
        type            calculated;
        value           uniform 1.50696e-05;
    }
    yzfaces
    {
        type            empty;
    }
}


// ************************************************************************* //
