/*--------------------------------*- C++ -*----------------------------------*\
| =========                 |                                                 |
| \\      /  F ield         | foam-extend: Open Source CFD                    |
|  \\    /   O peration     | Version:     5.0                                |
|   \\  /    A nd           | Web:         http://www.foam-extend.org         |
|    \\/     M anipulation  |                                                 |
\*---------------------------------------------------------------------------*/
FoamFile
{
    version     2.0;
    format      ascii;
    class       volVectorField;
    location    "3";
    object      U.water;
}
// * * * * * * * * * * * * * * * * * * * * * * * * * * * * * * * * * * * * * //

dimensions      [0 1 -1 0 0 0 0];

internalField   nonuniform List<vector> 
100
(
(0.000154433 0 0)
(0.000346255 0 0)
(0.000524048 0 0)
(0.00069581 0 0)
(0.000863804 0 0)
(0.00102369 0 0)
(0.00118505 0 0)
(0.00133781 0 0)
(0.00149282 0 0)
(0.00164262 0 0)
(0.00179521 0 0)
(0.00194457 0 0)
(0.00209559 0 0)
(0.00224139 0 0)
(0.00238908 0 0)
(0.00253708 0 0)
(0.00268306 0 0)
(0.00282874 0 0)
(0.00298235 0 0)
(0.00314542 0 0)
(0.00331387 0 0)
(0.00348335 0 0)
(0.00364411 0 0)
(0.0037993 0 0)
(0.00394748 0 0)
(0.00409051 0 0)
(0.00422371 0 0)
(0.00434864 0 0)
(0.0044618 0 0)
(0.00455725 0 0)
(0.00462495 0 0)
(0.00468401 0 0)
(0.0047535 0 0)
(0.00483665 0 0)
(0.00493286 0 0)
(0.00504022 0 0)
(0.0051583 0 0)
(0.00527729 0 0)
(0.00540153 0 0)
(0.00553446 0 0)
(0.00567337 0 0)
(0.00582078 0 0)
(0.00598016 0 0)
(0.00614043 0 0)
(0.00629225 0 0)
(0.00644145 0 0)
(0.00658617 0 0)
(0.00672548 0 0)
(0.0068581 0 0)
(0.0069883 0 0)
(0.00711874 0 0)
(0.00724564 0 0)
(0.00737074 0 0)
(0.00749802 0 0)
(0.00762204 0 0)
(0.00773036 0 0)
(0.0078225 0 0)
(0.00790436 0 0)
(0.00799427 0 0)
(0.00809702 0 0)
(0.00820534 0 0)
(0.00832491 0 0)
(0.00845189 0 0)
(0.0085839 0 0)
(0.0087128 0 0)
(0.00883758 0 0)
(0.00895975 0 0)
(0.00908051 0 0)
(0.00920016 0 0)
(0.00931976 0 0)
(0.00942685 0 0)
(0.00951756 0 0)
(0.00959691 0 0)
(0.0096704 0 0)
(0.00974625 0 0)
(0.0098342 0 0)
(0.00993159 0 0)
(0.0100373 0 0)
(0.0101511 0 0)
(0.010264 0 0)
(0.010372 0 0)
(0.0104769 0 0)
(0.0105839 0 0)
(0.0106856 0 0)
(0.0107863 0 0)
(0.0108848 0 0)
(0.010981 0 0)
(0.0110628 0 0)
(0.011139 0 0)
(0.0112013 0 0)
(0.0112637 0 0)
(0.0113382 0 0)
(0.0114248 0 0)
(0.0115265 0 0)
(0.0116347 0 0)
(0.0117505 0 0)
(0.0118701 0 0)
(0.0119854 0 0)
(0.0121025 0 0)
(0.0122146 0 0)
)
;

boundaryField
{
    inlet
    {
        type            fixedValue;
        value           uniform (0 0 0);
    }
    outlet
    {
        type            zeroGradient;
    }
    yzfaces
    {
        type            empty;
    }
}


// ************************************************************************* //
