/*--------------------------------*- C++ -*----------------------------------*\
| =========                 |                                                 |
| \\      /  F ield         | foam-extend: Open Source CFD                    |
|  \\    /   O peration     | Version:     5.0                                |
|   \\  /    A nd           | Web:         http://www.foam-extend.org         |
|    \\/     M anipulation  |                                                 |
\*---------------------------------------------------------------------------*/
FoamFile
{
    version     2.0;
    format      ascii;
    class       volScalarField;
    location    "6";
    object      alpha.gas;
}
// * * * * * * * * * * * * * * * * * * * * * * * * * * * * * * * * * * * * * //

dimensions      [0 0 0 0 0 0 0];

internalField   nonuniform List<scalar> 
100
(
0.160523
0.148469
0.139181
0.130561
0.125171
0.120864
0.116564
0.11279
0.108721
0.105491
0.102223
0.0990443
0.0966137
0.0942489
0.0924296
0.0907427
0.0890338
0.0878302
0.0864526
0.0857752
0.0844696
0.0833185
0.0818239
0.0803297
0.0790241
0.0779931
0.0770491
0.0760498
0.0750127
0.0741243
0.0732567
0.072305
0.0714186
0.0705838
0.0698091
0.0691358
0.0684471
0.0676716
0.0669868
0.066256
0.0656295
0.0648745
0.0642013
0.0635276
0.0628621
0.062201
0.0615555
0.0610508
0.0603528
0.0596729
0.0590674
0.0585405
0.0579232
0.0573629
0.056778
0.0562698
0.0557707
0.0553685
0.0548678
0.054393
0.0538839
0.0533384
0.05292
0.0525281
0.0520585
0.051613
0.0510725
0.0506425
0.0501582
0.0496716
0.0491678
0.0486498
0.0481583
0.0476434
0.0470966
0.0465236
0.0459196
0.0452926
0.0447096
0.0441254
0.0435237
0.0429342
0.0423588
0.0417864
0.0411847
0.0405715
0.0399156
0.0392842
0.0386281
0.0379587
0.037234
0.036512
0.0357239
0.0349233
0.0340627
0.0331519
0.0321428
0.0310773
0.0299108
0.0286632
)
;

boundaryField
{
    inlet
    {
        type            fixedValue;
        value           uniform 0.2;
    }
    outlet
    {
        type            zeroGradient;
    }
    yzfaces
    {
        type            empty;
    }
}


// ************************************************************************* //
