/*--------------------------------*- C++ -*----------------------------------*\
| =========                 |                                                 |
| \\      /  F ield         | foam-extend: Open Source CFD                    |
|  \\    /   O peration     | Version:     5.0                                |
|   \\  /    A nd           | Web:         http://www.foam-extend.org         |
|    \\/     M anipulation  |                                                 |
\*---------------------------------------------------------------------------*/
FoamFile
{
    version     2.0;
    format      ascii;
    class       volScalarField;
    location    "6";
    object      Cl.water;
}
// * * * * * * * * * * * * * * * * * * * * * * * * * * * * * * * * * * * * * //

dimensions      [0 0 0 0 0 0 0];

internalField   nonuniform List<scalar> 
100
(
0.00808331
0.0112729
0.0131518
0.0143604
0.0156508
0.0167462
0.0173347
0.0180518
0.0185727
0.0191129
0.0196074
0.0201896
0.0208038
0.0211805
0.0216826
0.0222134
0.0224267
0.0227711
0.0230805
0.0234498
0.0235105
0.0239477
0.0240741
0.0243694
0.0245766
0.0248846
0.0251079
0.0252682
0.0254331
0.0256924
0.0258476
0.0259593
0.0261369
0.0262947
0.0264954
0.0267061
0.0268682
0.0270862
0.02724
0.0272705
0.0273988
0.0276002
0.0277229
0.0278083
0.0279248
0.0281375
0.0283587
0.0284303
0.0284633
0.0286109
0.0287481
0.0289402
0.0290682
0.0291835
0.0293422
0.0294944
0.0296106
0.0297583
0.0297662
0.0298283
0.0299265
0.029949
0.030119
0.0302323
0.0302956
0.0303972
0.0305192
0.0306211
0.0306854
0.0307701
0.0308513
0.0309563
0.0310598
0.0311777
0.0312514
0.0313373
0.0314469
0.0315845
0.0317324
0.0318423
0.0319897
0.0320861
0.0321683
0.0322843
0.0324416
0.0325755
0.0336431
0.0338942
0.0340231
0.0341566
0.0342998
0.0344592
0.0346247
0.0347907
0.0349814
0.0351555
0.0353643
0.0355831
0.0358148
0.0360504
)
;

boundaryField
{
    inlet
    {
        type            fixedValue;
        value           uniform 0;
    }
    outlet
    {
        type            zeroGradient;
    }
    yzfaces
    {
        type            empty;
    }
}


// ************************************************************************* //
