/*--------------------------------*- C++ -*----------------------------------*\
| =========                 |                                                 |
| \\      /  F ield         | foam-extend: Open Source CFD                    |
|  \\    /   O peration     | Version:     5.0                                |
|   \\  /    A nd           | Web:         http://www.foam-extend.org         |
|    \\/     M anipulation  |                                                 |
\*---------------------------------------------------------------------------*/
FoamFile
{
    version     2.0;
    format      ascii;
    class       volScalarField;
    location    "6";
    object      CO2.gas;
}
// * * * * * * * * * * * * * * * * * * * * * * * * * * * * * * * * * * * * * //

dimensions      [0 0 0 0 0 0 0];

internalField   nonuniform List<scalar> 
100
(
0.16021
0.14818
0.138909
0.130306
0.124927
0.120629
0.116337
0.11257
0.10851
0.105286
0.102024
0.0988514
0.0964255
0.0940653
0.0922496
0.090566
0.0888604
0.0876592
0.0862842
0.0856081
0.0843051
0.0831562
0.0816646
0.0801732
0.0788702
0.0778412
0.0768991
0.0759017
0.0748666
0.0739799
0.073114
0.0721641
0.0712796
0.0704464
0.0696731
0.0690011
0.0683138
0.0675398
0.0668564
0.0661269
0.0655017
0.0647482
0.0640763
0.0634039
0.0627397
0.0620799
0.0614356
0.0609319
0.0602353
0.0595567
0.0589523
0.0584265
0.0578104
0.0572512
0.0566674
0.0561602
0.0556621
0.0552606
0.0547609
0.054287
0.053779
0.0532345
0.0528169
0.0524258
0.0519571
0.0515125
0.050973
0.0505439
0.0500605
0.0495749
0.0490721
0.0485551
0.0480645
0.0475506
0.0470049
0.046433
0.0458301
0.0452044
0.0446225
0.0440395
0.043439
0.0428506
0.0422763
0.041705
0.0411045
0.0404925
0.0330811
0.0278002
0.0236482
0.0202181
0.0172729
0.0147102
0.0124255
0.0104142
0.0086301
0.00705177
0.00567221
0.004485
0.00347165
0.00262869
)
;

boundaryField
{
    inlet
    {
        type            fixedValue;
        value           uniform 0.2;
    }
    outlet
    {
        type            zeroGradient;
    }
    yzfaces
    {
        type            empty;
    }
}


// ************************************************************************* //
