/*--------------------------------*- C++ -*----------------------------------*\
| =========                 |                                                 |
| \\      /  F ield         | foam-extend: Open Source CFD                    |
|  \\    /   O peration     | Version:     5.0                                |
|   \\  /    A nd           | Web:         http://www.foam-extend.org         |
|    \\/     M anipulation  |                                                 |
\*---------------------------------------------------------------------------*/
FoamFile
{
    version     2.0;
    format      ascii;
    class       volScalarField;
    location    "6";
    object      CO2.water;
}
// * * * * * * * * * * * * * * * * * * * * * * * * * * * * * * * * * * * * * //

dimensions      [0 0 0 0 0 0 0];

internalField   nonuniform List<scalar> 
100
(
0.00103684
0.00135344
0.0015974
0.00182379
0.00196536
0.00207847
0.00219141
0.00229053
0.00239739
0.00248223
0.00256806
0.00265156
0.00271539
0.0027775
0.00282529
0.00286959
0.00291448
0.00294609
0.00298227
0.00300006
0.00303435
0.00306459
0.00310384
0.00314309
0.00317738
0.00320445
0.00322925
0.0032555
0.00328273
0.00330607
0.00332886
0.00335385
0.00337713
0.00339906
0.0034194
0.00343709
0.00345518
0.00347555
0.00349353
0.00351273
0.00352918
0.00354901
0.00356669
0.00358439
0.00360186
0.00361923
0.00363618
0.00364944
0.00366777
0.00368563
0.00370153
0.00371537
0.00373158
0.0037463
0.00376166
0.00377501
0.00378812
0.00379868
0.00381183
0.0038243
0.00383767
0.003852
0.00386299
0.00387328
0.00388562
0.00389732
0.00391151
0.00392281
0.00393553
0.00394831
0.00396154
0.00397514
0.00398805
0.00400158
0.00401594
0.00403099
0.00404685
0.00406332
0.00407863
0.00409397
0.00410978
0.00412526
0.00414037
0.00415541
0.00417121
0.00418732
0.000514438
6.65119e-05
9.19329e-06
1.38974e-06
2.34725e-07
4.4626e-08
9.51405e-09
2.12285e-09
4.78003e-10
1.09596e-10
2.55969e-11
6.09396e-12
1.4874e-12
4.33818e-13
)
;

boundaryField
{
    inlet
    {
        type            fixedValue;
        value           uniform 0;
    }
    outlet
    {
        type            zeroGradient;
    }
    yzfaces
    {
        type            empty;
    }
}


// ************************************************************************* //
