/*--------------------------------*- C++ -*----------------------------------*\
| =========                 |                                                 |
| \\      /  F ield         | foam-extend: Open Source CFD                    |
|  \\    /   O peration     | Version:     5.0                                |
|   \\  /    A nd           | Web:         http://www.foam-extend.org         |
|    \\/     M anipulation  |                                                 |
\*---------------------------------------------------------------------------*/
FoamFile
{
    version     2.0;
    format      ascii;
    class       volScalarField;
    location    "6";
    object      H2O.water;
}
// * * * * * * * * * * * * * * * * * * * * * * * * * * * * * * * * * * * * * //

dimensions      [0 0 0 0 0 0 0];

internalField   nonuniform List<scalar> 
100
(
0.0222757
0.0276354
0.0329254
0.0388868
0.041555
0.0435547
0.0465604
0.0488097
0.0517292
0.0537789
0.0559781
0.0579023
0.0590475
0.0605856
0.0613587
0.0619471
0.0631771
0.0636663
0.0643862
0.0643189
0.0654791
0.0657167
0.0669167
0.0677843
0.0686496
0.0690366
0.0695072
0.0701583
0.070839
0.071184
0.0717232
0.0724213
0.0729338
0.0734275
0.0737709
0.0740038
0.074348
0.0746689
0.0750305
0.0756846
0.0760243
0.0763587
0.0767645
0.0772502
0.0776765
0.0779069
0.0780902
0.0784201
0.0790276
0.0793836
0.0797047
0.0798481
0.0802012
0.0805112
0.080776
0.0809545
0.0811997
0.0812938
0.0817593
0.0820991
0.0823961
0.0828805
0.0829664
0.0831204
0.0834489
0.0836896
0.0839698
0.0841833
0.0845287
0.084843
0.0851747
0.0854762
0.0857549
0.0860186
0.0864141
0.0868001
0.0871629
0.0875089
0.0877856
0.0881385
0.088429
0.0887978
0.0891868
0.0895099
0.0897884
0.0901308
0.0925083
0.0931629
0.0935598
0.0939425
0.0943674
0.0948191
0.095294
0.0957368
0.0962503
0.0966877
0.0972554
0.0978498
0.0985022
0.0991548
)
;

boundaryField
{
    inlet
    {
        type            fixedValue;
        value           uniform 0;
    }
    outlet
    {
        type            zeroGradient;
    }
    yzfaces
    {
        type            empty;
    }
}


// ************************************************************************* //
