/*--------------------------------*- C++ -*----------------------------------*\
| =========                 |                                                 |
| \\      /  F ield         | foam-extend: Open Source CFD                    |
|  \\    /   O peration     | Version:     5.0                                |
|   \\  /    A nd           | Web:         http://www.foam-extend.org         |
|    \\/     M anipulation  |                                                 |
\*---------------------------------------------------------------------------*/
FoamFile
{
    version     2.0;
    format      ascii;
    class       volScalarField;
    location    "6";
    object      H2O.gas;
}
// * * * * * * * * * * * * * * * * * * * * * * * * * * * * * * * * * * * * * //

dimensions      [0 0 0 0 0 0 0];

internalField   nonuniform List<scalar> 
100
(
0.000312614
0.000289139
0.00027105
0.000254263
0.000243766
0.000235379
0.000227005
0.000219655
0.000211732
0.000205441
0.000199077
0.000192886
0.000188152
0.000183547
0.000180004
0.000176719
0.000173391
0.000171047
0.000168364
0.000167045
0.000164502
0.00016226
0.00015935
0.00015644
0.000153897
0.000151889
0.000150051
0.000148105
0.000146085
0.000144355
0.000142665
0.000140812
0.000139086
0.00013746
0.000135951
0.00013464
0.000133299
0.000131788
0.000130455
0.000129032
0.000127811
0.000126341
0.00012503
0.000123718
0.000122422
0.000121135
0.000119878
0.000118895
0.000117535
0.000116211
0.000115032
0.000114006
0.000112804
0.000111713
0.000110573
0.000109584
0.000108612
0.000107828
0.000106853
0.000105929
0.000104937
0.000103875
0.00010306
0.000102297
0.000101382
0.000100515
9.94622e-05
9.86248e-05
9.76816e-05
9.6734e-05
9.57529e-05
9.47441e-05
9.37868e-05
9.27842e-05
9.17193e-05
9.06033e-05
8.9427e-05
8.82061e-05
8.70707e-05
8.5933e-05
8.47612e-05
8.3613e-05
8.24926e-05
8.13777e-05
8.0206e-05
7.90118e-05
0.00687931
0.0115498
0.0150331
0.017786
0.0200017
0.0218507
0.02335
0.0245527
0.0254831
0.0261256
0.0264923
0.0266079
0.0264463
0.0260232
)
;

boundaryField
{
    inlet
    {
        type            fixedValue;
        value           uniform 0;
    }
    outlet
    {
        type            zeroGradient;
    }
    yzfaces
    {
        type            empty;
    }
}


// ************************************************************************* //
