/*--------------------------------*- C++ -*----------------------------------*\
| =========                 |                                                 |
| \\      /  F ield         | foam-extend: Open Source CFD                    |
|  \\    /   O peration     | Version:     5.0                                |
|   \\  /    A nd           | Web:         http://www.foam-extend.org         |
|    \\/     M anipulation  |                                                 |
\*---------------------------------------------------------------------------*/
FoamFile
{
    version     2.0;
    format      ascii;
    class       volScalarField;
    location    "6";
    object      Na.water;
}
// * * * * * * * * * * * * * * * * * * * * * * * * * * * * * * * * * * * * * //

dimensions      [0 0 0 0 0 0 0];

internalField   nonuniform List<scalar> 
100
(
0.00808105
0.0112692
0.013145
0.0143682
0.0156582
0.0167565
0.0173495
0.0180581
0.0185794
0.0191346
0.0196232
0.0202123
0.0208196
0.0212075
0.0217038
0.0222272
0.0224478
0.0227864
0.0230984
0.0234561
0.0235065
0.0239526
0.0240815
0.0243735
0.0245724
0.0248813
0.0251065
0.0252682
0.0254325
0.0256932
0.0258437
0.0259606
0.0261335
0.0262949
0.0265052
0.0267173
0.0268816
0.0270978
0.0272492
0.0272761
0.0274182
0.0276175
0.0277446
0.0278296
0.0279347
0.0281354
0.0283594
0.0284494
0.0284886
0.0286469
0.0287783
0.0289558
0.0290758
0.0291961
0.0293422
0.0295063
0.0296309
0.0297808
0.0297949
0.0298553
0.0299557
0.0299801
0.0301316
0.0302459
0.0303115
0.0304029
0.030527
0.0306303
0.0306922
0.0307671
0.0308447
0.0309425
0.031039
0.0311587
0.0312219
0.031308
0.0314237
0.0315507
0.0316938
0.0317998
0.0319478
0.0320567
0.0321456
0.0322641
0.0324141
0.0325349
0.0335983
0.0338617
0.0340024
0.034135
0.0342758
0.0344287
0.034595
0.0347553
0.0349518
0.0351329
0.0353509
0.0355749
0.0358126
0.0360642
)
;

boundaryField
{
    inlet
    {
        type            fixedValue;
        value           uniform 0;
    }
    outlet
    {
        type            zeroGradient;
    }
    yzfaces
    {
        type            empty;
    }
}


// ************************************************************************* //
