/*--------------------------------*- C++ -*----------------------------------*\
| =========                 |                                                 |
| \\      /  F ield         | foam-extend: Open Source CFD                    |
|  \\    /   O peration     | Version:     5.0                                |
|   \\  /    A nd           | Web:         http://www.foam-extend.org         |
|    \\/     M anipulation  |                                                 |
\*---------------------------------------------------------------------------*/
FoamFile
{
    version     2.0;
    format      ascii;
    class       surfaceScalarField;
    location    "6";
    object      phi;
}
// * * * * * * * * * * * * * * * * * * * * * * * * * * * * * * * * * * * * * //

dimensions      [0 3 -1 0 0 0 0];

internalField   nonuniform List<scalar> 
99
(
1.23094e-06
1.23353e-06
1.23171e-06
1.22237e-06
1.2249e-06
1.22899e-06
1.22847e-06
1.22446e-06
1.22854e-06
1.22245e-06
1.23073e-06
1.23338e-06
1.23018e-06
1.22933e-06
1.2306e-06
1.22971e-06
1.22997e-06
1.23165e-06
1.23142e-06
1.23076e-06
1.22337e-06
1.22117e-06
1.2162e-06
1.21965e-06
1.2234e-06
1.22011e-06
1.21476e-06
1.21514e-06
1.21302e-06
1.21512e-06
1.21961e-06
1.22023e-06
1.2204e-06
1.22439e-06
1.2234e-06
1.21989e-06
1.21915e-06
1.21877e-06
1.21975e-06
1.2229e-06
1.22171e-06
1.22135e-06
1.22391e-06
1.22321e-06
1.22114e-06
1.22131e-06
1.22563e-06
1.2237e-06
1.22328e-06
1.22723e-06
1.22843e-06
1.22632e-06
1.22668e-06
1.22945e-06
1.23054e-06
1.23094e-06
1.2335e-06
1.23223e-06
1.23433e-06
1.23325e-06
1.23735e-06
1.23669e-06
1.2354e-06
1.23483e-06
1.23858e-06
1.23584e-06
1.23805e-06
1.23515e-06
1.23363e-06
1.23297e-06
1.23207e-06
1.2305e-06
1.23088e-06
1.23021e-06
1.23029e-06
1.22843e-06
1.22785e-06
1.22829e-06
1.22853e-06
1.2273e-06
1.22721e-06
1.2267e-06
1.22763e-06
1.22635e-06
1.22528e-06
1.22325e-06
1.22332e-06
1.22456e-06
1.22358e-06
1.22271e-06
1.2237e-06
1.22253e-06
1.22468e-06
1.22361e-06
1.2223e-06
1.22067e-06
1.22041e-06
1.22125e-06
1.22033e-06
)
;

boundaryField
{
    inlet
    {
        type            calculated;
        value           uniform -1.225e-06;
    }
    outlet
    {
        type            calculated;
        value           uniform 1.21714e-06;
    }
    yzfaces
    {
        type            empty;
    }
}


// ************************************************************************* //
