/*--------------------------------*- C++ -*----------------------------------*\
| =========                 |                                                 |
| \\      /  F ield         | foam-extend: Open Source CFD                    |
|  \\    /   O peration     | Version:     5.0                                |
|   \\  /    A nd           | Web:         http://www.foam-extend.org         |
|    \\/     M anipulation  |                                                 |
\*---------------------------------------------------------------------------*/
FoamFile
{
    version     2.0;
    format      ascii;
    class       surfaceScalarField;
    location    "6";
    object      phi.water;
}
// * * * * * * * * * * * * * * * * * * * * * * * * * * * * * * * * * * * * * //

dimensions      [0 3 -1 0 0 0 0];

internalField   nonuniform List<scalar> 
99
(
9.28775e-08
1.49081e-07
2.02787e-07
2.67987e-07
3.16986e-07
3.58591e-07
4.07756e-07
4.51024e-07
5.09579e-07
5.5475e-07
6.1273e-07
6.72971e-07
7.19469e-07
7.69332e-07
8.1028e-07
8.51333e-07
8.94425e-07
9.27208e-07
9.65836e-07
9.80592e-07
1.01067e-06
1.04261e-06
1.08336e-06
1.13623e-06
1.18366e-06
1.21546e-06
1.24214e-06
1.27959e-06
1.31833e-06
1.35579e-06
1.39498e-06
1.43542e-06
1.47229e-06
1.51257e-06
1.5464e-06
1.57143e-06
1.60183e-06
1.63862e-06
1.67517e-06
1.7157e-06
1.74325e-06
1.78302e-06
1.82133e-06
1.85671e-06
1.89041e-06
1.93049e-06
1.97276e-06
1.99578e-06
2.03783e-06
2.08706e-06
2.12553e-06
2.15465e-06
2.19576e-06
2.23603e-06
2.2775e-06
2.31248e-06
2.35206e-06
2.37657e-06
2.41535e-06
2.44606e-06
2.49173e-06
2.52989e-06
2.55855e-06
2.58702e-06
2.62947e-06
2.65556e-06
2.70305e-06
2.72929e-06
2.76442e-06
2.80148e-06
2.84097e-06
2.88077e-06
2.92019e-06
2.96246e-06
3.00826e-06
3.05143e-06
3.10298e-06
3.15928e-06
3.21159e-06
3.25925e-06
3.31476e-06
3.36806e-06
3.42246e-06
3.47175e-06
3.52563e-06
3.57602e-06
3.6368e-06
3.70094e-06
3.76218e-06
3.82629e-06
3.89992e-06
3.96692e-06
4.05292e-06
4.13017e-06
4.21301e-06
4.30053e-06
4.40271e-06
4.514e-06
4.62981e-06
)
;

boundaryField
{
    inlet
    {
        type            fixedValue;
        value           uniform 0;
    }
    outlet
    {
        type            calculated;
        value           uniform 4.76755e-06;
    }
    yzfaces
    {
        type            empty;
    }
}


// ************************************************************************* //
