/*--------------------------------*- C++ -*----------------------------------*\
| =========                 |                                                 |
| \\      /  F ield         | foam-extend: Open Source CFD                    |
|  \\    /   O peration     | Version:     5.0                                |
|   \\  /    A nd           | Web:         http://www.foam-extend.org         |
|    \\/     M anipulation  |                                                 |
\*---------------------------------------------------------------------------*/
FoamFile
{
    version     2.0;
    format      ascii;
    class       volVectorField;
    location    "6";
    object      U.gas;
}
// * * * * * * * * * * * * * * * * * * * * * * * * * * * * * * * * * * * * * //

dimensions      [0 1 -1 0 0 0 0];

internalField   nonuniform List<vector> 
100
(
(0.006234 0 0)
(0.00674057 0 0)
(0.00716629 0 0)
(0.00757024 0 0)
(0.00783753 0 0)
(0.00810596 0 0)
(0.0083811 0 0)
(0.00860506 0 0)
(0.00888026 0 0)
(0.00909386 0 0)
(0.00933949 0 0)
(0.00962065 0 0)
(0.00979955 0 0)
(0.00997018 0 0)
(0.0101125 0 0)
(0.0102499 0 0)
(0.0103892 0 0)
(0.0104901 0 0)
(0.0106157 0 0)
(0.0106566 0 0)
(0.0107462 0 0)
(0.0107998 0 0)
(0.0109045 0 0)
(0.0110277 0 0)
(0.0111701 0 0)
(0.0112557 0 0)
(0.0112966 0 0)
(0.0113631 0 0)
(0.011446 0 0)
(0.0115176 0 0)
(0.0116236 0 0)
(0.0117335 0 0)
(0.0118123 0 0)
(0.0119046 0 0)
(0.0119841 0 0)
(0.0120151 0 0)
(0.012054 0 0)
(0.0121185 0 0)
(0.012173 0 0)
(0.0122548 0 0)
(0.0123118 0 0)
(0.0123732 0 0)
(0.0124342 0 0)
(0.012497 0 0)
(0.0125338 0 0)
(0.0125729 0 0)
(0.0126439 0 0)
(0.0126874 0 0)
(0.0127398 0 0)
(0.0128041 0 0)
(0.0128671 0 0)
(0.012892 0 0)
(0.0129303 0 0)
(0.0129792 0 0)
(0.0130387 0 0)
(0.0130707 0 0)
(0.0131149 0 0)
(0.0131357 0 0)
(0.0131766 0 0)
(0.0132051 0 0)
(0.0132496 0 0)
(0.0132984 0 0)
(0.0132948 0 0)
(0.0132983 0 0)
(0.0133429 0 0)
(0.0133646 0 0)
(0.0133931 0 0)
(0.0133916 0 0)
(0.0133893 0 0)
(0.0133913 0 0)
(0.0133967 0 0)
(0.0133944 0 0)
(0.0133942 0 0)
(0.0134039 0 0)
(0.0134097 0 0)
(0.0134087 0 0)
(0.0134024 0 0)
(0.0134041 0 0)
(0.0133969 0 0)
(0.0133859 0 0)
(0.0133716 0 0)
(0.0133503 0 0)
(0.0133335 0 0)
(0.013313 0 0)
(0.0132807 0 0)
(0.0132359 0 0)
(0.013198 0 0)
(0.013162 0 0)
(0.0131243 0 0)
(0.013065 0 0)
(0.0130158 0 0)
(0.0129481 0 0)
(0.0128865 0 0)
(0.0128031 0 0)
(0.0126968 0 0)
(0.0125697 0 0)
(0.0124323 0 0)
(0.0122724 0 0)
(0.0120882 0 0)
(0.0118281 0 0)
)
;

boundaryField
{
    inlet
    {
        type            fixedValue;
        value           uniform (0.005 0 0);
    }
    outlet
    {
        type            zeroGradient;
    }
    yzfaces
    {
        type            empty;
    }
}


// ************************************************************************* //
