/*--------------------------------*- C++ -*----------------------------------*\
| =========                 |                                                 |
| \\      /  F ield         | foam-extend: Open Source CFD                    |
|  \\    /   O peration     | Version:     5.0                                |
|   \\  /    A nd           | Web:         http://www.foam-extend.org         |
|    \\/     M anipulation  |                                                 |
\*---------------------------------------------------------------------------*/
FoamFile
{
    version     2.0;
    format      ascii;
    class       volVectorField;
    location    "6";
    object      U.water;
}
// * * * * * * * * * * * * * * * * * * * * * * * * * * * * * * * * * * * * * //

dimensions      [0 1 -1 0 0 0 0];

internalField   nonuniform List<vector> 
100
(
(4.36506e-05 0 0)
(9.97243e-05 0 0)
(0.000144861 0 0)
(0.00019138 0 0)
(0.000238635 0 0)
(0.000276321 0 0)
(0.000312917 0 0)
(0.000351236 0 0)
(0.000391656 0 0)
(0.000434643 0 0)
(0.000476443 0 0)
(0.000523884 0 0)
(0.000568391 0 0)
(0.000607108 0 0)
(0.000644731 0 0)
(0.000678283 0 0)
(0.000711563 0 0)
(0.000743524 0 0)
(0.000771326 0 0)
(0.000795801 0 0)
(0.00081323 0 0)
(0.000839457 0 0)
(0.000868218 0 0)
(0.000905569 0 0)
(0.000946116 0 0)
(0.000979356 0 0)
(0.00100391 0 0)
(0.00102975 0 0)
(0.00106006 0 0)
(0.0010911 0 0)
(0.00112245 0 0)
(0.00115481 0 0)
(0.00118647 0 0)
(0.00121779 0 0)
(0.00124815 0 0)
(0.00127296 0 0)
(0.0012958 0 0)
(0.00132241 0 0)
(0.00135237 0 0)
(0.0013836 0 0)
(0.00141237 0 0)
(0.00143915 0 0)
(0.0014711 0 0)
(0.00150153 0 0)
(0.0015298 0 0)
(0.00155927 0 0)
(0.00159232 0 0)
(0.00162042 0 0)
(0.0016462 0 0)
(0.00168286 0 0)
(0.00171917 0 0)
(0.00174775 0 0)
(0.00177554 0 0)
(0.00180863 0 0)
(0.00184169 0 0)
(0.00187296 0 0)
(0.00190301 0 0)
(0.00192988 0 0)
(0.00195539 0 0)
(0.00198416 0 0)
(0.00201528 0 0)
(0.00204891 0 0)
(0.00207679 0 0)
(0.00210021 0 0)
(0.00212884 0 0)
(0.00215774 0 0)
(0.00218718 0 0)
(0.00221806 0 0)
(0.0022429 0 0)
(0.0022724 0 0)
(0.00230358 0 0)
(0.00233559 0 0)
(0.00236828 0 0)
(0.00240172 0 0)
(0.00243771 0 0)
(0.00247422 0 0)
(0.0025125 0 0)
(0.00255579 0 0)
(0.00260037 0 0)
(0.00264137 0 0)
(0.00268321 0 0)
(0.00272758 0 0)
(0.00277196 0 0)
(0.00281466 0 0)
(0.00285679 0 0)
(0.00290036 0 0)
(0.00294715 0 0)
(0.00299955 0 0)
(0.00305057 0 0)
(0.00310142 0 0)
(0.00315733 0 0)
(0.00321553 0 0)
(0.00327804 0 0)
(0.00334495 0 0)
(0.00340996 0 0)
(0.00347873 0 0)
(0.0035551 0 0)
(0.00364191 0 0)
(0.00373331 0 0)
(0.00382786 0 0)
)
;

boundaryField
{
    inlet
    {
        type            fixedValue;
        value           uniform (0 0 0);
    }
    outlet
    {
        type            zeroGradient;
    }
    yzfaces
    {
        type            empty;
    }
}


// ************************************************************************* //
