/*--------------------------------*- C++ -*----------------------------------*\
| =========                 |                                                 |
| \\      /  F ield         | foam-extend: Open Source CFD                    |
|  \\    /   O peration     | Version:     5.0                                |
|   \\  /    A nd           | Web:         http://www.foam-extend.org         |
|    \\/     M anipulation  |                                                 |
\*---------------------------------------------------------------------------*/
FoamFile
{
    version     2.0;
    format      ascii;
    class       volScalarField;
    location    "6";
    object      alpha.gas;
}
// * * * * * * * * * * * * * * * * * * * * * * * * * * * * * * * * * * * * * //

dimensions      [0 0 0 0 0 0 0];

internalField   nonuniform List<scalar> 
100
(
0.15927
0.146565
0.13839
0.125755
0.122958
0.119473
0.113157
0.108799
0.103952
0.0996553
0.0962162
0.0933688
0.0909871
0.0882899
0.0867215
0.0855371
0.0846361
0.0836635
0.0820371
0.0806846
0.0785362
0.0772079
0.0759149
0.0751383
0.0737212
0.0726325
0.0718418
0.0709389
0.0699741
0.0692393
0.0680211
0.0672696
0.0661104
0.0653841
0.0644435
0.0633939
0.0624236
0.0622385
0.0611521
0.060174
0.059751
0.0588544
0.0581245
0.0568601
0.0562008
0.0553061
0.0544883
0.0534613
0.0523331
0.0509264
0.0491684
0.0463126
0.0419116
0.0338549
0.0144323
0.0291327
0.0281934
0.027538
0.0270043
0.0265629
0.0261902
0.0259016
0.0256745
0.0255239
0.0254229
0.0253648
0.025346
0.0253419
0.0253591
0.0253852
0.0254063
0.0254306
0.025437
0.0254408
0.0254363
0.0254136
0.0253893
0.0253601
0.025313
0.0252491
0.0251767
0.0250574
0.0249099
0.0247322
0.0245092
0.0242215
0.0238467
0.0233945
0.0228372
0.0221696
0.0213723
0.0204482
0.0193818
0.0181916
0.0169174
0.0156098
0.0143534
0.013222
0.0122809
0.0115526
)
;

boundaryField
{
    inlet
    {
        type            fixedValue;
        value           uniform 0.2;
    }
    outlet
    {
        type            zeroGradient;
    }
    yzfaces
    {
        type            empty;
    }
}


// ************************************************************************* //
