/*--------------------------------*- C++ -*----------------------------------*\
| =========                 |                                                 |
| \\      /  F ield         | foam-extend: Open Source CFD                    |
|  \\    /   O peration     | Version:     5.0                                |
|   \\  /    A nd           | Web:         http://www.foam-extend.org         |
|    \\/     M anipulation  |                                                 |
\*---------------------------------------------------------------------------*/
FoamFile
{
    version     2.0;
    format      ascii;
    class       volScalarField;
    location    "6";
    object      Cl.water;
}
// * * * * * * * * * * * * * * * * * * * * * * * * * * * * * * * * * * * * * //

dimensions      [0 0 0 0 0 0 0];

internalField   nonuniform List<scalar> 
100
(
0.00826448
0.0112391
0.0131695
0.0154486
0.0163745
0.0169179
0.0179303
0.0186822
0.0195554
0.0202607
0.0209695
0.0217393
0.0223375
0.0228034
0.0232247
0.0234113
0.0236428
0.0238257
0.0241127
0.0244592
0.0247668
0.0250098
0.0253001
0.0255788
0.0258267
0.0260348
0.0262441
0.0264186
0.0267137
0.0269056
0.0270338
0.0271798
0.0273906
0.0275322
0.0276307
0.0278796
0.028058
0.0282164
0.0282914
0.028511
0.0287266
0.02891
0.0290698
0.0293137
0.0294841
0.0296368
0.0298396
0.0300388
0.0302805
0.030586
0.0309658
0.0314899
0.0323662
0.0340298
0.0380289
0.0357861
0.0360818
0.0362591
0.0363849
0.0364868
0.0365632
0.0366482
0.0367083
0.0367311
0.036746
0.0367763
0.0367856
0.0367702
0.0367639
0.0367622
0.0367534
0.0367636
0.036743
0.0367581
0.0367456
0.0367348
0.0367539
0.0367746
0.036783
0.0367837
0.0367798
0.0368227
0.036871
0.0369461
0.0370246
0.0370778
0.0371167
0.0372319
0.037334
0.0374973
0.0376898
0.0378733
0.0380867
0.0383477
0.0386122
0.0388764
0.0391383
0.0393526
0.0395686
0.0396992
)
;

boundaryField
{
    inlet
    {
        type            fixedValue;
        value           uniform 0;
    }
    outlet
    {
        type            zeroGradient;
    }
    yzfaces
    {
        type            empty;
    }
}


// ************************************************************************* //
