/*--------------------------------*- C++ -*----------------------------------*\
| =========                 |                                                 |
| \\      /  F ield         | foam-extend: Open Source CFD                    |
|  \\    /   O peration     | Version:     5.0                                |
|   \\  /    A nd           | Web:         http://www.foam-extend.org         |
|    \\/     M anipulation  |                                                 |
\*---------------------------------------------------------------------------*/
FoamFile
{
    version     2.0;
    format      ascii;
    class       volScalarField;
    location    "6";
    object      CO2.gas;
}
// * * * * * * * * * * * * * * * * * * * * * * * * * * * * * * * * * * * * * //

dimensions      [0 0 0 0 0 0 0];

internalField   nonuniform List<scalar> 
100
(
0.158959
0.14628
0.138121
0.12551
0.122719
0.11924
0.112937
0.108587
0.10375
0.0994613
0.0960289
0.093187
0.0908099
0.088118
0.0865527
0.0853706
0.0844713
0.0835006
0.0818773
0.0805275
0.0783833
0.0770575
0.075767
0.074992
0.0735777
0.072491
0.0717019
0.0708007
0.0698378
0.0691045
0.0678886
0.0671386
0.0659817
0.0652567
0.064318
0.0632705
0.062302
0.0621173
0.061033
0.0600568
0.0596346
0.0587398
0.0580113
0.0567493
0.0560914
0.0551984
0.0543822
0.0533572
0.0522312
0.0508272
0.0490727
0.0462224
0.04183
0.033789
0.0144042
0.0284356
0.0269748
0.025707
0.0244742
0.0232628
0.0220476
0.020872
0.0197005
0.0185529
0.0174271
0.0163208
0.0152177
0.0141163
0.0130382
0.0119771
0.0109297
0.00991118
0.00891453
0.00796941
0.00706847
0.00621725
0.00542846
0.00470125
0.00403427
0.00342692
0.00288376
0.00239969
0.0019734
0.0016027
0.00128239
0.00100838
0.000776845
0.00058696
0.000432076
0.000309245
0.000213709
0.000141823
8.96909e-05
5.36003e-05
2.99365e-05
1.54612e-05
7.32277e-06
3.15985e-06
1.2425e-06
4.46753e-07
)
;

boundaryField
{
    inlet
    {
        type            fixedValue;
        value           uniform 0.2;
    }
    outlet
    {
        type            zeroGradient;
    }
    yzfaces
    {
        type            empty;
    }
}


// ************************************************************************* //
