/*--------------------------------*- C++ -*----------------------------------*\
| =========                 |                                                 |
| \\      /  F ield         | foam-extend: Open Source CFD                    |
|  \\    /   O peration     | Version:     5.0                                |
|   \\  /    A nd           | Web:         http://www.foam-extend.org         |
|    \\/     M anipulation  |                                                 |
\*---------------------------------------------------------------------------*/
FoamFile
{
    version     2.0;
    format      ascii;
    class       volScalarField;
    location    "6";
    object      CO2.water;
}
// * * * * * * * * * * * * * * * * * * * * * * * * * * * * * * * * * * * * * //

dimensions      [0 0 0 0 0 0 0];

internalField   nonuniform List<scalar> 
100
(
0.00106976
0.00140344
0.00161815
0.00195001
0.00202346
0.00211501
0.00228089
0.00239536
0.00252265
0.00263551
0.00272583
0.00280062
0.00286317
0.00293401
0.00297521
0.00300631
0.00302998
0.00305552
0.00309824
0.00313376
0.00319019
0.00322508
0.00325904
0.00327943
0.00331665
0.00334525
0.00336602
0.00338973
0.00341507
0.00343437
0.00346636
0.0034861
0.00351655
0.00353563
0.00356033
0.0035879
0.00361338
0.00361824
0.00364678
0.00367247
0.00368358
0.00370713
0.0037263
0.0037595
0.00377682
0.00380032
0.0038218
0.00384877
0.0038784
0.00391535
0.00396152
0.00403653
0.00415212
0.00436373
0.00487385
0.000829429
0.000328865
0.000129168
5.04491e-05
1.96019e-05
7.55487e-06
2.88002e-06
1.08044e-06
3.9822e-07
1.43739e-07
5.0686e-08
1.7413e-08
5.80656e-09
1.87127e-09
5.77993e-10
1.70323e-10
4.75507e-11
1.2242e-11
2.74316e-12
5.07305e-13
5.41667e-14
0
0
0
0
0
0
0
0
0
6.301e-18
1.72909e-17
1.81889e-17
1.46037e-17
1.0336e-17
6.8009e-18
4.27407e-18
2.60617e-18
1.55557e-18
9.11743e-19
5.2572e-19
2.98577e-19
1.66793e-19
9.17955e-20
4.96945e-20
)
;

boundaryField
{
    inlet
    {
        type            fixedValue;
        value           uniform 0;
    }
    outlet
    {
        type            zeroGradient;
    }
    yzfaces
    {
        type            empty;
    }
}


// ************************************************************************* //
