/*--------------------------------*- C++ -*----------------------------------*\
| =========                 |                                                 |
| \\      /  F ield         | foam-extend: Open Source CFD                    |
|  \\    /   O peration     | Version:     5.0                                |
|   \\  /    A nd           | Web:         http://www.foam-extend.org         |
|    \\/     M anipulation  |                                                 |
\*---------------------------------------------------------------------------*/
FoamFile
{
    version     2.0;
    format      ascii;
    class       volScalarField;
    location    "6";
    object      H2O.gas;
}
// * * * * * * * * * * * * * * * * * * * * * * * * * * * * * * * * * * * * * //

dimensions      [0 0 0 0 0 0 0];

internalField   nonuniform List<scalar> 
100
(
0.000310173
0.000285432
0.000269511
0.000244904
0.000239458
0.00023267
0.00022037
0.000211883
0.000202444
0.000194076
0.000187378
0.000181833
0.000177195
0.000171942
0.000168888
0.000166581
0.000164826
0.000162932
0.000159765
0.000157131
0.000152947
0.00015036
0.000147842
0.00014633
0.00014357
0.00014145
0.00013991
0.000138151
0.000136273
0.000134842
0.000132469
0.000131006
0.000128748
0.000127334
0.000125502
0.000123458
0.000121568
0.000121208
0.000119092
0.000117187
0.000116363
0.000114617
0.000113196
0.000110733
0.000109449
0.000107707
0.000106114
0.000104114
0.000101917
9.91776e-05
9.57541e-05
9.01924e-05
8.16217e-05
6.59314e-05
2.81065e-05
0.000690384
0.00119708
0.0018056
0.00250334
0.00327897
0.00411992
0.00502473
0.00597755
0.00697088
0.00799994
0.00906435
0.010152
0.0112382
0.0123337
0.013425
0.0144883
0.0155385
0.0165253
0.0174858
0.0183796
0.0192016
0.0199672
0.0206729
0.0212869
0.0218173
0.0222733
0.0226411
0.0229405
0.0231531
0.0232706
0.0232519
0.0230784
0.0228286
0.0224174
0.0218878
0.0211966
0.0203351
0.0193123
0.0181633
0.0169109
0.0156089
0.0143583
0.0132213
0.0122884
0.0115499
)
;

boundaryField
{
    inlet
    {
        type            fixedValue;
        value           uniform 0;
    }
    outlet
    {
        type            zeroGradient;
    }
    yzfaces
    {
        type            empty;
    }
}


// ************************************************************************* //
