/*--------------------------------*- C++ -*----------------------------------*\
| =========                 |                                                 |
| \\      /  F ield         | foam-extend: Open Source CFD                    |
|  \\    /   O peration     | Version:     5.0                                |
|   \\  /    A nd           | Web:         http://www.foam-extend.org         |
|    \\/     M anipulation  |                                                 |
\*---------------------------------------------------------------------------*/
FoamFile
{
    version     2.0;
    format      ascii;
    class       volScalarField;
    location    "6";
    object      H2O.water;
}
// * * * * * * * * * * * * * * * * * * * * * * * * * * * * * * * * * * * * * //

dimensions      [0 0 0 0 0 0 0];

internalField   nonuniform List<scalar> 
100
(
0.0231322
0.0295489
0.0336401
0.0413796
0.0422461
0.0445638
0.0487051
0.0514319
0.0543979
0.057154
0.0590958
0.0603151
0.0614386
0.0631483
0.0638409
0.0646282
0.0650406
0.0656207
0.066614
0.0672369
0.068726
0.0695435
0.0702249
0.070413
0.0712926
0.0719276
0.072288
0.0728277
0.0731846
0.0735154
0.0744444
0.0748795
0.0755841
0.0760108
0.0767368
0.0772664
0.0778364
0.0777052
0.0785896
0.0791102
0.0790894
0.0796004
0.0800062
0.0807479
0.0810453
0.0816015
0.0819996
0.0826071
0.0832133
0.0839813
0.084934
0.0866643
0.0891963
0.0937276
0.104651
0.0984419
0.0992058
0.0996748
0.100012
0.100314
0.10053
0.10077
0.100937
0.101016
0.101099
0.101213
0.101243
0.1012
0.1012
0.101192
0.101151
0.101154
0.101078
0.101133
0.101131
0.101117
0.101131
0.101172
0.101169
0.101141
0.101122
0.101188
0.101372
0.101552
0.101771
0.101928
0.102012
0.102332
0.102619
0.103086
0.103596
0.104091
0.104674
0.105415
0.106155
0.106857
0.107572
0.10816
0.108764
0.109089
)
;

boundaryField
{
    inlet
    {
        type            fixedValue;
        value           uniform 0;
    }
    outlet
    {
        type            zeroGradient;
    }
    yzfaces
    {
        type            empty;
    }
}


// ************************************************************************* //
