/*--------------------------------*- C++ -*----------------------------------*\
| =========                 |                                                 |
| \\      /  F ield         | foam-extend: Open Source CFD                    |
|  \\    /   O peration     | Version:     5.0                                |
|   \\  /    A nd           | Web:         http://www.foam-extend.org         |
|    \\/     M anipulation  |                                                 |
\*---------------------------------------------------------------------------*/
FoamFile
{
    version     2.0;
    format      ascii;
    class       volScalarField;
    location    "6";
    object      Na.water;
}
// * * * * * * * * * * * * * * * * * * * * * * * * * * * * * * * * * * * * * //

dimensions      [0 0 0 0 0 0 0];

internalField   nonuniform List<scalar> 
100
(
0.00826387
0.0112432
0.0131819
0.0154666
0.0163975
0.0169305
0.0179267
0.0186917
0.019572
0.0202945
0.0209926
0.0217762
0.0223737
0.0228243
0.0232377
0.023417
0.0236505
0.0238345
0.024138
0.0244855
0.0247808
0.0250138
0.0253011
0.0255904
0.0258428
0.0260599
0.0262601
0.0264251
0.0267125
0.0269053
0.0270343
0.027185
0.0273984
0.0275373
0.0276287
0.0278721
0.0280687
0.0282217
0.0283202
0.0285324
0.0287494
0.028928
0.0290731
0.0293189
0.0294929
0.0296553
0.0298508
0.030044
0.0302947
0.030591
0.0309702
0.0314967
0.0323738
0.034024
0.038014
0.0357706
0.0360594
0.0362402
0.0363775
0.0364782
0.0365595
0.0366449
0.036703
0.0367281
0.0367604
0.0367855
0.0367882
0.0367746
0.0367655
0.0367765
0.0367692
0.0367825
0.0367619
0.0367671
0.0367685
0.0367708
0.0367699
0.03679
0.0367914
0.0367915
0.0367852
0.0368154
0.0368746
0.036937
0.0370091
0.0370541
0.0370876
0.0371997
0.0373053
0.0374673
0.0376603
0.0378394
0.0380457
0.0382998
0.038569
0.0388284
0.0390947
0.0393004
0.0395206
0.0396223
)
;

boundaryField
{
    inlet
    {
        type            fixedValue;
        value           uniform 0;
    }
    outlet
    {
        type            zeroGradient;
    }
    yzfaces
    {
        type            empty;
    }
}


// ************************************************************************* //
