/*--------------------------------*- C++ -*----------------------------------*\
| =========                 |                                                 |
| \\      /  F ield         | foam-extend: Open Source CFD                    |
|  \\    /   O peration     | Version:     5.0                                |
|   \\  /    A nd           | Web:         http://www.foam-extend.org         |
|    \\/     M anipulation  |                                                 |
\*---------------------------------------------------------------------------*/
FoamFile
{
    version     2.0;
    format      ascii;
    class       surfaceScalarField;
    location    "6";
    object      phi;
}
// * * * * * * * * * * * * * * * * * * * * * * * * * * * * * * * * * * * * * //

dimensions      [0 3 -1 0 0 0 0];

internalField   nonuniform List<scalar> 
99
(
1.22629e-06
1.22078e-06
1.22198e-06
1.20526e-06
1.22048e-06
1.22231e-06
1.21978e-06
1.21287e-06
1.21362e-06
1.21397e-06
1.21208e-06
1.21166e-06
1.20825e-06
1.2139e-06
1.2067e-06
1.21069e-06
1.20461e-06
1.19953e-06
1.20136e-06
1.19964e-06
1.19821e-06
1.19938e-06
1.2022e-06
1.19935e-06
1.20084e-06
1.2002e-06
1.20098e-06
1.20345e-06
1.20254e-06
1.20011e-06
1.20211e-06
1.19727e-06
1.19851e-06
1.19619e-06
1.19564e-06
1.19492e-06
1.19796e-06
1.19313e-06
1.19336e-06
1.19559e-06
1.19287e-06
1.19201e-06
1.1873e-06
1.19239e-06
1.19041e-06
1.18966e-06
1.19229e-06
1.19251e-06
1.19209e-06
1.1898e-06
1.18703e-06
1.18666e-06
1.18775e-06
1.18798e-06
1.18717e-06
1.18532e-06
1.18691e-06
1.18669e-06
1.18634e-06
1.18655e-06
1.18823e-06
1.18796e-06
1.18897e-06
1.18934e-06
1.1906e-06
1.19039e-06
1.1904e-06
1.19073e-06
1.19032e-06
1.18907e-06
1.18966e-06
1.18788e-06
1.18727e-06
1.18783e-06
1.18557e-06
1.18627e-06
1.18781e-06
1.18759e-06
1.18617e-06
1.18709e-06
1.18649e-06
1.18608e-06
1.18745e-06
1.18782e-06
1.18515e-06
1.18206e-06
1.18316e-06
1.18182e-06
1.18078e-06
1.18095e-06
1.18168e-06
1.18161e-06
1.18095e-06
1.1816e-06
1.18063e-06
1.1808e-06
1.18064e-06
1.18099e-06
1.18209e-06
)
;

boundaryField
{
    inlet
    {
        type            calculated;
        value           uniform -1.225e-06;
    }
    outlet
    {
        type            calculated;
        value           uniform 1.18127e-06;
    }
    yzfaces
    {
        type            empty;
    }
}


// ************************************************************************* //
