/*--------------------------------*- C++ -*----------------------------------*\
| =========                 |                                                 |
| \\      /  F ield         | foam-extend: Open Source CFD                    |
|  \\    /   O peration     | Version:     5.0                                |
|   \\  /    A nd           | Web:         http://www.foam-extend.org         |
|    \\/     M anipulation  |                                                 |
\*---------------------------------------------------------------------------*/
FoamFile
{
    version     2.0;
    format      ascii;
    class       volVectorField;
    location    "6";
    object      U.gas;
}
// * * * * * * * * * * * * * * * * * * * * * * * * * * * * * * * * * * * * * //

dimensions      [0 1 -1 0 0 0 0];

internalField   nonuniform List<vector> 
100
(
(0.00626481 0 0)
(0.0067781 0 0)
(0.00714767 0 0)
(0.00776009 0 0)
(0.00785876 0 0)
(0.00815134 0 0)
(0.00854356 0 0)
(0.00880531 0 0)
(0.00909611 0 0)
(0.00943881 0 0)
(0.00969827 0 0)
(0.0099039 0 0)
(0.0100654 0 0)
(0.0102827 0 0)
(0.0104169 0 0)
(0.0104808 0 0)
(0.0105617 0 0)
(0.0105869 0 0)
(0.0107094 0 0)
(0.0108409 0 0)
(0.0110085 0 0)
(0.0111149 0 0)
(0.0112335 0 0)
(0.011309 0 0)
(0.0114196 0 0)
(0.0115133 0 0)
(0.0115745 0 0)
(0.0116664 0 0)
(0.0117626 0 0)
(0.0118146 0 0)
(0.0119128 0 0)
(0.0119613 0 0)
(0.0120453 0 0)
(0.0120913 0 0)
(0.012152 0 0)
(0.0122235 0 0)
(0.0123046 0 0)
(0.0122907 0 0)
(0.0123737 0 0)
(0.0124502 0 0)
(0.0124664 0 0)
(0.0125198 0 0)
(0.0125523 0 0)
(0.0126206 0 0)
(0.0126791 0 0)
(0.0127176 0 0)
(0.0127619 0 0)
(0.0128524 0 0)
(0.0129213 0 0)
(0.0129912 0 0)
(0.0130689 0 0)
(0.0132417 0 0)
(0.0134965 0 0)
(0.0139825 0 0)
(0.0124718 0 0)
(0.011719 0 0)
(0.0113343 0 0)
(0.0111053 0 0)
(0.0109371 0 0)
(0.0107983 0 0)
(0.0106905 0 0)
(0.010594 0 0)
(0.0105169 0 0)
(0.0104583 0 0)
(0.0104213 0 0)
(0.0103932 0 0)
(0.0103735 0 0)
(0.0103695 0 0)
(0.0103668 0 0)
(0.0103634 0 0)
(0.0103666 0 0)
(0.0103669 0 0)
(0.0103663 0 0)
(0.0103678 0 0)
(0.0103605 0 0)
(0.0103539 0 0)
(0.0103574 0 0)
(0.0103568 0 0)
(0.0103431 0 0)
(0.0103292 0 0)
(0.010315 0 0)
(0.0102936 0 0)
(0.0102664 0 0)
(0.0102345 0 0)
(0.0101773 0 0)
(0.0100941 0 0)
(0.0100071 0 0)
(0.00989987 0 0)
(0.00975944 0 0)
(0.00958877 0 0)
(0.00938545 0 0)
(0.00913022 0 0)
(0.00881618 0 0)
(0.00843733 0 0)
(0.00799198 0 0)
(0.00749105 0 0)
(0.00695685 0 0)
(0.00642472 0 0)
(0.00593453 0 0)
(0.00551776 0 0)
)
;

boundaryField
{
    inlet
    {
        type            fixedValue;
        value           uniform (0.005 0 0);
    }
    outlet
    {
        type            zeroGradient;
    }
    yzfaces
    {
        type            empty;
    }
}


// ************************************************************************* //
