/*--------------------------------*- C++ -*----------------------------------*\
| =========                 |                                                 |
| \\      /  F ield         | foam-extend: Open Source CFD                    |
|  \\    /   O peration     | Version:     5.0                                |
|   \\  /    A nd           | Web:         http://www.foam-extend.org         |
|    \\/     M anipulation  |                                                 |
\*---------------------------------------------------------------------------*/
FoamFile
{
    version     2.0;
    format      ascii;
    class       volVectorField;
    location    "6";
    object      U.water;
}
// * * * * * * * * * * * * * * * * * * * * * * * * * * * * * * * * * * * * * //

dimensions      [0 1 -1 0 0 0 0];

internalField   nonuniform List<vector> 
100
(
(4.5347e-05 0 0)
(0.000104628 0 0)
(0.000151332 0 0)
(0.000204415 0 0)
(0.00026448 0 0)
(0.000288507 0 0)
(0.000329564 0 0)
(0.000384064 0 0)
(0.000435322 0 0)
(0.000494018 0 0)
(0.000554814 0 0)
(0.000608227 0 0)
(0.000654359 0 0)
(0.000699828 0 0)
(0.000744877 0 0)
(0.000777517 0 0)
(0.000800844 0 0)
(0.000821159 0 0)
(0.000846546 0 0)
(0.000883098 0 0)
(0.000926112 0 0)
(0.000973662 0 0)
(0.0010137 0 0)
(0.00104683 0 0)
(0.00107881 0 0)
(0.00111685 0 0)
(0.00114952 0 0)
(0.00118 0 0)
(0.00121222 0 0)
(0.00124371 0 0)
(0.00127821 0 0)
(0.00131437 0 0)
(0.00134916 0 0)
(0.00138835 0 0)
(0.00142162 0 0)
(0.00145948 0 0)
(0.00150212 0 0)
(0.00153276 0 0)
(0.00155697 0 0)
(0.00160271 0 0)
(0.00163995 0 0)
(0.00167022 0 0)
(0.00170803 0 0)
(0.00175353 0 0)
(0.00180232 0 0)
(0.00184582 0 0)
(0.00189331 0 0)
(0.00194487 0 0)
(0.00200703 0 0)
(0.00207941 0 0)
(0.00217137 0 0)
(0.00230992 0 0)
(0.00254376 0 0)
(0.00298303 0 0)
(0.00346471 0 0)
(0.00366927 0 0)
(0.00377581 0 0)
(0.00384432 0 0)
(0.00389163 0 0)
(0.00393049 0 0)
(0.00396589 0 0)
(0.00399469 0 0)
(0.00401638 0 0)
(0.00403382 0 0)
(0.00404673 0 0)
(0.00405539 0 0)
(0.00405846 0 0)
(0.00405997 0 0)
(0.00405954 0 0)
(0.00405523 0 0)
(0.00405247 0 0)
(0.00404876 0 0)
(0.00404303 0 0)
(0.00404256 0 0)
(0.0040398 0 0)
(0.00403793 0 0)
(0.00404354 0 0)
(0.00404776 0 0)
(0.00404762 0 0)
(0.00405076 0 0)
(0.00405615 0 0)
(0.00406113 0 0)
(0.0040725 0 0)
(0.00408732 0 0)
(0.00409777 0 0)
(0.00410582 0 0)
(0.00412574 0 0)
(0.00415444 0 0)
(0.00418512 0 0)
(0.00422532 0 0)
(0.00427566 0 0)
(0.00433253 0 0)
(0.00439289 0 0)
(0.00445972 0 0)
(0.00452785 0 0)
(0.00459305 0 0)
(0.004654 0 0)
(0.00470603 0 0)
(0.00474987 0 0)
(0.00478061 0 0)
)
;

boundaryField
{
    inlet
    {
        type            fixedValue;
        value           uniform (0 0 0);
    }
    outlet
    {
        type            zeroGradient;
    }
    yzfaces
    {
        type            empty;
    }
}


// ************************************************************************* //
