/*--------------------------------*- C++ -*----------------------------------*\
| =========                 |                                                 |
| \\      /  F ield         | foam-extend: Open Source CFD                    |
|  \\    /   O peration     | Version:     5.0                                |
|   \\  /    A nd           | Web:         http://www.foam-extend.org         |
|    \\/     M anipulation  |                                                 |
\*---------------------------------------------------------------------------*/
FoamFile
{
    version     2.0;
    format      ascii;
    class       volScalarField;
    location    "3";
    object      alpha.gas;
}
// * * * * * * * * * * * * * * * * * * * * * * * * * * * * * * * * * * * * * //

dimensions      [0 0 0 0 0 0 0];

internalField   nonuniform List<scalar> 
100
(
0.145519
0.127737
0.116858
0.108675
0.102559
0.0973333
0.0927487
0.0890209
0.0857807
0.0829066
0.0800716
0.0774015
0.0750253
0.0727912
0.0703731
0.0681106
0.0657271
0.0633967
0.0608145
0.0579328
0.0548953
0.0514355
0.0466063
0.0391416
0.0261228
0.0303045
0.0318921
0.0330409
0.0339346
0.0346414
0.0351813
0.0355598
0.035764
0.0358523
0.0358293
0.0357315
0.0355707
0.0353476
0.0350531
0.0346839
0.0342435
0.0337583
0.0331817
0.0325196
0.0317881
0.0309213
0.0299508
0.0288511
0.027613
0.0262074
0.0246543
0.0229439
0.0210937
0.0191484
0.0172083
0.0153812
0.0137843
0.012516
0.0115939
0.0109742
0.010577
0.0103393
0.0101934
0.0101118
0.0100615
0.0100325
0.0100197
0.0100119
0.0100051
0.0100031
0.0100038
0.0100017
0.0100066
0.0100078
0.0100086
0.0100127
0.0100122
0.0100151
0.0100121
0.0100099
0.0100044
0.0100063
0.00999912
0.00999985
0.00999881
0.0099975
0.00999779
0.00999531
0.010002
0.0100005
0.00999842
0.00999886
0.00999844
0.00999494
0.00999193
0.00999916
0.00999778
0.00999229
0.00998945
0.00999375
)
;

boundaryField
{
    inlet
    {
        type            fixedValue;
        value           uniform 0.2;
    }
    outlet
    {
        type            zeroGradient;
    }
    yzfaces
    {
        type            empty;
    }
}


// ************************************************************************* //
