/*--------------------------------*- C++ -*----------------------------------*\
| =========                 |                                                 |
| \\      /  F ield         | foam-extend: Open Source CFD                    |
|  \\    /   O peration     | Version:     5.0                                |
|   \\  /    A nd           | Web:         http://www.foam-extend.org         |
|    \\/     M anipulation  |                                                 |
\*---------------------------------------------------------------------------*/
FoamFile
{
    version     2.0;
    format      ascii;
    class       volScalarField;
    location    "3";
    object      Cl.water;
}
// * * * * * * * * * * * * * * * * * * * * * * * * * * * * * * * * * * * * * //

dimensions      [0 0 0 0 0 0 0];

internalField   nonuniform List<scalar> 
100
(
0.00624347
0.00826843
0.00947718
0.0103987
0.0111081
0.0116849
0.0122131
0.0126947
0.0130774
0.0134256
0.0137467
0.0140756
0.0143327
0.0145988
0.0148437
0.0151232
0.0154156
0.0156903
0.0159825
0.016306
0.0166408
0.0170302
0.0175554
0.0183577
0.0197177
0.0195475
0.0193197
0.0191681
0.0190777
0.0189814
0.0189364
0.0188782
0.0188652
0.018848
0.0188569
0.0188611
0.0188927
0.018901
0.0189337
0.0189802
0.019037
0.0190846
0.0191547
0.0192322
0.0192987
0.0194184
0.0195201
0.0196592
0.0197888
0.0199546
0.0201335
0.0203306
0.0205392
0.0207711
0.0209868
0.0212037
0.0213843
0.0215384
0.0216454
0.0217143
0.0217538
0.0217849
0.0217957
0.0218167
0.0218161
0.0218297
0.0218204
0.0218108
0.0218196
0.0218212
0.0218195
0.0218267
0.0218267
0.0218169
0.0217984
0.0218187
0.0218036
0.0218227
0.0218125
0.0218209
0.0218248
0.0218213
0.0218158
0.0218109
0.0218209
0.0218255
0.0218152
0.0218178
0.0218174
0.0218299
0.0218126
0.0218217
0.0218217
0.0218146
0.0218155
0.0218247
0.0218236
0.021826
0.0218215
0.0218423
)
;

boundaryField
{
    inlet
    {
        type            fixedValue;
        value           uniform 0;
    }
    outlet
    {
        type            zeroGradient;
    }
    yzfaces
    {
        type            empty;
    }
}


// ************************************************************************* //
