/*--------------------------------*- C++ -*----------------------------------*\
| =========                 |                                                 |
| \\      /  F ield         | foam-extend: Open Source CFD                    |
|  \\    /   O peration     | Version:     5.0                                |
|   \\  /    A nd           | Web:         http://www.foam-extend.org         |
|    \\/     M anipulation  |                                                 |
\*---------------------------------------------------------------------------*/
FoamFile
{
    version     2.0;
    format      ascii;
    class       volScalarField;
    location    "3";
    object      H2O.gas;
}
// * * * * * * * * * * * * * * * * * * * * * * * * * * * * * * * * * * * * * //

dimensions      [0 0 0 0 0 0 0];

internalField   nonuniform List<scalar> 
100
(
0.000283393
0.000173807
0.00015402
0.000139184
0.00012862
0.000120748
0.000114887
0.000111134
0.000108927
0.000108007
0.000107764
0.000150737
0.000116861
0.000119767
0.000120304
0.000119945
0.000122915
0.000123463
0.000118434
0.000112822
0.000106907
0.000100169
9.07643e-05
7.62271e-05
5.08733e-05
0.000229774
0.00045019
0.000742184
0.00112303
0.00161175
0.00222298
0.00297066
0.00385463
0.00488084
0.00604596
0.00734887
0.00876067
0.0102767
0.0118491
0.0134544
0.015057
0.0166375
0.0181252
0.0194875
0.020712
0.0216677
0.0224139
0.0228466
0.0229891
0.022761
0.0221901
0.0212677
0.0200258
0.0185091
0.0168663
0.0152111
0.01371
0.0124851
0.0115789
0.0109682
0.0105765
0.0103383
0.0101951
0.0101098
0.0100618
0.010034
0.0100235
0.0100103
0.0100075
0.0100047
0.0100033
0.010002
0.0100096
0.0100108
0.0100128
0.010009
0.0100148
0.0100111
0.0100131
0.0100085
0.0100028
0.0100047
0.01
0.0100028
0.00999774
0.009995
0.00999783
0.00999527
0.0100011
0.00999669
0.0100001
0.00999736
0.00999703
0.0099994
0.00999612
0.00999877
0.00999725
0.00999173
0.00999103
0.00998611
)
;

boundaryField
{
    inlet
    {
        type            fixedValue;
        value           uniform 0;
    }
    outlet
    {
        type            zeroGradient;
    }
    yzfaces
    {
        type            empty;
    }
}


// ************************************************************************* //
