/*--------------------------------*- C++ -*----------------------------------*\
| =========                 |                                                 |
| \\      /  F ield         | foam-extend: Open Source CFD                    |
|  \\    /   O peration     | Version:     5.0                                |
|   \\  /    A nd           | Web:         http://www.foam-extend.org         |
|    \\/     M anipulation  |                                                 |
\*---------------------------------------------------------------------------*/
FoamFile
{
    version     2.0;
    format      ascii;
    class       volScalarField;
    location    "3";
    object      Na.water;
}
// * * * * * * * * * * * * * * * * * * * * * * * * * * * * * * * * * * * * * //

dimensions      [0 0 0 0 0 0 0];

internalField   nonuniform List<scalar> 
100
(
0.00624508
0.00826054
0.00947317
0.0104012
0.0111147
0.0116917
0.0122072
0.012691
0.0130697
0.0134185
0.0137386
0.0140756
0.0143314
0.0145906
0.014838
0.0151206
0.0154095
0.0156792
0.0159775
0.01631
0.0166374
0.0170265
0.0175527
0.0183592
0.0197161
0.0195472
0.0193186
0.019163
0.0190741
0.018976
0.0189307
0.0188719
0.0188552
0.0188401
0.0188505
0.0188589
0.0188878
0.0189017
0.0189446
0.0189876
0.0190451
0.0190929
0.0191586
0.0192329
0.0193038
0.0194259
0.0195221
0.0196643
0.0197923
0.0199528
0.0201361
0.0203358
0.0205429
0.0207744
0.0209867
0.0212013
0.0213839
0.0215285
0.0216444
0.0217117
0.0217482
0.021777
0.0217871
0.0218039
0.0218053
0.0218253
0.021828
0.0218211
0.0218362
0.0218297
0.0218294
0.0218329
0.0218289
0.0218281
0.0218153
0.0218338
0.0218186
0.0218323
0.0218187
0.0218208
0.0218188
0.0218224
0.021816
0.0218104
0.0218202
0.0218241
0.0218218
0.02182
0.0218257
0.0218252
0.0218161
0.021823
0.0218221
0.0218008
0.0218008
0.0218146
0.0218165
0.0218145
0.0218086
0.0218347
)
;

boundaryField
{
    inlet
    {
        type            fixedValue;
        value           uniform 0;
    }
    outlet
    {
        type            zeroGradient;
    }
    yzfaces
    {
        type            empty;
    }
}


// ************************************************************************* //
