/*--------------------------------*- C++ -*----------------------------------*\
| =========                 |                                                 |
| \\      /  F ield         | foam-extend: Open Source CFD                    |
|  \\    /   O peration     | Version:     5.0                                |
|   \\  /    A nd           | Web:         http://www.foam-extend.org         |
|    \\/     M anipulation  |                                                 |
\*---------------------------------------------------------------------------*/
FoamFile
{
    version     2.0;
    format      ascii;
    class       volScalarField;
    location    "3";
    object      Ns;
}
// * * * * * * * * * * * * * * * * * * * * * * * * * * * * * * * * * * * * * //

dimensions      [0 -3 0 0 1 0 0];

internalField   nonuniform List<scalar> 
100
(
3.87509
0.0542234
2.17385
0.273297
0.488717
1.00545
1.10335
0.194552
1.12556
0.762582
0.0844663
0.921074
1.90667
1.87405
0.601859
0.629486
0.00476475
0.615828
1.03398
1.96491
7.65834
10.2506
19.5409
36.5435
80.4931
165.065
171.749
175.552
171.187
173.571
175.815
171.777
172.198
174.466
162.716
169.697
171.413
172.846
172.159
176.299
172.61
172.313
172.781
173.61
176.492
171.889
172.743
169.819
173.596
170.165
172.62
172.828
173.418
173.854
174.84
173.572
170.614
171.418
175.284
169.261
174.054
170.949
175.551
172.491
179.162
173.31
175.677
171.999
176.86
174.033
177.726
175.735
172.693
176.512
176.759
173.749
173.36
172.406
174.393
176.644
173.544
174.735
170.05
176.29
172.585
173.484
175.391
172.999
172.049
173.764
170.179
170.944
172.881
175.548
174.528
175.854
174.114
173.836
174.391
169.477
)
;

boundaryField
{
    inlet
    {
        type            fixedValue;
        value           uniform 0;
    }
    outlet
    {
        type            zeroGradient;
    }
    yzfaces
    {
        type            empty;
    }
}


// ************************************************************************* //
