/*--------------------------------*- C++ -*----------------------------------*\
| =========                 |                                                 |
| \\      /  F ield         | foam-extend: Open Source CFD                    |
|  \\    /   O peration     | Version:     5.0                                |
|   \\  /    A nd           | Web:         http://www.foam-extend.org         |
|    \\/     M anipulation  |                                                 |
\*---------------------------------------------------------------------------*/
FoamFile
{
    version     2.0;
    format      ascii;
    class       surfaceScalarField;
    location    "3";
    object      phi;
}
// * * * * * * * * * * * * * * * * * * * * * * * * * * * * * * * * * * * * * //

dimensions      [0 3 -1 0 0 0 0];

internalField   nonuniform List<scalar> 
99
(
1.21676e-06
1.22862e-06
1.21142e-06
1.20949e-06
1.20241e-06
1.20626e-06
1.21079e-06
1.21143e-06
1.21157e-06
1.2086e-06
1.20117e-06
1.1967e-06
1.19588e-06
1.19355e-06
1.19475e-06
1.18984e-06
1.19253e-06
1.19038e-06
1.18648e-06
1.18742e-06
1.18469e-06
1.18352e-06
1.18103e-06
1.17861e-06
1.16943e-06
1.18163e-06
1.18297e-06
1.18129e-06
1.1826e-06
1.18042e-06
1.18238e-06
1.1804e-06
1.18008e-06
1.17941e-06
1.18017e-06
1.1785e-06
1.18069e-06
1.17886e-06
1.17955e-06
1.17873e-06
1.17908e-06
1.17827e-06
1.17889e-06
1.17826e-06
1.17616e-06
1.17735e-06
1.17582e-06
1.17723e-06
1.17587e-06
1.17524e-06
1.17527e-06
1.17495e-06
1.17403e-06
1.17452e-06
1.17367e-06
1.17412e-06
1.17384e-06
1.17598e-06
1.17653e-06
1.1775e-06
1.17643e-06
1.17627e-06
1.17682e-06
1.17599e-06
1.17664e-06
1.17586e-06
1.17481e-06
1.1753e-06
1.17504e-06
1.1748e-06
1.17423e-06
1.17385e-06
1.17353e-06
1.1726e-06
1.17077e-06
1.17201e-06
1.17148e-06
1.17245e-06
1.17159e-06
1.17193e-06
1.17371e-06
1.17278e-06
1.17323e-06
1.17211e-06
1.17168e-06
1.17292e-06
1.17335e-06
1.17293e-06
1.17279e-06
1.17437e-06
1.17347e-06
1.174e-06
1.1758e-06
1.17343e-06
1.17254e-06
1.17067e-06
1.17103e-06
1.17056e-06
1.1704e-06
)
;

boundaryField
{
    inlet
    {
        type            calculated;
        value           uniform -1.225e-06;
    }
    outlet
    {
        type            calculated;
        value           uniform 1.1726e-06;
    }
    yzfaces
    {
        type            empty;
    }
}


// ************************************************************************* //
