/*--------------------------------*- C++ -*----------------------------------*\
| =========                 |                                                 |
| \\      /  F ield         | foam-extend: Open Source CFD                    |
|  \\    /   O peration     | Version:     5.0                                |
|   \\  /    A nd           | Web:         http://www.foam-extend.org         |
|    \\/     M anipulation  |                                                 |
\*---------------------------------------------------------------------------*/
FoamFile
{
    version     2.0;
    format      ascii;
    class       volScalarField;
    location    "3";
    object      porosity;
}
// * * * * * * * * * * * * * * * * * * * * * * * * * * * * * * * * * * * * * //

dimensions      [0 0 0 0 0 0 0];

internalField   nonuniform List<scalar> 
100
(
0.2
0.2
0.2
0.2
0.2
0.2
0.2
0.2
0.2
0.2
0.2
0.2
0.2
0.2
0.2
0.2
0.2
0.2
0.2
0.2
0.2
0.2
0.2
0.2
0.2
0.200146
0.200031
0.199986
0.200018
0.199958
0.200028
0.199977
0.200002
0.199969
0.199988
0.199993
0.200037
0.200002
0.199996
0.2
0.20001
0.199997
0.200006
0.2
0.199972
0.200028
0.199973
0.200036
0.199988
0.199981
0.199993
0.200012
0.200005
0.200016
0.199995
0.200013
0.199996
0.200018
0.200013
0.200026
0.199996
0.2
0.199975
0.200013
0.199998
0.2
0.2
0.2
0.2
0.2
0.2
0.2
0.2
0.2
0.199964
0.200029
0.199994
0.200051
0.200021
0.200015
0.200008
0.200018
0.199983
0.199962
0.199991
0.200017
0.199998
0.199996
0.200033
0.200024
0.199984
0.200014
0.200007
0.199959
0.199946
0.200008
0.200006
0.199992
0.199971
0.200069
)
;

boundaryField
{
    inlet
    {
        type            calculated;
        value           uniform 0.2;
    }
    outlet
    {
        type            calculated;
        value           uniform 0.2;
    }
    yzfaces
    {
        type            empty;
    }
}


// ************************************************************************* //
