/*--------------------------------*- C++ -*----------------------------------*\
| =========                 |                                                 |
| \\      /  F ield         | foam-extend: Open Source CFD                    |
|  \\    /   O peration     | Version:     5.0                                |
|   \\  /    A nd           | Web:         http://www.foam-extend.org         |
|    \\/     M anipulation  |                                                 |
\*---------------------------------------------------------------------------*/
FoamFile
{
    version     2.0;
    format      ascii;
    class       volVectorField;
    location    "3";
    object      U.gas;
}
// * * * * * * * * * * * * * * * * * * * * * * * * * * * * * * * * * * * * * //

dimensions      [0 1 -1 0 0 0 0];

internalField   nonuniform List<vector> 
100
(
(0.00682482 0 0)
(0.00771274 0 0)
(0.00832753 0 0)
(0.00878978 0 0)
(0.00917967 0 0)
(0.0095542 0 0)
(0.00994534 0 0)
(0.0102631 0 0)
(0.0105335 0 0)
(0.0107638 0 0)
(0.0109653 0 0)
(0.0111361 0 0)
(0.0113193 0 0)
(0.0114952 0 0)
(0.0117086 0 0)
(0.0118799 0 0)
(0.0120766 0 0)
(0.0122644 0 0)
(0.0124517 0 0)
(0.0126579 0 0)
(0.0128738 0 0)
(0.0130845 0 0)
(0.0133948 0 0)
(0.0138194 0 0)
(0.014471 0 0)
(0.0106655 0 0)
(0.0113055 0 0)
(0.0116206 0 0)
(0.0118224 0 0)
(0.0119631 0 0)
(0.0120739 0 0)
(0.0121571 0 0)
(0.0122091 0 0)
(0.012241 0 0)
(0.0122644 0 0)
(0.0122672 0 0)
(0.0122659 0 0)
(0.0122566 0 0)
(0.0122319 0 0)
(0.0122025 0 0)
(0.0121619 0 0)
(0.0121065 0 0)
(0.0120486 0 0)
(0.0119734 0 0)
(0.0118633 0 0)
(0.0117506 0 0)
(0.011605 0 0)
(0.0114283 0 0)
(0.0112084 0 0)
(0.0109274 0 0)
(0.0105816 0 0)
(0.0101616 0 0)
(0.00964893 0 0)
(0.00904234 0 0)
(0.00834344 0 0)
(0.00759068 0 0)
(0.00683892 0 0)
(0.00615376 0 0)
(0.00559789 0 0)
(0.00518609 0 0)
(0.00490565 0 0)
(0.00472406 0 0)
(0.00461733 0 0)
(0.00455057 0 0)
(0.0045136 0 0)
(0.00449144 0 0)
(0.00447562 0 0)
(0.0044682 0 0)
(0.00446474 0 0)
(0.00446103 0 0)
(0.00445833 0 0)
(0.00445719 0 0)
(0.00445475 0 0)
(0.00445442 0 0)
(0.00445019 0 0)
(0.00444906 0 0)
(0.00445246 0 0)
(0.00445314 0 0)
(0.00445451 0 0)
(0.00445295 0 0)
(0.0044557 0 0)
(0.00445432 0 0)
(0.004454 0 0)
(0.00444954 0 0)
(0.00444652 0 0)
(0.00444694 0 0)
(0.00444994 0 0)
(0.00445027 0 0)
(0.00444786 0 0)
(0.0044542 0 0)
(0.00445515 0 0)
(0.00445321 0 0)
(0.00445782 0 0)
(0.00445665 0 0)
(0.0044487 0 0)
(0.00444192 0 0)
(0.00444267 0 0)
(0.00444231 0 0)
(0.00443822 0 0)
(0.00443976 0 0)
)
;

boundaryField
{
    inlet
    {
        type            fixedValue;
        value           uniform (0.005 0 0);
    }
    outlet
    {
        type            zeroGradient;
    }
    yzfaces
    {
        type            empty;
    }
}


// ************************************************************************* //
