/*--------------------------------*- C++ -*----------------------------------*\
| =========                 |                                                 |
| \\      /  F ield         | foam-extend: Open Source CFD                    |
|  \\    /   O peration     | Version:     5.0                                |
|   \\  /    A nd           | Web:         http://www.foam-extend.org         |
|    \\/     M anipulation  |                                                 |
\*---------------------------------------------------------------------------*/
FoamFile
{
    version     2.0;
    format      ascii;
    class       volVectorField;
    location    "3";
    object      U.water;
}
// * * * * * * * * * * * * * * * * * * * * * * * * * * * * * * * * * * * * * //

dimensions      [0 1 -1 0 0 0 0];

internalField   nonuniform List<vector> 
100
(
(7.22924e-05 0 0)
(0.00017864 0 0)
(0.000274185 0 0)
(0.000360236 0 0)
(0.000441176 0 0)
(0.000518058 0 0)
(0.000597961 0 0)
(0.000676081 0 0)
(0.000747726 0 0)
(0.000815025 0 0)
(0.000880246 0 0)
(0.000948125 0 0)
(0.00101882 0 0)
(0.00108899 0 0)
(0.00116372 0 0)
(0.00124466 0 0)
(0.00133036 0 0)
(0.00142506 0 0)
(0.00152509 0 0)
(0.00164618 0 0)
(0.00178915 0 0)
(0.00195949 0 0)
(0.00219059 0 0)
(0.00256228 0 0)
(0.0032305 0 0)
(0.00375027 0 0)
(0.00359643 0 0)
(0.00348017 0 0)
(0.00339422 0 0)
(0.00332657 0 0)
(0.00327408 0 0)
(0.00323581 0 0)
(0.00320767 0 0)
(0.0031934 0 0)
(0.00318977 0 0)
(0.00319231 0 0)
(0.00320277 0 0)
(0.00321793 0 0)
(0.0032365 0 0)
(0.00326243 0 0)
(0.00329341 0 0)
(0.00332944 0 0)
(0.00337081 0 0)
(0.0034197 0 0)
(0.00347106 0 0)
(0.0035325 0 0)
(0.00360423 0 0)
(0.00368514 0 0)
(0.00377609 0 0)
(0.00387392 0 0)
(0.00398362 0 0)
(0.0041011 0 0)
(0.00422139 0 0)
(0.00434303 0 0)
(0.00445791 0 0)
(0.0045582 0 0)
(0.00464023 0 0)
(0.00470489 0 0)
(0.004752 0 0)
(0.00478196 0 0)
(0.00479825 0 0)
(0.00480564 0 0)
(0.00481214 0 0)
(0.00481502 0 0)
(0.00481653 0 0)
(0.00481738 0 0)
(0.00481427 0 0)
(0.00481343 0 0)
(0.00481408 0 0)
(0.0048132 0 0)
(0.00481161 0 0)
(0.00480962 0 0)
(0.00480825 0 0)
(0.00480558 0 0)
(0.00479988 0 0)
(0.0047987 0 0)
(0.00480004 0 0)
(0.00480095 0 0)
(0.00480111 0 0)
(0.00480006 0 0)
(0.00480446 0 0)
(0.00480637 0 0)
(0.00480534 0 0)
(0.00480413 0 0)
(0.00480096 0 0)
(0.00480266 0 0)
(0.00480611 0 0)
(0.00480611 0 0)
(0.00480505 0 0)
(0.00480781 0 0)
(0.00480921 0 0)
(0.00480852 0 0)
(0.00481327 0 0)
(0.0048121 0 0)
(0.00480551 0 0)
(0.00479996 0 0)
(0.00479668 0 0)
(0.00479647 0 0)
(0.00479532 0 0)
(0.00479963 0 0)
)
;

boundaryField
{
    inlet
    {
        type            fixedValue;
        value           uniform (0 0 0);
    }
    outlet
    {
        type            zeroGradient;
    }
    yzfaces
    {
        type            empty;
    }
}


// ************************************************************************* //
