/*--------------------------------*- C++ -*----------------------------------*\
| =========                 |                                                 |
| \\      /  F ield         | foam-extend: Open Source CFD                    |
|  \\    /   O peration     | Version:     5.0                                |
|   \\  /    A nd           | Web:         http://www.foam-extend.org         |
|    \\/     M anipulation  |                                                 |
\*---------------------------------------------------------------------------*/
FoamFile
{
    version     2.0;
    format      ascii;
    class       volScalarField;
    location    "5";
    object      alpha.gas;
}
// * * * * * * * * * * * * * * * * * * * * * * * * * * * * * * * * * * * * * //

dimensions      [0 0 0 0 0 0 0];

internalField   nonuniform List<scalar> 
100
(
0.157266
0.143815
0.133973
0.131179
0.122632
0.114859
0.109803
0.105576
0.102158
0.0990197
0.0964212
0.0937647
0.0914265
0.0893478
0.0877743
0.0856765
0.0838889
0.0823869
0.080768
0.0792854
0.0778223
0.076313
0.0750728
0.07367
0.0723346
0.0710984
0.0700015
0.0687804
0.0676825
0.066663
0.0656165
0.0646016
0.0634848
0.062238
0.0609675
0.0597433
0.0585008
0.0572745
0.0558436
0.0540425
0.0520295
0.049696
0.0464404
0.041568
0.0331357
0.015546
0.0255132
0.0243595
0.0240841
0.0242303
0.0245164
0.0248538
0.0251723
0.025438
0.025666
0.0258691
0.0260486
0.0262173
0.02636
0.026479
0.0265888
0.0266686
0.0267277
0.0267399
0.02674
0.0266855
0.0266089
0.0264884
0.0263089
0.0260849
0.025788
0.0254184
0.0249786
0.0244344
0.0237734
0.0229974
0.0220833
0.0210366
0.0198395
0.0185095
0.0171081
0.0156918
0.014348
0.0131611
0.0121917
0.011459
0.0109407
0.0105926
0.0103672
0.0102257
0.0101367
0.0100826
0.0100477
0.0100263
0.0100131
0.0100062
0.0100041
0.0100009
0.00999907
0.00999708
)
;

boundaryField
{
    inlet
    {
        type            fixedValue;
        value           uniform 0.2;
    }
    outlet
    {
        type            zeroGradient;
    }
    yzfaces
    {
        type            empty;
    }
}


// ************************************************************************* //
