/*--------------------------------*- C++ -*----------------------------------*\
| =========                 |                                                 |
| \\      /  F ield         | foam-extend: Open Source CFD                    |
|  \\    /   O peration     | Version:     5.0                                |
|   \\  /    A nd           | Web:         http://www.foam-extend.org         |
|    \\/     M anipulation  |                                                 |
\*---------------------------------------------------------------------------*/
FoamFile
{
    version     2.0;
    format      ascii;
    class       volScalarField;
    location    "5";
    object      Cl.water;
}
// * * * * * * * * * * * * * * * * * * * * * * * * * * * * * * * * * * * * * //

dimensions      [0 0 0 0 0 0 0];

internalField   nonuniform List<scalar> 
100
(
0.00489157
0.00644518
0.00758027
0.00784387
0.00885376
0.00977665
0.010358
0.0108234
0.0112192
0.0115817
0.0118748
0.0121605
0.0124638
0.0126832
0.0128745
0.0131
0.0132999
0.0134826
0.0136533
0.0138592
0.013986
0.014162
0.0143213
0.0144612
0.0146137
0.0147646
0.0148921
0.0150243
0.0151686
0.0152661
0.0153705
0.0155242
0.0156396
0.0157769
0.0159481
0.0160771
0.0162184
0.0163576
0.0165453
0.0167556
0.0169859
0.0172415
0.0176167
0.0181695
0.0191193
0.0210738
0.0208371
0.0211375
0.021247
0.0212446
0.0212108
0.0211952
0.0211662
0.0211233
0.0211032
0.0210861
0.0210649
0.0210395
0.0210264
0.0210007
0.0209968
0.0209821
0.0209653
0.0209494
0.0209613
0.0209657
0.0209674
0.0209968
0.0210204
0.0210415
0.0210767
0.0211321
0.0211798
0.0212478
0.0213329
0.021427
0.0215516
0.0216955
0.0218296
0.0219836
0.0221646
0.0223394
0.0225031
0.0226339
0.0227474
0.0228187
0.0228849
0.0229211
0.0229433
0.0229664
0.0229632
0.0229664
0.0229638
0.0229839
0.0229858
0.0229741
0.022981
0.0229788
0.0229763
0.0229788
)
;

boundaryField
{
    inlet
    {
        type            fixedValue;
        value           uniform 0;
    }
    outlet
    {
        type            zeroGradient;
    }
    yzfaces
    {
        type            empty;
    }
}


// ************************************************************************* //
