/*--------------------------------*- C++ -*----------------------------------*\
| =========                 |                                                 |
| \\      /  F ield         | foam-extend: Open Source CFD                    |
|  \\    /   O peration     | Version:     5.0                                |
|   \\  /    A nd           | Web:         http://www.foam-extend.org         |
|    \\/     M anipulation  |                                                 |
\*---------------------------------------------------------------------------*/
FoamFile
{
    version     2.0;
    format      ascii;
    class       volScalarField;
    location    "5";
    object      CO2.water;
}
// * * * * * * * * * * * * * * * * * * * * * * * * * * * * * * * * * * * * * //

dimensions      [0 0 0 0 0 0 0];

internalField   nonuniform List<scalar> 
100
(
0.00111876
0.00147389
0.00173358
0.00179427
0.00202527
0.00223562
0.00236835
0.00247417
0.00256503
0.00264923
0.00271746
0.00278438
0.0028508
0.00290228
0.00294386
0.00299652
0.0030416
0.00308313
0.00312222
0.00317034
0.00319765
0.00324006
0.00327551
0.00330841
0.00334256
0.00337587
0.00340452
0.003435
0.00346921
0.00349113
0.00351744
0.00354942
0.0035776
0.00360957
0.00364799
0.00367844
0.00371124
0.00374202
0.00378515
0.00383333
0.00388557
0.00394372
0.00403001
0.00415651
0.00437385
0.00482075
0.00109378
0.000448628
0.000172812
6.38614e-05
2.30384e-05
8.2189e-06
2.91365e-06
1.02942e-06
3.63664e-07
1.28305e-07
4.52034e-08
1.58992e-08
5.57902e-09
1.95682e-09
6.87196e-10
2.4221e-10
8.59605e-11
3.08272e-11
1.12472e-11
4.17635e-12
1.58915e-12
6.21961e-13
2.50271e-13
1.03652e-13
4.42218e-14
1.94199e-14
8.76939e-15
4.06148e-15
1.92282e-15
9.27342e-16
4.54914e-16
2.26137e-16
1.13474e-16
5.72362e-17
2.90054e-17
1.46765e-17
7.39103e-18
3.68962e-18
1.82272e-18
8.88294e-19
4.27526e-19
2.02869e-19
9.49963e-20
4.39504e-20
2.0068e-20
9.05652e-21
4.03736e-21
1.77991e-21
7.72478e-22
3.29473e-22
1.37751e-22
5.60324e-23
2.20152e-23
8.10336e-24
)
;

boundaryField
{
    inlet
    {
        type            fixedValue;
        value           uniform 0;
    }
    outlet
    {
        type            zeroGradient;
    }
    yzfaces
    {
        type            empty;
    }
}


// ************************************************************************* //
