/*--------------------------------*- C++ -*----------------------------------*\
| =========                 |                                                 |
| \\      /  F ield         | foam-extend: Open Source CFD                    |
|  \\    /   O peration     | Version:     5.0                                |
|   \\  /    A nd           | Web:         http://www.foam-extend.org         |
|    \\/     M anipulation  |                                                 |
\*---------------------------------------------------------------------------*/
FoamFile
{
    version     2.0;
    format      ascii;
    class       volScalarField;
    location    "5";
    object      H2O.gas;
}
// * * * * * * * * * * * * * * * * * * * * * * * * * * * * * * * * * * * * * //

dimensions      [0 0 0 0 0 0 0];

internalField   nonuniform List<scalar> 
100
(
5.00788e-06
0.000114183
0.000260909
0.000255468
0.000238823
0.000223685
0.000213837
0.000204906
0.000198478
0.000192384
0.00018738
0.000182056
0.000178051
0.000173452
0.000170938
0.000166361
0.000162697
0.000160282
0.000156854
0.000154406
0.000150454
0.000147125
0.000144333
0.000140401
0.000136921
0.000133686
0.000130637
0.00012756
0.000125865
0.000124195
0.000122523
0.000121271
0.000119355
0.000117462
0.000115997
0.000114726
0.000113226
0.000111086
0.000108546
0.000105246
0.000101326
9.66881e-05
9.04414e-05
8.09525e-05
6.45309e-05
3.02754e-05
0.00077055
0.0013279
0.00196179
0.00266761
0.00345117
0.00432444
0.00527661
0.00629371
0.0073803
0.00852445
0.00971203
0.0109308
0.0121704
0.0134064
0.0146467
0.0158509
0.0170109
0.0181004
0.0191456
0.0200813
0.0209174
0.0216718
0.0222811
0.0227582
0.0230824
0.0232738
0.0233019
0.0231572
0.0228319
0.0223182
0.0216242
0.0207448
0.0196563
0.0183947
0.0170555
0.0156757
0.0143492
0.0131597
0.0121934
0.0114566
0.0109406
0.0105908
0.0103633
0.0102258
0.0101311
0.0100782
0.0100414
0.0100282
0.0100148
0.0100037
0.0100031
0.00999915
0.00999613
0.00999625
)
;

boundaryField
{
    inlet
    {
        type            fixedValue;
        value           uniform 0;
    }
    outlet
    {
        type            zeroGradient;
    }
    yzfaces
    {
        type            empty;
    }
}


// ************************************************************************* //
