/*--------------------------------*- C++ -*----------------------------------*\
| =========                 |                                                 |
| \\      /  F ield         | foam-extend: Open Source CFD                    |
|  \\    /   O peration     | Version:     5.0                                |
|   \\  /    A nd           | Web:         http://www.foam-extend.org         |
|    \\/     M anipulation  |                                                 |
\*---------------------------------------------------------------------------*/
FoamFile
{
    version     2.0;
    format      ascii;
    class       volVectorField;
    location    "5";
    object      U.gas;
}
// * * * * * * * * * * * * * * * * * * * * * * * * * * * * * * * * * * * * * //

dimensions      [0 1 -1 0 0 0 0];

internalField   nonuniform List<vector> 
100
(
(0.00634458 0 0)
(0.00690478 0 0)
(0.00738851 0 0)
(0.00754965 0 0)
(0.00795918 0 0)
(0.00840794 0 0)
(0.0087598 0 0)
(0.0090502 0 0)
(0.00926289 0 0)
(0.00948894 0 0)
(0.00971599 0 0)
(0.00992698 0 0)
(0.010069 0 0)
(0.0102184 0 0)
(0.0103322 0 0)
(0.0105059 0 0)
(0.0106467 0 0)
(0.0107503 0 0)
(0.0108964 0 0)
(0.011 0 0)
(0.011111 0 0)
(0.0112441 0 0)
(0.0113614 0 0)
(0.0114966 0 0)
(0.0116121 0 0)
(0.0117092 0 0)
(0.0117924 0 0)
(0.0119261 0 0)
(0.0120546 0 0)
(0.0121506 0 0)
(0.0122449 0 0)
(0.01231 0 0)
(0.0123826 0 0)
(0.0124832 0 0)
(0.0126035 0 0)
(0.0127112 0 0)
(0.0128302 0 0)
(0.0129503 0 0)
(0.0130558 0 0)
(0.0131638 0 0)
(0.0132999 0 0)
(0.0134791 0 0)
(0.0136827 0 0)
(0.0139365 0 0)
(0.014357 0 0)
(0.0129669 0 0)
(0.0116233 0 0)
(0.0107469 0 0)
(0.0103354 0 0)
(0.0102143 0 0)
(0.0102541 0 0)
(0.010345 0 0)
(0.0104388 0 0)
(0.0105278 0 0)
(0.0106077 0 0)
(0.0106708 0 0)
(0.0107249 0 0)
(0.0107738 0 0)
(0.010811 0 0)
(0.0108404 0 0)
(0.0108632 0 0)
(0.0108862 0 0)
(0.0108989 0 0)
(0.0109217 0 0)
(0.0109308 0 0)
(0.010937 0 0)
(0.010939 0 0)
(0.0109202 0 0)
(0.0108894 0 0)
(0.0108539 0 0)
(0.0107974 0 0)
(0.0107293 0 0)
(0.01064 0 0)
(0.0105212 0 0)
(0.0103729 0 0)
(0.01018 0 0)
(0.00994842 0 0)
(0.00965361 0 0)
(0.0092937 0 0)
(0.00886427 0 0)
(0.00836654 0 0)
(0.00781038 0 0)
(0.00721418 0 0)
(0.00662639 0 0)
(0.00609148 0 0)
(0.00564948 0 0)
(0.00531069 0 0)
(0.00506885 0 0)
(0.00490833 0 0)
(0.00480156 0 0)
(0.00473241 0 0)
(0.00468781 0 0)
(0.00466499 0 0)
(0.0046521 0 0)
(0.00464086 0 0)
(0.00463578 0 0)
(0.00463131 0 0)
(0.00462426 0 0)
(0.00462054 0 0)
(0.00462305 0 0)
)
;

boundaryField
{
    inlet
    {
        type            fixedValue;
        value           uniform (0.005 0 0);
    }
    outlet
    {
        type            zeroGradient;
    }
    yzfaces
    {
        type            empty;
    }
}


// ************************************************************************* //
