/*--------------------------------*- C++ -*----------------------------------*\
| =========                 |                                                 |
| \\      /  F ield         | foam-extend: Open Source CFD                    |
|  \\    /   O peration     | Version:     5.0                                |
|   \\  /    A nd           | Web:         http://www.foam-extend.org         |
|    \\/     M anipulation  |                                                 |
\*---------------------------------------------------------------------------*/
FoamFile
{
    version     2.0;
    format      ascii;
    class       volScalarField;
    location    "6";
    object      alpha.gas;
}
// * * * * * * * * * * * * * * * * * * * * * * * * * * * * * * * * * * * * * //

dimensions      [0 0 0 0 0 0 0];

internalField   nonuniform List<scalar> 
100
(
0.161443
0.147741
0.138035
0.133081
0.128878
0.121621
0.11634
0.111846
0.108123
0.104892
0.102307
0.09947
0.0971171
0.0950069
0.0927505
0.0908716
0.0893606
0.0873034
0.0859833
0.0850949
0.0837009
0.08253
0.0809763
0.0795295
0.0784723
0.0772458
0.0760813
0.0750312
0.0739727
0.0728539
0.0719218
0.0707727
0.069806
0.0690269
0.0681533
0.0671413
0.0661668
0.0652314
0.0643827
0.063488
0.0626621
0.0616861
0.0607744
0.0597471
0.0586373
0.0575625
0.0562698
0.0548427
0.0534217
0.0515953
0.0493688
0.046206
0.0415326
0.0334322
0.0159839
0.0204927
0.0223462
0.0234423
0.0241815
0.0247064
0.0250765
0.0253138
0.0254722
0.0255652
0.0256073
0.0256298
0.025647
0.0256637
0.0256967
0.0257268
0.0257728
0.0258274
0.0258924
0.0259647
0.0260354
0.0261056
0.0261738
0.0262253
0.0262431
0.0262533
0.0262186
0.0261582
0.0260466
0.0259108
0.0257184
0.0254662
0.0251348
0.0247109
0.0242089
0.0235874
0.0228414
0.0219437
0.0209113
0.0197318
0.0184272
0.0170398
0.015636
0.0143053
0.0131336
0.0121747
)
;

boundaryField
{
    inlet
    {
        type            fixedValue;
        value           uniform 0.2;
    }
    outlet
    {
        type            zeroGradient;
    }
    yzfaces
    {
        type            empty;
    }
}


// ************************************************************************* //
