/*--------------------------------*- C++ -*----------------------------------*\
| =========                 |                                                 |
| \\      /  F ield         | foam-extend: Open Source CFD                    |
|  \\    /   O peration     | Version:     5.0                                |
|   \\  /    A nd           | Web:         http://www.foam-extend.org         |
|    \\/     M anipulation  |                                                 |
\*---------------------------------------------------------------------------*/
FoamFile
{
    version     2.0;
    format      ascii;
    class       volScalarField;
    location    "6";
    object      Cl.water;
}
// * * * * * * * * * * * * * * * * * * * * * * * * * * * * * * * * * * * * * //

dimensions      [0 0 0 0 0 0 0];

internalField   nonuniform List<scalar> 
100
(
0.00442633
0.00596425
0.00699835
0.00761695
0.00814844
0.00899984
0.00957722
0.0101017
0.0105487
0.0109119
0.011216
0.0115109
0.0117972
0.0120324
0.0122752
0.0125277
0.01265
0.0128628
0.0130503
0.0131838
0.0133372
0.0134744
0.0136382
0.0137919
0.0139267
0.014093
0.0142222
0.0143374
0.0144624
0.0145958
0.0146754
0.0147743
0.0148964
0.0150009
0.0150761
0.0151975
0.0153219
0.0154586
0.015529
0.0156342
0.0157333
0.0158437
0.0159584
0.0160827
0.0161973
0.0163451
0.0164933
0.0166613
0.0168179
0.0170282
0.0172804
0.0176447
0.0181816
0.0190919
0.0210533
0.021309
0.0213558
0.0213217
0.0212699
0.0212133
0.0211813
0.0211512
0.0211469
0.0211376
0.0211313
0.021129
0.0211143
0.0211012
0.0210892
0.0210759
0.0210765
0.0210633
0.0210672
0.0210767
0.0210671
0.0210393
0.0210404
0.0210326
0.0210125
0.0210132
0.0210345
0.0210316
0.0210599
0.0211043
0.0211248
0.021137
0.0211612
0.0212022
0.0212723
0.0213554
0.0214312
0.0215331
0.0216666
0.0218118
0.0219882
0.0221606
0.0223243
0.0224777
0.0226329
0.0227166
)
;

boundaryField
{
    inlet
    {
        type            fixedValue;
        value           uniform 0;
    }
    outlet
    {
        type            zeroGradient;
    }
    yzfaces
    {
        type            empty;
    }
}


// ************************************************************************* //
