/*--------------------------------*- C++ -*----------------------------------*\
| =========                 |                                                 |
| \\      /  F ield         | foam-extend: Open Source CFD                    |
|  \\    /   O peration     | Version:     5.0                                |
|   \\  /    A nd           | Web:         http://www.foam-extend.org         |
|    \\/     M anipulation  |                                                 |
\*---------------------------------------------------------------------------*/
FoamFile
{
    version     2.0;
    format      ascii;
    class       volScalarField;
    location    "6";
    object      CO2.gas;
}
// * * * * * * * * * * * * * * * * * * * * * * * * * * * * * * * * * * * * * //

dimensions      [0 0 0 0 0 0 0];

internalField   nonuniform List<scalar> 
100
(
0.161129
0.146597
0.135578
0.131737
0.128627
0.121384
0.115742
0.111326
0.107912
0.104562
0.102107
0.0989763
0.0968063
0.0946193
0.0922621
0.0906947
0.0888036
0.0866099
0.0855266
0.0849292
0.0834338
0.0822826
0.0806665
0.0791757
0.0781871
0.0770953
0.0758653
0.0747862
0.0737538
0.0727121
0.0716641
0.0703608
0.0694413
0.0687233
0.067744
0.066787
0.0658693
0.0650663
0.0641183
0.0632218
0.0624024
0.0614019
0.0605426
0.0595514
0.0584055
0.0574103
0.0561247
0.0547359
0.0532876
0.0514949
0.0492727
0.046116
0.0414517
0.0333671
0.0159528
0.0198977
0.0212886
0.0218712
0.0220244
0.0218856
0.0215237
0.0209564
0.020261
0.019437
0.0185171
0.0175424
0.0165258
0.0154865
0.0144497
0.013408
0.0123872
0.0113794
0.0104045
0.00946098
0.00853891
0.00764914
0.00681245
0.00600868
0.00525077
0.00455124
0.00390817
0.00331511
0.00278061
0.00230622
0.00188379
0.00151323
0.00119522
0.000925933
0.000702533
0.000519888
0.000373058
0.000258396
0.000171826
0.000108725
6.49569e-05
3.62114e-05
1.86539e-05
8.81597e-06
3.81964e-06
1.56405e-06
)
;

boundaryField
{
    inlet
    {
        type            fixedValue;
        value           uniform 0.2;
    }
    outlet
    {
        type            zeroGradient;
    }
    yzfaces
    {
        type            empty;
    }
}


// ************************************************************************* //
