/*--------------------------------*- C++ -*----------------------------------*\
| =========                 |                                                 |
| \\      /  F ield         | foam-extend: Open Source CFD                    |
|  \\    /   O peration     | Version:     5.0                                |
|   \\  /    A nd           | Web:         http://www.foam-extend.org         |
|    \\/     M anipulation  |                                                 |
\*---------------------------------------------------------------------------*/
FoamFile
{
    version     2.0;
    format      ascii;
    class       volScalarField;
    location    "6";
    object      CO2.water;
}
// * * * * * * * * * * * * * * * * * * * * * * * * * * * * * * * * * * * * * //

dimensions      [0 0 0 0 0 0 0];

internalField   nonuniform List<scalar> 
100
(
0.00101229
0.00136356
0.00159999
0.00174222
0.00186393
0.00205833
0.00219029
0.00230875
0.00241201
0.00249533
0.00256495
0.00263327
0.00269873
0.00275101
0.00280732
0.00286587
0.00289222
0.00294092
0.00298423
0.00301575
0.00305112
0.00308307
0.00312046
0.0031555
0.00318493
0.00322335
0.00325119
0.00327677
0.00330625
0.00333859
0.00335781
0.00338119
0.00340887
0.00343235
0.00344949
0.00347847
0.00350701
0.00353785
0.00355358
0.00357638
0.00359719
0.0036217
0.00364784
0.00367846
0.00370531
0.00373862
0.00377336
0.00381224
0.00384768
0.0038962
0.00395287
0.00403561
0.00415827
0.00436629
0.0048143
0.00161748
0.000556776
0.000194522
6.86953e-05
2.45422e-05
8.89075e-06
3.2654e-06
1.21483e-06
4.56209e-07
1.7249e-07
6.54062e-08
2.48187e-08
9.40508e-09
3.55642e-09
1.34037e-09
5.03811e-10
1.89031e-10
7.0854e-11
2.65529e-11
9.96015e-12
3.75126e-12
1.42381e-12
5.43826e-13
2.09416e-13
8.1322e-14
3.17128e-14
1.24097e-14
4.87176e-15
1.91609e-15
7.54462e-16
2.97028e-16
1.17247e-16
4.64516e-17
1.85665e-17
7.52385e-18
3.1283e-18
1.3558e-18
6.21888e-19
3.02407e-19
1.54329e-19
8.11415e-20
4.31814e-20
2.29544e-20
1.20843e-20
6.28517e-21
)
;

boundaryField
{
    inlet
    {
        type            fixedValue;
        value           uniform 0;
    }
    outlet
    {
        type            zeroGradient;
    }
    yzfaces
    {
        type            empty;
    }
}


// ************************************************************************* //
