/*--------------------------------*- C++ -*----------------------------------*\
| =========                 |                                                 |
| \\      /  F ield         | foam-extend: Open Source CFD                    |
|  \\    /   O peration     | Version:     5.0                                |
|   \\  /    A nd           | Web:         http://www.foam-extend.org         |
|    \\/     M anipulation  |                                                 |
\*---------------------------------------------------------------------------*/
FoamFile
{
    version     2.0;
    format      ascii;
    class       volScalarField;
    location    "6";
    object      H2O.gas;
}
// * * * * * * * * * * * * * * * * * * * * * * * * * * * * * * * * * * * * * //

dimensions      [0 0 0 0 0 0 0];

internalField   nonuniform List<scalar> 
100
(
0.000314406
0.000173931
0.000135586
0.000174037
0.000250987
0.000236853
0.000217967
0.000207717
0.000210566
0.000201448
0.000199239
0.0001923
0.000188756
0.000184284
0.000179414
0.00017697
0.000173011
0.000168737
0.00016668
0.00016572
0.000162695
0.000160563
0.000157332
0.000154537
0.000152682
0.000150434
0.000148056
0.000145966
0.000143665
0.000141881
0.000139205
0.000136398
0.000134128
0.000132252
0.000129938
0.00012759
0.000125494
0.000124971
0.000123007
0.000120866
0.000118876
0.000116885
0.000115244
0.000113416
0.000111568
0.000110226
0.000108847
0.000106805
0.000103918
0.00010048
9.61443e-05
8.99848e-05
8.08835e-05
6.51082e-05
3.11282e-05
0.000555596
0.00103503
0.00156165
0.002154
0.00281797
0.00355473
0.00435626
0.0052273
0.00614718
0.00710924
0.00810566
0.00912659
0.0101737
0.0112339
0.0122969
0.013365
0.0144213
0.0154717
0.016515
0.0175085
0.0184487
0.0193699
0.0202193
0.0209759
0.0216813
0.022314
0.0228356
0.0232714
0.0236406
0.0238697
0.0239642
0.0239377
0.0237741
0.0235014
0.0230706
0.0224543
0.0216651
0.020723
0.0196104
0.0183632
0.0170111
0.0156284
0.0143059
0.0131492
0.0121757
)
;

boundaryField
{
    inlet
    {
        type            fixedValue;
        value           uniform 0;
    }
    outlet
    {
        type            zeroGradient;
    }
    yzfaces
    {
        type            empty;
    }
}


// ************************************************************************* //
