/*--------------------------------*- C++ -*----------------------------------*\
| =========                 |                                                 |
| \\      /  F ield         | foam-extend: Open Source CFD                    |
|  \\    /   O peration     | Version:     5.0                                |
|   \\  /    A nd           | Web:         http://www.foam-extend.org         |
|    \\/     M anipulation  |                                                 |
\*---------------------------------------------------------------------------*/
FoamFile
{
    version     2.0;
    format      ascii;
    class       volScalarField;
    location    "6";
    object      Na.water;
}
// * * * * * * * * * * * * * * * * * * * * * * * * * * * * * * * * * * * * * //

dimensions      [0 0 0 0 0 0 0];

internalField   nonuniform List<scalar> 
100
(
0.00442553
0.0059609
0.0069952
0.00761635
0.00815053
0.00899902
0.00957267
0.0100896
0.0105428
0.0109054
0.011213
0.011502
0.0118006
0.0120291
0.0122739
0.0125326
0.0126501
0.0128628
0.0130446
0.0131872
0.0133379
0.013478
0.0136453
0.013805
0.0139376
0.0140933
0.0142168
0.014328
0.0144539
0.0145981
0.0146866
0.0147869
0.0149091
0.0150085
0.0150875
0.0152025
0.0153326
0.0154772
0.015547
0.0156435
0.0157415
0.0158448
0.0159539
0.0160826
0.0162027
0.0163469
0.0165014
0.0166744
0.0168309
0.0170418
0.0172851
0.0176443
0.0181799
0.0190886
0.0210449
0.0213041
0.0213469
0.0213112
0.0212564
0.0212018
0.0211663
0.0211364
0.0211316
0.02113
0.0211247
0.0211225
0.0211149
0.0211049
0.0210948
0.0210893
0.0210869
0.021076
0.021071
0.0210806
0.0210726
0.0210457
0.0210432
0.0210274
0.0210147
0.0210125
0.0210339
0.0210312
0.0210535
0.0210932
0.0211141
0.0211262
0.0211563
0.0211995
0.0212703
0.0213517
0.0214366
0.021536
0.0216749
0.0218196
0.0219834
0.0221538
0.0223242
0.0224835
0.0226478
0.0227417
)
;

boundaryField
{
    inlet
    {
        type            fixedValue;
        value           uniform 0;
    }
    outlet
    {
        type            zeroGradient;
    }
    yzfaces
    {
        type            empty;
    }
}


// ************************************************************************* //
