/*--------------------------------*- C++ -*----------------------------------*\
| =========                 |                                                 |
| \\      /  F ield         | foam-extend: Open Source CFD                    |
|  \\    /   O peration     | Version:     5.0                                |
|   \\  /    A nd           | Web:         http://www.foam-extend.org         |
|    \\/     M anipulation  |                                                 |
\*---------------------------------------------------------------------------*/
FoamFile
{
    version     2.0;
    format      ascii;
    class       surfaceScalarField;
    location    "6";
    object      phi;
}
// * * * * * * * * * * * * * * * * * * * * * * * * * * * * * * * * * * * * * //

dimensions      [0 3 -1 0 0 0 0];

internalField   nonuniform List<scalar> 
99
(
1.22317e-06
1.22354e-06
1.21763e-06
1.23644e-06
1.22879e-06
1.23599e-06
1.22976e-06
1.23686e-06
1.23863e-06
1.24169e-06
1.23224e-06
1.23186e-06
1.23367e-06
1.224e-06
1.22314e-06
1.21883e-06
1.21315e-06
1.21746e-06
1.22617e-06
1.2183e-06
1.22209e-06
1.21559e-06
1.21367e-06
1.21817e-06
1.21789e-06
1.21569e-06
1.21804e-06
1.21512e-06
1.21487e-06
1.21163e-06
1.20569e-06
1.20814e-06
1.21077e-06
1.20992e-06
1.20895e-06
1.20816e-06
1.21008e-06
1.21217e-06
1.20856e-06
1.20957e-06
1.20618e-06
1.20781e-06
1.20629e-06
1.2054e-06
1.20646e-06
1.20489e-06
1.2051e-06
1.20749e-06
1.20789e-06
1.20716e-06
1.20179e-06
1.19966e-06
1.19908e-06
1.19679e-06
1.19341e-06
1.19606e-06
1.19817e-06
1.19755e-06
1.19784e-06
1.19946e-06
1.20089e-06
1.2012e-06
1.20247e-06
1.20278e-06
1.20265e-06
1.20143e-06
1.20029e-06
1.19906e-06
1.19655e-06
1.19636e-06
1.19711e-06
1.19757e-06
1.1995e-06
1.19833e-06
1.19914e-06
1.19855e-06
1.19726e-06
1.1978e-06
1.20083e-06
1.19813e-06
1.19841e-06
1.19852e-06
1.19937e-06
1.19766e-06
1.19679e-06
1.1963e-06
1.19523e-06
1.19815e-06
1.1979e-06
1.19756e-06
1.19564e-06
1.19713e-06
1.1975e-06
1.19932e-06
1.19896e-06
1.19697e-06
1.19661e-06
1.19715e-06
1.1949e-06
)
;

boundaryField
{
    inlet
    {
        type            calculated;
        value           uniform -1.225e-06;
    }
    outlet
    {
        type            calculated;
        value           uniform 1.19653e-06;
    }
    yzfaces
    {
        type            empty;
    }
}


// ************************************************************************* //
