/*--------------------------------*- C++ -*----------------------------------*\
| =========                 |                                                 |
| \\      /  F ield         | foam-extend: Open Source CFD                    |
|  \\    /   O peration     | Version:     5.0                                |
|   \\  /    A nd           | Web:         http://www.foam-extend.org         |
|    \\/     M anipulation  |                                                 |
\*---------------------------------------------------------------------------*/
FoamFile
{
    version     2.0;
    format      ascii;
    class       surfaceScalarField;
    location    "6";
    object      phi.water;
}
// * * * * * * * * * * * * * * * * * * * * * * * * * * * * * * * * * * * * * //

dimensions      [0 3 -1 0 0 0 0];

internalField   nonuniform List<scalar> 
99
(
8.73318e-08
1.53184e-07
2.1644e-07
2.539e-07
2.81927e-07
3.47087e-07
4.10027e-07
4.68392e-07
5.22983e-07
5.74974e-07
6.12713e-07
6.65758e-07
7.14359e-07
7.49883e-07
7.99697e-07
8.37226e-07
8.74848e-07
9.32962e-07
9.72889e-07
9.94583e-07
1.03494e-06
1.06251e-06
1.11118e-06
1.16301e-06
1.19784e-06
1.23422e-06
1.28336e-06
1.32014e-06
1.36061e-06
1.39594e-06
1.43596e-06
1.48847e-06
1.53468e-06
1.56949e-06
1.60743e-06
1.65393e-06
1.70193e-06
1.75256e-06
1.79215e-06
1.84147e-06
1.8804e-06
1.93779e-06
1.98546e-06
2.04389e-06
2.11332e-06
2.17569e-06
2.25871e-06
2.34906e-06
2.45381e-06
2.57725e-06
2.73355e-06
2.96113e-06
3.33231e-06
3.98832e-06
5.77478e-06
5.45588e-06
5.29556e-06
5.18924e-06
5.11981e-06
5.07518e-06
5.04498e-06
5.02139e-06
5.00885e-06
5.00071e-06
4.99613e-06
4.98924e-06
4.98577e-06
4.98101e-06
4.96931e-06
4.96665e-06
4.96588e-06
4.96278e-06
4.96074e-06
4.94641e-06
4.94439e-06
4.93578e-06
4.92273e-06
4.92215e-06
4.93495e-06
4.92017e-06
4.92303e-06
4.92859e-06
4.93805e-06
4.94031e-06
4.95681e-06
4.9807e-06
5.00795e-06
5.05837e-06
5.10026e-06
5.15409e-06
5.21247e-06
5.29437e-06
5.37854e-06
5.47642e-06
5.56731e-06
5.65084e-06
5.73662e-06
5.81261e-06
5.86305e-06
)
;

boundaryField
{
    inlet
    {
        type            fixedValue;
        value           uniform 0;
    }
    outlet
    {
        type            calculated;
        value           uniform 5.93108e-06;
    }
    yzfaces
    {
        type            empty;
    }
}


// ************************************************************************* //
