/*--------------------------------*- C++ -*----------------------------------*\
| =========                 |                                                 |
| \\      /  F ield         | foam-extend: Open Source CFD                    |
|  \\    /   O peration     | Version:     5.0                                |
|   \\  /    A nd           | Web:         http://www.foam-extend.org         |
|    \\/     M anipulation  |                                                 |
\*---------------------------------------------------------------------------*/
FoamFile
{
    version     2.0;
    format      ascii;
    class       volVectorField;
    location    "6";
    object      U.gas;
}
// * * * * * * * * * * * * * * * * * * * * * * * * * * * * * * * * * * * * * //

dimensions      [0 1 -1 0 0 0 0];

internalField   nonuniform List<vector> 
100
(
(0.00617872 0 0)
(0.00672473 0 0)
(0.00715215 0 0)
(0.00743084 0 0)
(0.0076937 0 0)
(0.00808369 0 0)
(0.00842938 0 0)
(0.00871958 0 0)
(0.00900621 0 0)
(0.00924571 0 0)
(0.00940766 0 0)
(0.00958501 0 0)
(0.00976664 0 0)
(0.00989914 0 0)
(0.0100402 0 0)
(0.0101504 0 0)
(0.0102456 0 0)
(0.0104171 0 0)
(0.0105718 0 0)
(0.0106583 0 0)
(0.0107501 0 0)
(0.0108378 0 0)
(0.0109431 0 0)
(0.0110786 0 0)
(0.0111802 0 0)
(0.0112744 0 0)
(0.0113845 0 0)
(0.0114682 0 0)
(0.0115458 0 0)
(0.0116135 0 0)
(0.0116636 0 0)
(0.0117492 0 0)
(0.0118504 0 0)
(0.0119166 0 0)
(0.0119858 0 0)
(0.0120688 0 0)
(0.0121533 0 0)
(0.012248 0 0)
(0.0123041 0 0)
(0.0123645 0 0)
(0.0124129 0 0)
(0.0124871 0 0)
(0.0125511 0 0)
(0.0126205 0 0)
(0.0127041 0 0)
(0.0127691 0 0)
(0.0128605 0 0)
(0.0129547 0 0)
(0.0130748 0 0)
(0.0131829 0 0)
(0.0132941 0 0)
(0.0134304 0 0)
(0.0136811 0 0)
(0.0140652 0 0)
(0.0160779 0 0)
(0.00740789 0 0)
(0.00884296 0 0)
(0.00948006 0 0)
(0.0098346 0 0)
(0.010076 0 0)
(0.0102504 0 0)
(0.0103705 0 0)
(0.010449 0 0)
(0.010503 0 0)
(0.0105314 0 0)
(0.0105406 0 0)
(0.0105372 0 0)
(0.0105298 0 0)
(0.0105168 0 0)
(0.0105137 0 0)
(0.0105234 0 0)
(0.0105396 0 0)
(0.0105637 0 0)
(0.0105847 0 0)
(0.0106035 0 0)
(0.0106239 0 0)
(0.0106339 0 0)
(0.0106491 0 0)
(0.0106805 0 0)
(0.0106877 0 0)
(0.0106833 0 0)
(0.0106771 0 0)
(0.010669 0 0)
(0.0106377 0 0)
(0.0105926 0 0)
(0.0105385 0 0)
(0.0104692 0 0)
(0.0103922 0 0)
(0.010289 0 0)
(0.010147 0 0)
(0.00995675 0 0)
(0.00972968 0 0)
(0.00945272 0 0)
(0.0091139 0 0)
(0.00870022 0 0)
(0.00820414 0 0)
(0.00764778 0 0)
(0.00706609 0 0)
(0.00648809 0 0)
(0.00596224 0 0)
)
;

boundaryField
{
    inlet
    {
        type            fixedValue;
        value           uniform (0.005 0 0);
    }
    outlet
    {
        type            zeroGradient;
    }
    yzfaces
    {
        type            empty;
    }
}


// ************************************************************************* //
