/*--------------------------------*- C++ -*----------------------------------*\
| =========                 |                                                 |
| \\      /  F ield         | foam-extend: Open Source CFD                    |
|  \\    /   O peration     | Version:     5.0                                |
|   \\  /    A nd           | Web:         http://www.foam-extend.org         |
|    \\/     M anipulation  |                                                 |
\*---------------------------------------------------------------------------*/
FoamFile
{
    version     2.0;
    format      ascii;
    class       volScalarField;
    location    "3";
    object      Cl.water;
}
// * * * * * * * * * * * * * * * * * * * * * * * * * * * * * * * * * * * * * //

dimensions      [0 0 0 0 0 0 0];

internalField   nonuniform List<scalar> 
100
(
0.0112398
0.0146231
0.0167552
0.0182298
0.0195471
0.0205112
0.0213435
0.022102
0.0227922
0.0234426
0.0240259
0.0244758
0.0249229
0.0254013
0.0258441
0.026082
0.0264701
0.0267789
0.0270638
0.0274363
0.0277173
0.0280062
0.0283163
0.028526
0.0287733
0.0289755
0.0291516
0.0294306
0.0296264
0.0298876
0.0301448
0.0302787
0.0305266
0.0307029
0.0309143
0.0311371
0.0312855
0.0315017
0.0317047
0.0319625
0.032208
0.032403
0.0326398
0.0337992
0.0340587
0.0343504
0.03462
0.0349006
0.0351769
0.0354651
0.0357831
0.0361507
0.0365318
0.0369442
0.0374
0.0378724
0.0382855
0.0386951
0.0390285
0.0392961
0.0395618
0.0397443
0.0398493
0.0398919
0.0398866
0.0399527
0.0399851
0.0400017
0.040023
0.0400291
0.0400235
0.0400662
0.040026
0.0400357
0.0400224
0.0400068
0.0399885
0.0399901
0.0399712
0.0399822
0.0400025
0.0400173
0.039992
0.0400034
0.0399966
0.0400058
0.0400181
0.0400388
0.0400068
0.0400124
0.0400097
0.0400002
0.0400155
0.0399973
0.040035
0.0399851
0.0399759
0.0399725
0.0400122
0.0399828
)
;

boundaryField
{
    inlet
    {
        type            fixedValue;
        value           uniform 0;
    }
    outlet
    {
        type            zeroGradient;
    }
    yzfaces
    {
        type            empty;
    }
}


// ************************************************************************* //
