/*--------------------------------*- C++ -*----------------------------------*\
| =========                 |                                                 |
| \\      /  F ield         | foam-extend: Open Source CFD                    |
|  \\    /   O peration     | Version:     5.0                                |
|   \\  /    A nd           | Web:         http://www.foam-extend.org         |
|    \\/     M anipulation  |                                                 |
\*---------------------------------------------------------------------------*/
FoamFile
{
    version     2.0;
    format      ascii;
    class       volVectorField;
    location    "3";
    object      U.water;
}
// * * * * * * * * * * * * * * * * * * * * * * * * * * * * * * * * * * * * * //

dimensions      [0 1 -1 0 0 0 0];

internalField   nonuniform List<vector> 
100
(
(7.51141e-05 0 0)
(0.000180764 0 0)
(0.000269035 0 0)
(0.000349115 0 0)
(0.000429868 0 0)
(0.000506507 0 0)
(0.000580971 0 0)
(0.000654299 0 0)
(0.000724601 0 0)
(0.000786773 0 0)
(0.000842967 0 0)
(0.000905952 0 0)
(0.000971214 0 0)
(0.00103174 0 0)
(0.00108494 0 0)
(0.0011438 0 0)
(0.00120263 0 0)
(0.00125981 0 0)
(0.00132158 0 0)
(0.00138182 0 0)
(0.00144133 0 0)
(0.00150412 0 0)
(0.00156172 0 0)
(0.00161977 0 0)
(0.00167785 0 0)
(0.00173336 0 0)
(0.00179525 0 0)
(0.00185988 0 0)
(0.00191842 0 0)
(0.00198316 0 0)
(0.00204733 0 0)
(0.00210421 0 0)
(0.00215898 0 0)
(0.00222025 0 0)
(0.00228681 0 0)
(0.00235343 0 0)
(0.00241475 0 0)
(0.00247913 0 0)
(0.00254775 0 0)
(0.00262313 0 0)
(0.00269986 0 0)
(0.00277626 0 0)
(0.00285824 0 0)
(0.00294376 0 0)
(0.00303648 0 0)
(0.00313294 0 0)
(0.0032355 0 0)
(0.00333963 0 0)
(0.00344619 0 0)
(0.00356119 0 0)
(0.00368285 0 0)
(0.0038176 0 0)
(0.00396037 0 0)
(0.00410503 0 0)
(0.00425384 0 0)
(0.00440088 0 0)
(0.00453524 0 0)
(0.00465315 0 0)
(0.00474884 0 0)
(0.0048225 0 0)
(0.00487778 0 0)
(0.00491319 0 0)
(0.00493097 0 0)
(0.00494056 0 0)
(0.00495228 0 0)
(0.00495894 0 0)
(0.00496037 0 0)
(0.00496255 0 0)
(0.00496494 0 0)
(0.00496798 0 0)
(0.00497125 0 0)
(0.0049737 0 0)
(0.00497445 0 0)
(0.00497607 0 0)
(0.00497594 0 0)
(0.00497435 0 0)
(0.00496835 0 0)
(0.00496089 0 0)
(0.0049599 0 0)
(0.00496267 0 0)
(0.00496522 0 0)
(0.00496477 0 0)
(0.00496534 0 0)
(0.00496384 0 0)
(0.00495723 0 0)
(0.00495647 0 0)
(0.00495941 0 0)
(0.00495886 0 0)
(0.0049612 0 0)
(0.00496301 0 0)
(0.00495948 0 0)
(0.00495578 0 0)
(0.00495238 0 0)
(0.00494861 0 0)
(0.00494445 0 0)
(0.00493854 0 0)
(0.00493781 0 0)
(0.00494022 0 0)
(0.00494067 0 0)
(0.00494005 0 0)
)
;

boundaryField
{
    inlet
    {
        type            fixedValue;
        value           uniform (0 0 0);
    }
    outlet
    {
        type            zeroGradient;
    }
    yzfaces
    {
        type            empty;
    }
}


// ************************************************************************* //
