/*--------------------------------*- C++ -*----------------------------------*\
| =========                 |                                                 |
| \\      /  F ield         | foam-extend: Open Source CFD                    |
|  \\    /   O peration     | Version:     5.0                                |
|   \\  /    A nd           | Web:         http://www.foam-extend.org         |
|    \\/     M anipulation  |                                                 |
\*---------------------------------------------------------------------------*/
FoamFile
{
    version     2.0;
    format      ascii;
    class       volVectorField;
    location    "3";
    object      U.water;
}
// * * * * * * * * * * * * * * * * * * * * * * * * * * * * * * * * * * * * * //

dimensions      [0 1 -1 0 0 0 0];

internalField   nonuniform List<vector> 
100
(
(7.53279e-05 0 0)
(0.000180594 0 0)
(0.000263857 0 0)
(0.000338632 0 0)
(0.000422284 0 0)
(0.000499155 0 0)
(0.000569606 0 0)
(0.000643736 0 0)
(0.000717072 0 0)
(0.000781 0 0)
(0.000839887 0 0)
(0.000903511 0 0)
(0.000964249 0 0)
(0.00102737 0 0)
(0.00109077 0 0)
(0.00114993 0 0)
(0.00120961 0 0)
(0.00126819 0 0)
(0.00132496 0 0)
(0.00137987 0 0)
(0.00144267 0 0)
(0.00150297 0 0)
(0.00154922 0 0)
(0.00160494 0 0)
(0.00166009 0 0)
(0.00171607 0 0)
(0.00178038 0 0)
(0.00183585 0 0)
(0.00188643 0 0)
(0.0019448 0 0)
(0.00199988 0 0)
(0.00205563 0 0)
(0.00212162 0 0)
(0.00217803 0 0)
(0.00223452 0 0)
(0.00229682 0 0)
(0.00236215 0 0)
(0.00242835 0 0)
(0.00249481 0 0)
(0.00256809 0 0)
(0.00264212 0 0)
(0.00272183 0 0)
(0.00280512 0 0)
(0.00289371 0 0)
(0.00298305 0 0)
(0.00307608 0 0)
(0.00317446 0 0)
(0.00327766 0 0)
(0.00339027 0 0)
(0.00350888 0 0)
(0.00363592 0 0)
(0.00376768 0 0)
(0.0039075 0 0)
(0.00405553 0 0)
(0.00420321 0 0)
(0.00434301 0 0)
(0.00447695 0 0)
(0.00459246 0 0)
(0.00467891 0 0)
(0.00474419 0 0)
(0.00479358 0 0)
(0.00482749 0 0)
(0.00485074 0 0)
(0.00486693 0 0)
(0.00487798 0 0)
(0.0048851 0 0)
(0.00488599 0 0)
(0.00487976 0 0)
(0.0048787 0 0)
(0.00488492 0 0)
(0.00488662 0 0)
(0.00488547 0 0)
(0.00488452 0 0)
(0.00488458 0 0)
(0.00488291 0 0)
(0.00488031 0 0)
(0.00488037 0 0)
(0.00487979 0 0)
(0.00487953 0 0)
(0.00487774 0 0)
(0.0048748 0 0)
(0.00487572 0 0)
(0.00487176 0 0)
(0.00487176 0 0)
(0.00487646 0 0)
(0.00487214 0 0)
(0.00486959 0 0)
(0.00487551 0 0)
(0.00487978 0 0)
(0.00487708 0 0)
(0.00487956 0 0)
(0.0048878 0 0)
(0.00489105 0 0)
(0.00488875 0 0)
(0.00488697 0 0)
(0.00488771 0 0)
(0.00488458 0 0)
(0.00488554 0 0)
(0.00489175 0 0)
(0.00489555 0 0)
)
;

boundaryField
{
    inlet
    {
        type            fixedValue;
        value           uniform (0 0 0);
    }
    outlet
    {
        type            zeroGradient;
    }
    yzfaces
    {
        type            empty;
    }
}


// ************************************************************************* //
