/*--------------------------------*- C++ -*----------------------------------*\
| =========                 |                                                 |
| \\      /  F ield         | foam-extend: Open Source CFD                    |
|  \\    /   O peration     | Version:     5.0                                |
|   \\  /    A nd           | Web:         http://www.foam-extend.org         |
|    \\/     M anipulation  |                                                 |
\*---------------------------------------------------------------------------*/
FoamFile
{
    version     2.0;
    format      ascii;
    class       volScalarField;
    location    "1";
    object      alpha.gas;
}
// * * * * * * * * * * * * * * * * * * * * * * * * * * * * * * * * * * * * * //

dimensions      [0 0 0 0 0 0 0];

internalField   nonuniform List<scalar> 
100
(
0.115609
0.0973027
0.0861932
0.0784266
0.0724133
0.0672738
0.0628553
0.0592014
0.0557597
0.0525435
0.0496205
0.0467622
0.0440402
0.0413182
0.0385913
0.035842
0.0330867
0.0302366
0.0273163
0.0243298
0.0213706
0.0185487
0.0160196
0.01394
0.0124031
0.0113837
0.0107587
0.0104035
0.0102116
0.0101092
0.0100529
0.0100265
0.0100142
0.0100083
0.0100054
0.0100046
0.010003
0.0100009
0.00999897
0.00999822
0.00999789
0.00999823
0.00999721
0.00999887
0.00999907
0.0100016
0.0100014
0.0100003
0.0100028
0.0100002
0.00999797
0.00999763
0.00999554
0.00999784
0.00999877
0.00999838
0.00999892
0.00999922
0.00999824
0.00999857
0.00999948
0.010001
0.0100008
0.0100039
0.010002
0.0100007
0.0100018
0.0100016
0.0100012
0.00999907
0.00999824
0.0100007
0.00999849
0.00999806
0.00999754
0.00999802
0.00999912
0.00999997
0.0100007
0.01
0.00999905
0.00999896
0.00999846
0.00999819
0.00999829
0.00999758
0.00999681
0.00999664
0.00999771
0.00999856
0.00999978
0.00999987
0.00999829
0.00999577
0.00999566
0.00999673
0.0099976
0.00999837
0.00999943
0.00999972
)
;

boundaryField
{
    inlet
    {
        type            fixedValue;
        value           uniform 0.2;
    }
    outlet
    {
        type            zeroGradient;
    }
    yzfaces
    {
        type            empty;
    }
}


// ************************************************************************* //
