/*--------------------------------*- C++ -*----------------------------------*\
| =========                 |                                                 |
| \\      /  F ield         | foam-extend: Open Source CFD                    |
|  \\    /   O peration     | Version:     5.0                                |
|   \\  /    A nd           | Web:         http://www.foam-extend.org         |
|    \\/     M anipulation  |                                                 |
\*---------------------------------------------------------------------------*/
FoamFile
{
    version     2.0;
    format      ascii;
    class       volScalarField;
    location    "1";
    object      alpha.gas;
}
// * * * * * * * * * * * * * * * * * * * * * * * * * * * * * * * * * * * * * //

dimensions      [0 0 0 0 0 0 0];

internalField   nonuniform List<scalar> 
100
(
0.11553
0.0973961
0.0866431
0.0785672
0.0724365
0.0673785
0.0630859
0.0593059
0.0557599
0.0526926
0.049663
0.0467847
0.0439748
0.041205
0.0385009
0.0357661
0.0329866
0.0301179
0.0271942
0.024216
0.021256
0.0184395
0.015926
0.0138723
0.0123554
0.0113535
0.0107435
0.0103957
0.0102055
0.0101056
0.0100536
0.0100288
0.0100137
0.0100062
0.0100045
0.0100049
0.0100046
0.0100024
0.0100018
0.0100028
0.010002
0.0100034
0.0100018
0.0100011
0.0100005
0.0100016
0.0100004
0.00999975
0.00999801
0.00999678
0.00999657
0.00999624
0.00999746
0.00999801
0.00999824
0.00999921
0.00999955
0.00999872
0.00999884
0.00999877
0.00999927
0.010001
0.00999976
0.0100012
0.0100013
0.00999979
0.00999758
0.0099955
0.0099963
0.00999783
0.00999863
0.00999822
0.00999846
0.01
0.0099995
0.00999827
0.00999839
0.0099978
0.00999887
0.0099993
0.00999858
0.00999969
0.0099972
0.00999917
0.00999921
0.0100006
0.0100017
0.00999957
0.00999924
0.00999991
0.0099984
0.0099988
0.00999915
0.0100009
0.010001
0.0100003
0.0100011
0.0100015
0.00999875
0.0100017
)
;

boundaryField
{
    inlet
    {
        type            fixedValue;
        value           uniform 0.2;
    }
    outlet
    {
        type            zeroGradient;
    }
    yzfaces
    {
        type            empty;
    }
}


// ************************************************************************* //
