/*--------------------------------*- C++ -*----------------------------------*\
| =========                 |                                                 |
| \\      /  F ield         | foam-extend: Open Source CFD                    |
|  \\    /   O peration     | Version:     5.0                                |
|   \\  /    A nd           | Web:         http://www.foam-extend.org         |
|    \\/     M anipulation  |                                                 |
\*---------------------------------------------------------------------------*/
FoamFile
{
    version     2.0;
    format      ascii;
    class       volScalarField;
    location    "1";
    object      alpha.gas;
}
// * * * * * * * * * * * * * * * * * * * * * * * * * * * * * * * * * * * * * //

dimensions      [0 0 0 0 0 0 0];

internalField   nonuniform List<scalar> 
100
(
0.11558
0.097257
0.0861484
0.078312
0.0722664
0.0674288
0.0629333
0.059138
0.0556777
0.0525437
0.0496539
0.0467949
0.0440009
0.0412642
0.0385342
0.0358169
0.0330167
0.0301479
0.0272202
0.0242502
0.0212922
0.0184753
0.0159506
0.0138919
0.012373
0.0113621
0.0107478
0.0103961
0.0102087
0.0101066
0.0100529
0.0100261
0.010015
0.0100087
0.0100057
0.0100033
0.0100025
0.0100018
0.0100004
0.00999828
0.00999848
0.00999734
0.00999767
0.00999823
0.0099975
0.00999891
0.0100015
0.0100021
0.0100035
0.0100014
0.0099998
0.0100002
0.00999955
0.00999759
0.00999514
0.00999753
0.00999869
0.00999836
0.00999817
0.00999931
0.0099991
0.009999
0.0100008
0.010001
0.0100015
0.0100018
0.010001
0.00999946
0.00999821
0.00999913
0.00999993
0.0099988
0.0100008
0.00999967
0.00999884
0.00999996
0.00999981
0.00999931
0.010001
0.0100007
0.00999977
0.00999871
0.00999848
0.00999813
0.00999568
0.00999716
0.00999637
0.00999762
0.00999722
0.00999996
0.00999887
0.0099987
0.00999794
0.0100001
0.0100018
0.01
0.0100011
0.0100017
0.0100018
0.0100015
)
;

boundaryField
{
    inlet
    {
        type            fixedValue;
        value           uniform 0.2;
    }
    outlet
    {
        type            zeroGradient;
    }
    yzfaces
    {
        type            empty;
    }
}


// ************************************************************************* //
