/*--------------------------------*- C++ -*----------------------------------*\
| =========                 |                                                 |
| \\      /  F ield         | foam-extend: Open Source CFD                    |
|  \\    /   O peration     | Version:     5.0                                |
|   \\  /    A nd           | Web:         http://www.foam-extend.org         |
|    \\/     M anipulation  |                                                 |
\*---------------------------------------------------------------------------*/
FoamFile
{
    version     2.0;
    format      ascii;
    class       volScalarField;
    location    "1";
    object      Cl.water;
}
// * * * * * * * * * * * * * * * * * * * * * * * * * * * * * * * * * * * * * //

dimensions      [0 0 0 0 0 0 0];

internalField   nonuniform List<scalar> 
100
(
0.009691
0.0117991
0.0130658
0.0139614
0.0146515
0.0152337
0.0157407
0.0161711
0.0165637
0.0169335
0.0172715
0.0175961
0.0179126
0.0182177
0.0185206
0.01879
0.0188739
0.0204715
0.0208799
0.0212554
0.0216323
0.0219598
0.0222524
0.0225198
0.0227264
0.0228472
0.0229132
0.0229642
0.0229844
0.0229956
0.0229969
0.022989
0.0229966
0.0229838
0.0229837
0.023012
0.0230113
0.0230158
0.0229887
0.0229766
0.0229965
0.0229947
0.0230078
0.0229948
0.022987
0.0229905
0.0229992
0.0230092
0.0230018
0.0230069
0.0230285
0.0230025
0.0230011
0.022997
0.0229946
0.0229979
0.0230065
0.0230166
0.0229917
0.0229846
0.0229883
0.0229785
0.0229955
0.0230057
0.0230126
0.022999
0.0230128
0.0230203
0.0229995
0.023001
0.0229892
0.0229891
0.0229963
0.0229909
0.022998
0.0229973
0.0229871
0.0230075
0.0230182
0.0230132
0.023018
0.0230191
0.0230044
0.0230103
0.0230103
0.0229918
0.0230011
0.0229885
0.023009
0.0230088
0.0229922
0.0229803
0.0229742
0.0229815
0.0229756
0.022988
0.0230013
0.0229864
0.0230126
0.0229926
)
;

boundaryField
{
    inlet
    {
        type            fixedValue;
        value           uniform 0;
    }
    outlet
    {
        type            zeroGradient;
    }
    yzfaces
    {
        type            empty;
    }
}


// ************************************************************************* //
