/*--------------------------------*- C++ -*----------------------------------*\
| =========                 |                                                 |
| \\      /  F ield         | foam-extend: Open Source CFD                    |
|  \\    /   O peration     | Version:     5.0                                |
|   \\  /    A nd           | Web:         http://www.foam-extend.org         |
|    \\/     M anipulation  |                                                 |
\*---------------------------------------------------------------------------*/
FoamFile
{
    version     2.0;
    format      ascii;
    class       volScalarField;
    location    "1";
    object      Cl.water;
}
// * * * * * * * * * * * * * * * * * * * * * * * * * * * * * * * * * * * * * //

dimensions      [0 0 0 0 0 0 0];

internalField   nonuniform List<scalar> 
100
(
0.00969442
0.011807
0.0130772
0.013968
0.0146656
0.0152303
0.0157287
0.0161714
0.0165752
0.0169351
0.0172717
0.0175931
0.017906
0.0181757
0.0182622
0.0198385
0.0201895
0.0205581
0.0209129
0.0212751
0.0216379
0.021968
0.0222744
0.0225052
0.0226958
0.0228203
0.0229105
0.022961
0.02299
0.0229922
0.0229902
0.0229982
0.0229993
0.0230012
0.0230109
0.0230074
0.0230058
0.0230159
0.0230088
0.0230214
0.0230271
0.023003
0.0230072
0.0230091
0.0230009
0.0230041
0.0230031
0.0230012
0.0230111
0.0229975
0.0230137
0.0230008
0.0230146
0.023008
0.0230115
0.0230247
0.02301
0.0230093
0.0229947
0.0230106
0.0230109
0.0230052
0.0230095
0.0229998
0.0229906
0.0229947
0.0229951
0.0230125
0.0230055
0.0229993
0.023007
0.0230088
0.0229895
0.0230069
0.0229812
0.022999
0.0230047
0.0229855
0.0229951
0.0230086
0.0230017
0.0230132
0.0229899
0.0230108
0.0230004
0.0230053
0.022987
0.0229822
0.0229807
0.0229929
0.0229963
0.0229934
0.0229978
0.022983
0.0229765
0.0229983
0.0229992
0.0230093
0.023008
0.0229969
)
;

boundaryField
{
    inlet
    {
        type            fixedValue;
        value           uniform 0;
    }
    outlet
    {
        type            zeroGradient;
    }
    yzfaces
    {
        type            empty;
    }
}


// ************************************************************************* //
