/*--------------------------------*- C++ -*----------------------------------*\
| =========                 |                                                 |
| \\      /  F ield         | foam-extend: Open Source CFD                    |
|  \\    /   O peration     | Version:     5.0                                |
|   \\  /    A nd           | Web:         http://www.foam-extend.org         |
|    \\/     M anipulation  |                                                 |
\*---------------------------------------------------------------------------*/
FoamFile
{
    version     2.0;
    format      ascii;
    class       volScalarField;
    location    "1";
    object      Cl.water;
}
// * * * * * * * * * * * * * * * * * * * * * * * * * * * * * * * * * * * * * //

dimensions      [0 0 0 0 0 0 0];

internalField   nonuniform List<scalar> 
100
(
0.00969523
0.0117859
0.0130247
0.0139395
0.0146513
0.0152286
0.0157199
0.016163
0.0165627
0.0169251
0.0172687
0.0175955
0.0179069
0.0181729
0.0182632
0.0198226
0.0201936
0.0205525
0.0209129
0.0212596
0.0216317
0.0219779
0.0222786
0.0225269
0.0227148
0.022833
0.0229085
0.0229594
0.0229805
0.0230034
0.0230132
0.0229929
0.0230071
0.0229897
0.0229862
0.0229909
0.0229892
0.0229826
0.022991
0.0229926
0.0230139
0.0229996
0.0230161
0.0229936
0.0229968
0.0230045
0.0230013
0.0230007
0.0230059
0.0229983
0.0229896
0.0229988
0.0229993
0.0229878
0.023006
0.0229984
0.0230014
0.0230023
0.023001
0.0230092
0.0230103
0.0229984
0.0230238
0.0230194
0.0230133
0.0230006
0.0230075
0.023005
0.0229999
0.0229946
0.0230091
0.0230179
0.0230054
0.0229807
0.0230143
0.0230183
0.023031
0.0230345
0.0230195
0.0230263
0.0230199
0.0230275
0.0230092
0.0229922
0.0229907
0.0229769
0.0229919
0.0229851
0.022976
0.0229841
0.022992
0.0229842
0.0229831
0.0229822
0.0229918
0.022992
0.0229864
0.0230017
0.0230045
0.0230078
)
;

boundaryField
{
    inlet
    {
        type            fixedValue;
        value           uniform 0;
    }
    outlet
    {
        type            zeroGradient;
    }
    yzfaces
    {
        type            empty;
    }
}


// ************************************************************************* //
