/*--------------------------------*- C++ -*----------------------------------*\
| =========                 |                                                 |
| \\      /  F ield         | foam-extend: Open Source CFD                    |
|  \\    /   O peration     | Version:     5.0                                |
|   \\  /    A nd           | Web:         http://www.foam-extend.org         |
|    \\/     M anipulation  |                                                 |
\*---------------------------------------------------------------------------*/
FoamFile
{
    version     2.0;
    format      ascii;
    class       volScalarField;
    location    "1";
    object      CO2.water;
}
// * * * * * * * * * * * * * * * * * * * * * * * * * * * * * * * * * * * * * //

dimensions      [0 0 0 0 0 0 0];

internalField   nonuniform List<scalar> 
100
(
0.00221726
0.0026985
0.00299026
0.00319608
0.00335487
0.00348192
0.00359999
0.00369967
0.00379056
0.00387287
0.00394877
0.00402386
0.00409724
0.00416912
0.00424083
0.000157009
3.37925e-05
7.91194e-06
2.0019e-06
5.3392e-07
1.3675e-07
3.23475e-08
6.98968e-09
1.47853e-09
6.93897e-10
3.70447e-10
1.98518e-10
1.0859e-10
6.09166e-11
3.46709e-11
1.98789e-11
1.1378e-11
6.46004e-12
3.63347e-12
2.01974e-12
1.10832e-12
5.97745e-13
3.21472e-13
1.66722e-13
8.48713e-14
4.23764e-14
2.09234e-14
1.02795e-14
5.00727e-15
2.43562e-15
1.18496e-15
5.76926e-16
2.78318e-16
1.32638e-16
6.26006e-17
2.91212e-17
1.34342e-17
6.09461e-18
2.72683e-18
1.20109e-18
5.17024e-19
2.15389e-19
8.60144e-20
3.38619e-20
1.32942e-20
5.23585e-21
2.06009e-21
8.11406e-22
3.18916e-22
1.2548e-22
4.93756e-23
1.94475e-23
7.66282e-24
3.00894e-24
1.18695e-24
4.67384e-25
1.83541e-25
7.23022e-26
2.84367e-26
1.12141e-26
4.41026e-27
1.73936e-27
6.85332e-28
2.7094e-28
1.06889e-28
4.21416e-29
1.65976e-29
6.55367e-30
2.58071e-30
1.01771e-30
4.00626e-31
1.57746e-31
6.21371e-32
2.44801e-32
9.64061e-33
3.7984e-33
1.49404e-33
5.88647e-34
2.31389e-34
9.1212e-35
3.59435e-35
1.41713e-35
5.59526e-36
2.20739e-36
1.08208e-36
)
;

boundaryField
{
    inlet
    {
        type            fixedValue;
        value           uniform 0;
    }
    outlet
    {
        type            zeroGradient;
    }
    yzfaces
    {
        type            empty;
    }
}


// ************************************************************************* //
