/*--------------------------------*- C++ -*----------------------------------*\
| =========                 |                                                 |
| \\      /  F ield         | foam-extend: Open Source CFD                    |
|  \\    /   O peration     | Version:     5.0                                |
|   \\  /    A nd           | Web:         http://www.foam-extend.org         |
|    \\/     M anipulation  |                                                 |
\*---------------------------------------------------------------------------*/
FoamFile
{
    version     2.0;
    format      ascii;
    class       volScalarField;
    location    "1";
    object      CO2.water;
}
// * * * * * * * * * * * * * * * * * * * * * * * * * * * * * * * * * * * * * //

dimensions      [0 0 0 0 0 0 0];

internalField   nonuniform List<scalar> 
100
(
0.00221855
0.00269484
0.00297727
0.00318938
0.0033504
0.00348324
0.00359599
0.00369527
0.0037884
0.00386896
0.00394853
0.00402413
0.00409793
0.00417068
0.0042417
0.000157273
3.37326e-05
7.80046e-06
1.92579e-06
4.91739e-07
1.13982e-07
2.12764e-08
2.03105e-09
0
0
4.17101e-12
7.26712e-11
6.92283e-11
5.06077e-11
3.30323e-11
2.03554e-11
1.20759e-11
6.98542e-12
3.96568e-12
2.2112e-12
1.22496e-12
6.68737e-13
3.57397e-13
1.86877e-13
9.64802e-14
4.93552e-14
2.50577e-14
1.26586e-14
6.36833e-15
3.20313e-15
1.60717e-15
8.05125e-16
4.03063e-16
2.02056e-16
1.00936e-16
5.04793e-17
2.51375e-17
1.24312e-17
6.13296e-18
3.01935e-18
1.47927e-18
7.22148e-19
3.50229e-19
1.68552e-19
8.06309e-20
3.83733e-20
1.8219e-20
8.59613e-21
4.04662e-21
1.90118e-21
8.90909e-22
4.17679e-22
1.95152e-22
9.13678e-23
4.26856e-23
2.00479e-23
9.38562e-24
4.36859e-24
2.02087e-24
9.32252e-25
4.26357e-25
1.94604e-25
8.83282e-26
3.99673e-26
1.80634e-26
8.12717e-27
3.65323e-27
1.63417e-27
7.31325e-28
3.25146e-28
1.44969e-28
6.43923e-29
2.85939e-29
1.26701e-29
5.58972e-30
2.4623e-30
1.08248e-30
4.75836e-31
2.08567e-31
9.12363e-32
3.99157e-32
1.74637e-32
7.60817e-33
3.31888e-33
1.84539e-33
)
;

boundaryField
{
    inlet
    {
        type            fixedValue;
        value           uniform 0;
    }
    outlet
    {
        type            zeroGradient;
    }
    yzfaces
    {
        type            empty;
    }
}


// ************************************************************************* //
