/*--------------------------------*- C++ -*----------------------------------*\
| =========                 |                                                 |
| \\      /  F ield         | foam-extend: Open Source CFD                    |
|  \\    /   O peration     | Version:     5.0                                |
|   \\  /    A nd           | Web:         http://www.foam-extend.org         |
|    \\/     M anipulation  |                                                 |
\*---------------------------------------------------------------------------*/
FoamFile
{
    version     2.0;
    format      ascii;
    class       volScalarField;
    location    "1";
    object      H2O.gas;
}
// * * * * * * * * * * * * * * * * * * * * * * * * * * * * * * * * * * * * * //

dimensions      [0 0 0 0 0 0 0];

internalField   nonuniform List<scalar> 
100
(
0.000224992
0.000189676
0.000168735
0.000153007
0.000141068
0.000131218
0.000122858
0.000115496
0.000108591
0.000102617
9.67173e-05
9.11119e-05
8.56397e-05
8.02455e-05
7.49793e-05
0.00829548
0.0114814
0.0139651
0.0156598
0.016478
0.0164778
0.015765
0.0145904
0.0132868
0.0121351
0.0112785
0.0107222
0.0103942
0.0102078
0.0101091
0.0100597
0.0100245
0.0100131
0.00999959
0.00999733
0.0100004
0.00999955
0.00999401
0.00999619
0.00999899
0.0100088
0.010001
0.0100064
0.00999543
0.00999755
0.010001
0.00999675
0.00999682
0.00999812
0.00999537
0.00999133
0.0099955
0.00999586
0.00998918
0.00999648
0.00999504
0.00999821
0.00999949
0.0100004
0.0100029
0.0100031
0.0100005
0.0100116
0.0100102
0.0100086
0.0100014
0.0100049
0.0100019
0.0099968
0.00999204
0.00999805
0.0100015
0.00999762
0.00999171
0.0100048
0.0100075
0.0100116
0.0100099
0.0100033
0.0100068
0.0100025
0.0100078
0.010001
0.00999395
0.00999458
0.00998985
0.0100001
0.00999993
0.00999367
0.00999783
0.00999675
0.00999255
0.00999095
0.00998902
0.00999487
0.00999521
0.00999523
0.0100028
0.0100022
0.0100057
)
;

boundaryField
{
    inlet
    {
        type            fixedValue;
        value           uniform 0;
    }
    outlet
    {
        type            zeroGradient;
    }
    yzfaces
    {
        type            empty;
    }
}


// ************************************************************************* //
