/*--------------------------------*- C++ -*----------------------------------*\
| =========                 |                                                 |
| \\      /  F ield         | foam-extend: Open Source CFD                    |
|  \\    /   O peration     | Version:     5.0                                |
|   \\  /    A nd           | Web:         http://www.foam-extend.org         |
|    \\/     M anipulation  |                                                 |
\*---------------------------------------------------------------------------*/
FoamFile
{
    version     2.0;
    format      ascii;
    class       volScalarField;
    location    "1";
    object      H2O.gas;
}
// * * * * * * * * * * * * * * * * * * * * * * * * * * * * * * * * * * * * * //

dimensions      [0 0 0 0 0 0 0];

internalField   nonuniform List<scalar> 
100
(
0.000225145
0.000189494
0.000167859
0.000152733
0.000141023
0.000131014
0.000122409
0.000115293
0.00010859
0.000102327
9.66344e-05
9.1068e-05
8.57669e-05
8.04659e-05
7.51554e-05
6.98013e-05
6.44354e-05
0.009346
0.0124425
0.0143987
0.0152499
0.0151061
0.0142835
0.0131736
0.0121114
0.0112868
0.0107306
0.0104026
0.0102144
0.0101121
0.0100552
0.0100231
0.0100117
0.0100006
0.00999573
0.0100096
0.0100079
0.0100099
0.00999431
0.0099882
0.00999834
0.00999818
0.0100012
0.00999666
0.00999252
0.00999593
0.00999872
0.0100031
0.0100042
0.0100062
0.0100149
0.0100026
0.00999872
0.00999664
0.00999668
0.00999772
0.0100022
0.0100072
0.00999676
0.00999635
0.00999372
0.00998872
0.00999686
0.010005
0.0100062
0.01
0.0100041
0.0100071
0.00999822
0.00999929
0.00999546
0.00999694
0.00999859
0.00999427
0.00999497
0.00999233
0.00999178
0.00999943
0.0100043
0.0100052
0.0100051
0.0100073
0.00999896
0.0100036
0.0100015
0.00999616
0.00999795
0.00999503
0.0100035
0.0100044
0.00999817
0.00999387
0.00999053
0.00998871
0.00998638
0.00999621
0.0100007
0.00999442
0.0100061
0.00999321
)
;

boundaryField
{
    inlet
    {
        type            fixedValue;
        value           uniform 0;
    }
    outlet
    {
        type            zeroGradient;
    }
    yzfaces
    {
        type            empty;
    }
}


// ************************************************************************* //
