/*--------------------------------*- C++ -*----------------------------------*\
| =========                 |                                                 |
| \\      /  F ield         | foam-extend: Open Source CFD                    |
|  \\    /   O peration     | Version:     5.0                                |
|   \\  /    A nd           | Web:         http://www.foam-extend.org         |
|    \\/     M anipulation  |                                                 |
\*---------------------------------------------------------------------------*/
FoamFile
{
    version     2.0;
    format      ascii;
    class       volScalarField;
    location    "1";
    object      H2O.gas;
}
// * * * * * * * * * * * * * * * * * * * * * * * * * * * * * * * * * * * * * //

dimensions      [0 0 0 0 0 0 0];

internalField   nonuniform List<scalar> 
100
(
0.000225088
0.000189405
0.000167771
0.00015251
0.000140737
0.000131316
0.000122561
0.00011517
0.000108431
0.000102327
9.66996e-05
9.11317e-05
8.56905e-05
8.03609e-05
7.50442e-05
0.00830794
0.0114796
0.0139732
0.015661
0.0164987
0.0165009
0.0157788
0.0146055
0.0132896
0.0121384
0.0112798
0.0107282
0.010396
0.0102136
0.0101094
0.0100517
0.0100258
0.0100147
0.010007
0.0100078
0.0100044
0.0100037
0.0100081
0.0100042
0.0100075
0.0100096
0.00999729
0.00999932
0.0100022
0.00999773
0.0100003
0.0100025
0.0100024
0.010008
0.00999918
0.0100059
0.0100008
0.0100047
0.0099985
0.00999801
0.0100052
0.0100023
0.0100001
0.00999505
0.0100045
0.0100062
0.0100024
0.0100076
0.0100018
0.00999758
0.00999874
0.00999902
0.0100057
0.00999851
0.00999816
0.0100027
0.0100024
0.00999377
0.0100007
0.00999048
0.00999938
0.010003
0.00999519
0.0100005
0.0100055
0.0100013
0.0100063
0.00999709
0.0100048
0.00999854
0.0100047
0.00999533
0.00998992
0.00998763
0.00999653
0.00999827
0.00999794
0.00999797
0.00999246
0.00999096
0.0099984
0.0100007
0.0100076
0.0100046
0.0100011
)
;

boundaryField
{
    inlet
    {
        type            fixedValue;
        value           uniform 0;
    }
    outlet
    {
        type            zeroGradient;
    }
    yzfaces
    {
        type            empty;
    }
}


// ************************************************************************* //
