/*--------------------------------*- C++ -*----------------------------------*\
| =========                 |                                                 |
| \\      /  F ield         | foam-extend: Open Source CFD                    |
|  \\    /   O peration     | Version:     5.0                                |
|   \\  /    A nd           | Web:         http://www.foam-extend.org         |
|    \\/     M anipulation  |                                                 |
\*---------------------------------------------------------------------------*/
FoamFile
{
    version     2.0;
    format      ascii;
    class       volScalarField;
    location    "1";
    object      Na.water;
}
// * * * * * * * * * * * * * * * * * * * * * * * * * * * * * * * * * * * * * //

dimensions      [0 0 0 0 0 0 0];

internalField   nonuniform List<scalar> 
100
(
0.00968833
0.0117945
0.0130666
0.0139597
0.0146562
0.0152439
0.0157437
0.0161681
0.016559
0.0169268
0.0172695
0.0175903
0.0179105
0.0182213
0.0185233
0.0187867
0.0188728
0.0204725
0.0208773
0.0212501
0.0216257
0.0219481
0.0222499
0.0225213
0.022727
0.0228534
0.022923
0.0229673
0.0229779
0.0229852
0.022987
0.0229813
0.022983
0.0229754
0.0229706
0.0230063
0.0230111
0.0230153
0.022983
0.0229722
0.0229937
0.022992
0.0230048
0.0229889
0.0229801
0.0229845
0.0229915
0.0230064
0.0230021
0.0230098
0.023038
0.0230107
0.0229961
0.0229858
0.0229851
0.0229915
0.0230114
0.0230206
0.0229986
0.0229962
0.0229949
0.0229823
0.0230021
0.023004
0.0230062
0.022993
0.0230035
0.023012
0.0229879
0.022997
0.0229832
0.0229811
0.0229865
0.022978
0.0229866
0.0229908
0.022992
0.02301
0.0230182
0.0230207
0.0230167
0.0230194
0.0230063
0.0230202
0.023018
0.0230069
0.0230091
0.023003
0.0230191
0.0230164
0.0229938
0.0229781
0.0229754
0.0229803
0.0229836
0.0230031
0.0230141
0.0229907
0.0230165
0.0229963
)
;

boundaryField
{
    inlet
    {
        type            fixedValue;
        value           uniform 0;
    }
    outlet
    {
        type            zeroGradient;
    }
    yzfaces
    {
        type            empty;
    }
}


// ************************************************************************* //
