/*--------------------------------*- C++ -*----------------------------------*\
| =========                 |                                                 |
| \\      /  F ield         | foam-extend: Open Source CFD                    |
|  \\    /   O peration     | Version:     5.0                                |
|   \\  /    A nd           | Web:         http://www.foam-extend.org         |
|    \\/     M anipulation  |                                                 |
\*---------------------------------------------------------------------------*/
FoamFile
{
    version     2.0;
    format      ascii;
    class       volScalarField;
    location    "1";
    object      Na.water;
}
// * * * * * * * * * * * * * * * * * * * * * * * * * * * * * * * * * * * * * //

dimensions      [0 0 0 0 0 0 0];

internalField   nonuniform List<scalar> 
100
(
0.00969307
0.0117965
0.0130755
0.0139688
0.0146676
0.0152315
0.0157359
0.0161746
0.0165635
0.01693
0.0172718
0.0175917
0.0178993
0.0181693
0.0182589
0.019839
0.020194
0.0205668
0.0209161
0.0212819
0.0216417
0.0219739
0.0222815
0.0225156
0.0227073
0.0228329
0.0229249
0.0229694
0.0229973
0.0229949
0.0229925
0.0230024
0.0230039
0.0230021
0.0230067
0.023006
0.0230078
0.0230086
0.0230028
0.0230188
0.0230343
0.0230045
0.0230065
0.0230184
0.0230071
0.0230116
0.0230033
0.0229959
0.0230006
0.0229852
0.0230119
0.0229991
0.0230124
0.0230027
0.0230036
0.0230164
0.023006
0.0230031
0.0229926
0.0230115
0.0230148
0.0230092
0.0230207
0.0230141
0.0229979
0.023002
0.0229984
0.0230093
0.0230016
0.0230025
0.023015
0.0230138
0.0229904
0.0230109
0.0229848
0.0229993
0.0230053
0.0229913
0.0229992
0.0230114
0.0229986
0.0230137
0.0229919
0.0230091
0.0230029
0.0230115
0.0229963
0.0229783
0.0229745
0.0229933
0.0229925
0.0229946
0.0229962
0.0229843
0.0229794
0.023002
0.0230046
0.0230217
0.0230136
0.0230099
)
;

boundaryField
{
    inlet
    {
        type            fixedValue;
        value           uniform 0;
    }
    outlet
    {
        type            zeroGradient;
    }
    yzfaces
    {
        type            empty;
    }
}


// ************************************************************************* //
