/*--------------------------------*- C++ -*----------------------------------*\
| =========                 |                                                 |
| \\      /  F ield         | foam-extend: Open Source CFD                    |
|  \\    /   O peration     | Version:     5.0                                |
|   \\  /    A nd           | Web:         http://www.foam-extend.org         |
|    \\/     M anipulation  |                                                 |
\*---------------------------------------------------------------------------*/
FoamFile
{
    version     2.0;
    format      ascii;
    class       volScalarField;
    location    "1";
    object      Na.water;
}
// * * * * * * * * * * * * * * * * * * * * * * * * * * * * * * * * * * * * * //

dimensions      [0 0 0 0 0 0 0];

internalField   nonuniform List<scalar> 
100
(
0.00969344
0.0117842
0.0130266
0.0139412
0.0146459
0.0152256
0.0157193
0.0161567
0.016561
0.0169199
0.0172601
0.0175936
0.0179027
0.0181754
0.0182637
0.0198238
0.0201955
0.0205545
0.0209124
0.0212558
0.0216287
0.0219739
0.0222696
0.02252
0.0227083
0.0228224
0.0229
0.0229613
0.0229848
0.0229981
0.0230043
0.0229793
0.0229912
0.0229807
0.022981
0.0229865
0.0229808
0.0229736
0.022983
0.0229883
0.0230163
0.0229909
0.0230015
0.022981
0.0229798
0.0229897
0.0229835
0.0229897
0.0229997
0.022998
0.0229849
0.0229974
0.0229989
0.0229786
0.0229972
0.0229943
0.0230009
0.0230048
0.023007
0.0230173
0.0230093
0.0230053
0.0230271
0.0230205
0.0230109
0.0229937
0.0230108
0.0230091
0.0229997
0.0229877
0.0230091
0.0230142
0.0230062
0.0229856
0.023008
0.0230177
0.0230271
0.0230258
0.0230067
0.0230141
0.023007
0.0230197
0.0230091
0.0229839
0.0229822
0.0229621
0.0229852
0.0229867
0.0229765
0.0229839
0.0229909
0.0229867
0.0229815
0.0229773
0.0229908
0.0229899
0.0229905
0.0230078
0.0230068
0.0230012
)
;

boundaryField
{
    inlet
    {
        type            fixedValue;
        value           uniform 0;
    }
    outlet
    {
        type            zeroGradient;
    }
    yzfaces
    {
        type            empty;
    }
}


// ************************************************************************* //
