/*--------------------------------*- C++ -*----------------------------------*\
| =========                 |                                                 |
| \\      /  F ield         | foam-extend: Open Source CFD                    |
|  \\    /   O peration     | Version:     5.0                                |
|   \\  /    A nd           | Web:         http://www.foam-extend.org         |
|    \\/     M anipulation  |                                                 |
\*---------------------------------------------------------------------------*/
FoamFile
{
    version     2.0;
    format      ascii;
    class       surfaceScalarField;
    location    "1";
    object      phi;
}
// * * * * * * * * * * * * * * * * * * * * * * * * * * * * * * * * * * * * * //

dimensions      [0 3 -1 0 0 0 0];

internalField   nonuniform List<scalar> 
99
(
1.23032e-06
1.23214e-06
1.22875e-06
1.23079e-06
1.22881e-06
1.23008e-06
1.23306e-06
1.23025e-06
1.23004e-06
1.22485e-06
1.22373e-06
1.22101e-06
1.21978e-06
1.22094e-06
1.22017e-06
1.2208e-06
1.21963e-06
1.22065e-06
1.2209e-06
1.22159e-06
1.2216e-06
1.22169e-06
1.2215e-06
1.22293e-06
1.22453e-06
1.22481e-06
1.22548e-06
1.2268e-06
1.22757e-06
1.22748e-06
1.22645e-06
1.22504e-06
1.22355e-06
1.22329e-06
1.22309e-06
1.22218e-06
1.22077e-06
1.22083e-06
1.22209e-06
1.22336e-06
1.22406e-06
1.22364e-06
1.22509e-06
1.22699e-06
1.22909e-06
1.22887e-06
1.22726e-06
1.22705e-06
1.22741e-06
1.22745e-06
1.22892e-06
1.22958e-06
1.23026e-06
1.23219e-06
1.23287e-06
1.23168e-06
1.23326e-06
1.23377e-06
1.23192e-06
1.23151e-06
1.23295e-06
1.23275e-06
1.23245e-06
1.23175e-06
1.23162e-06
1.23058e-06
1.23224e-06
1.23234e-06
1.23272e-06
1.23309e-06
1.23157e-06
1.23292e-06
1.23133e-06
1.2317e-06
1.23347e-06
1.23118e-06
1.23078e-06
1.22769e-06
1.2277e-06
1.22739e-06
1.22741e-06
1.22744e-06
1.22602e-06
1.22605e-06
1.22532e-06
1.22508e-06
1.22615e-06
1.22609e-06
1.22557e-06
1.22495e-06
1.22519e-06
1.22404e-06
1.22454e-06
1.22471e-06
1.22387e-06
1.22649e-06
1.22661e-06
1.22729e-06
1.22742e-06
)
;

boundaryField
{
    inlet
    {
        type            calculated;
        value           uniform -1.225e-06;
    }
    outlet
    {
        type            calculated;
        value           uniform 1.22992e-06;
    }
    yzfaces
    {
        type            empty;
    }
}


// ************************************************************************* //
