/*--------------------------------*- C++ -*----------------------------------*\
| =========                 |                                                 |
| \\      /  F ield         | foam-extend: Open Source CFD                    |
|  \\    /   O peration     | Version:     5.0                                |
|   \\  /    A nd           | Web:         http://www.foam-extend.org         |
|    \\/     M anipulation  |                                                 |
\*---------------------------------------------------------------------------*/
FoamFile
{
    version     2.0;
    format      ascii;
    class       surfaceScalarField;
    location    "1";
    object      phi;
}
// * * * * * * * * * * * * * * * * * * * * * * * * * * * * * * * * * * * * * //

dimensions      [0 3 -1 0 0 0 0];

internalField   nonuniform List<scalar> 
99
(
1.22559e-06
1.2235e-06
1.22028e-06
1.22377e-06
1.22246e-06
1.21808e-06
1.22271e-06
1.22558e-06
1.22828e-06
1.22867e-06
1.22247e-06
1.22213e-06
1.22156e-06
1.22125e-06
1.22128e-06
1.21977e-06
1.22057e-06
1.22215e-06
1.22334e-06
1.22364e-06
1.22308e-06
1.22146e-06
1.22034e-06
1.2188e-06
1.21979e-06
1.21967e-06
1.2206e-06
1.21987e-06
1.22003e-06
1.21866e-06
1.21668e-06
1.21561e-06
1.21574e-06
1.21686e-06
1.21516e-06
1.21533e-06
1.21492e-06
1.21547e-06
1.21564e-06
1.2148e-06
1.21489e-06
1.21388e-06
1.21319e-06
1.21326e-06
1.21234e-06
1.21127e-06
1.21024e-06
1.21094e-06
1.2114e-06
1.2118e-06
1.20948e-06
1.21178e-06
1.21055e-06
1.20954e-06
1.21036e-06
1.21026e-06
1.21013e-06
1.21078e-06
1.21171e-06
1.21231e-06
1.21161e-06
1.21176e-06
1.21066e-06
1.20889e-06
1.20887e-06
1.20862e-06
1.20997e-06
1.21059e-06
1.20933e-06
1.21121e-06
1.2114e-06
1.20926e-06
1.21087e-06
1.21133e-06
1.21175e-06
1.20974e-06
1.20975e-06
1.20999e-06
1.21108e-06
1.21085e-06
1.21178e-06
1.21069e-06
1.21269e-06
1.21201e-06
1.21302e-06
1.2144e-06
1.21587e-06
1.21507e-06
1.216e-06
1.21711e-06
1.21587e-06
1.2145e-06
1.21492e-06
1.21395e-06
1.21529e-06
1.21536e-06
1.21583e-06
1.21598e-06
1.21699e-06
)
;

boundaryField
{
    inlet
    {
        type            calculated;
        value           uniform -1.225e-06;
    }
    outlet
    {
        type            calculated;
        value           uniform 1.21474e-06;
    }
    yzfaces
    {
        type            empty;
    }
}


// ************************************************************************* //
