/*--------------------------------*- C++ -*----------------------------------*\
| =========                 |                                                 |
| \\      /  F ield         | foam-extend: Open Source CFD                    |
|  \\    /   O peration     | Version:     5.0                                |
|   \\  /    A nd           | Web:         http://www.foam-extend.org         |
|    \\/     M anipulation  |                                                 |
\*---------------------------------------------------------------------------*/
FoamFile
{
    version     2.0;
    format      ascii;
    class       surfaceScalarField;
    location    "1";
    object      phi;
}
// * * * * * * * * * * * * * * * * * * * * * * * * * * * * * * * * * * * * * //

dimensions      [0 3 -1 0 0 0 0];

internalField   nonuniform List<scalar> 
99
(
1.22503e-06
1.22392e-06
1.22411e-06
1.22644e-06
1.22178e-06
1.22692e-06
1.22804e-06
1.22884e-06
1.23012e-06
1.23092e-06
1.22814e-06
1.23179e-06
1.23045e-06
1.23048e-06
1.23081e-06
1.23295e-06
1.2319e-06
1.23316e-06
1.23202e-06
1.23463e-06
1.23501e-06
1.2335e-06
1.23302e-06
1.23455e-06
1.23547e-06
1.23383e-06
1.23448e-06
1.23449e-06
1.23312e-06
1.23302e-06
1.23444e-06
1.23493e-06
1.23435e-06
1.23227e-06
1.2308e-06
1.23218e-06
1.23005e-06
1.22915e-06
1.22971e-06
1.23108e-06
1.23059e-06
1.23158e-06
1.23111e-06
1.23109e-06
1.22906e-06
1.22988e-06
1.22934e-06
1.22972e-06
1.23108e-06
1.23269e-06
1.2325e-06
1.23172e-06
1.2305e-06
1.23041e-06
1.23009e-06
1.23036e-06
1.2299e-06
1.23028e-06
1.22925e-06
1.22844e-06
1.22899e-06
1.2296e-06
1.23035e-06
1.23076e-06
1.23062e-06
1.23088e-06
1.22815e-06
1.22868e-06
1.22974e-06
1.22961e-06
1.22881e-06
1.22864e-06
1.22797e-06
1.22874e-06
1.22755e-06
1.2285e-06
1.23009e-06
1.23062e-06
1.22942e-06
1.22924e-06
1.22769e-06
1.22735e-06
1.2273e-06
1.22651e-06
1.22662e-06
1.22604e-06
1.22371e-06
1.22461e-06
1.22298e-06
1.22213e-06
1.221e-06
1.22196e-06
1.22341e-06
1.22461e-06
1.227e-06
1.2265e-06
1.22805e-06
1.22947e-06
1.22984e-06
)
;

boundaryField
{
    inlet
    {
        type            calculated;
        value           uniform -1.225e-06;
    }
    outlet
    {
        type            calculated;
        value           uniform 1.23239e-06;
    }
    yzfaces
    {
        type            empty;
    }
}


// ************************************************************************* //
