/*--------------------------------*- C++ -*----------------------------------*\
| =========                 |                                                 |
| \\      /  F ield         | foam-extend: Open Source CFD                    |
|  \\    /   O peration     | Version:     5.0                                |
|   \\  /    A nd           | Web:         http://www.foam-extend.org         |
|    \\/     M anipulation  |                                                 |
\*---------------------------------------------------------------------------*/
FoamFile
{
    version     2.0;
    format      ascii;
    class       surfaceScalarField;
    location    "1";
    object      phi.water;
}
// * * * * * * * * * * * * * * * * * * * * * * * * * * * * * * * * * * * * * //

dimensions      [0 3 -1 0 0 0 0];

internalField   nonuniform List<scalar> 
99
(
3.85241e-07
6.72778e-07
9.35322e-07
1.18508e-06
1.41416e-06
1.62609e-06
1.8692e-06
2.09565e-06
2.32613e-06
2.54887e-06
2.75466e-06
2.99146e-06
3.23207e-06
3.48427e-06
3.74611e-06
4.01021e-06
4.29488e-06
4.58809e-06
4.88405e-06
5.16917e-06
5.43165e-06
5.65203e-06
5.82587e-06
5.94339e-06
6.02478e-06
6.06703e-06
6.09388e-06
6.10342e-06
6.11213e-06
6.1113e-06
6.10443e-06
6.0998e-06
6.1012e-06
6.10636e-06
6.09702e-06
6.09822e-06
6.09468e-06
6.09667e-06
6.09664e-06
6.09032e-06
6.09364e-06
6.09145e-06
6.08679e-06
6.08753e-06
6.0838e-06
6.07811e-06
6.07316e-06
6.0756e-06
6.07856e-06
6.08018e-06
6.06769e-06
6.07963e-06
6.07332e-06
6.06892e-06
6.07118e-06
6.07031e-06
6.07142e-06
6.07675e-06
6.08049e-06
6.0802e-06
6.0773e-06
6.07825e-06
6.07335e-06
6.06776e-06
6.06877e-06
6.06694e-06
6.07084e-06
6.07341e-06
6.06924e-06
6.07801e-06
6.07753e-06
6.06972e-06
6.07851e-06
6.08128e-06
6.08389e-06
6.07035e-06
6.07138e-06
6.07379e-06
6.07646e-06
6.0747e-06
6.07853e-06
6.07391e-06
6.08425e-06
6.07954e-06
6.0845e-06
6.09261e-06
6.10468e-06
6.10316e-06
6.10653e-06
6.10928e-06
6.10218e-06
6.09518e-06
6.09948e-06
6.09787e-06
6.10265e-06
6.09986e-06
6.09993e-06
6.09966e-06
6.10667e-06
)
;

boundaryField
{
    inlet
    {
        type            fixedValue;
        value           uniform 0;
    }
    outlet
    {
        type            calculated;
        value           uniform 6.09632e-06;
    }
    yzfaces
    {
        type            empty;
    }
}


// ************************************************************************* //
