/*--------------------------------*- C++ -*----------------------------------*\
| =========                 |                                                 |
| \\      /  F ield         | foam-extend: Open Source CFD                    |
|  \\    /   O peration     | Version:     5.0                                |
|   \\  /    A nd           | Web:         http://www.foam-extend.org         |
|    \\/     M anipulation  |                                                 |
\*---------------------------------------------------------------------------*/
FoamFile
{
    version     2.0;
    format      ascii;
    class       surfaceScalarField;
    location    "1";
    object      phi.water;
}
// * * * * * * * * * * * * * * * * * * * * * * * * * * * * * * * * * * * * * //

dimensions      [0 3 -1 0 0 0 0];

internalField   nonuniform List<scalar> 
99
(
3.84556e-07
6.73472e-07
9.37008e-07
1.18212e-06
1.40837e-06
1.64649e-06
1.88167e-06
2.09775e-06
2.32462e-06
2.55434e-06
2.77515e-06
3.02046e-06
3.25353e-06
3.50524e-06
3.77047e-06
4.0517e-06
4.32852e-06
4.62355e-06
4.91145e-06
5.20979e-06
5.47847e-06
5.70497e-06
5.88261e-06
6.01217e-06
6.09422e-06
6.13308e-06
6.16202e-06
6.17608e-06
6.17803e-06
6.18209e-06
6.19346e-06
6.19833e-06
6.19722e-06
6.18919e-06
6.17801e-06
6.18047e-06
6.16854e-06
6.16708e-06
6.17585e-06
6.18117e-06
6.1757e-06
6.17952e-06
6.17786e-06
6.18102e-06
6.17181e-06
6.17466e-06
6.16929e-06
6.17003e-06
6.1758e-06
6.17914e-06
6.17864e-06
6.17886e-06
6.17478e-06
6.17585e-06
6.17407e-06
6.17384e-06
6.16879e-06
6.17219e-06
6.1702e-06
6.16737e-06
6.17326e-06
6.17565e-06
6.1754e-06
6.17478e-06
6.17467e-06
6.17674e-06
6.16104e-06
6.1653e-06
6.17221e-06
6.17157e-06
6.16889e-06
6.16704e-06
6.16372e-06
6.16841e-06
6.16305e-06
6.16929e-06
6.17573e-06
6.17496e-06
6.16714e-06
6.16548e-06
6.15675e-06
6.15675e-06
6.15743e-06
6.15257e-06
6.15528e-06
6.1531e-06
6.1414e-06
6.14453e-06
6.13394e-06
6.13208e-06
6.12987e-06
6.13666e-06
6.14426e-06
6.15083e-06
6.16082e-06
6.15448e-06
6.16328e-06
6.16937e-06
6.17189e-06
)
;

boundaryField
{
    inlet
    {
        type            fixedValue;
        value           uniform 0;
    }
    outlet
    {
        type            calculated;
        value           uniform 6.18914e-06;
    }
    yzfaces
    {
        type            empty;
    }
}


// ************************************************************************* //
