/*--------------------------------*- C++ -*----------------------------------*\
| =========                 |                                                 |
| \\      /  F ield         | foam-extend: Open Source CFD                    |
|  \\    /   O peration     | Version:     5.0                                |
|   \\  /    A nd           | Web:         http://www.foam-extend.org         |
|    \\/     M anipulation  |                                                 |
\*---------------------------------------------------------------------------*/
FoamFile
{
    version     2.0;
    format      ascii;
    class       volScalarField;
    location    "1";
    object      S.gas;
}
// * * * * * * * * * * * * * * * * * * * * * * * * * * * * * * * * * * * * * //

dimensions      [0 0 0 0 0 0 0];

internalField   nonuniform List<scalar> 
100
(
0.578046
0.486514
0.430966
0.392133
0.362066
0.336369
0.314276
0.296007
0.278798
0.262718
0.248102
0.233811
0.220201
0.206591
0.192956
0.17921
0.165434
0.151183
0.136581
0.121649
0.106853
0.0927435
0.080098
0.0697
0.0620157
0.0569185
0.0537933
0.0520176
0.0510582
0.050546
0.0502647
0.0501327
0.0500711
0.0500416
0.0500269
0.0500228
0.050015
0.0500047
0.0499949
0.0499911
0.0499894
0.0499911
0.049986
0.0499943
0.0499953
0.0500078
0.050007
0.0500014
0.0500138
0.050001
0.0499899
0.0499881
0.0499777
0.0499892
0.0499939
0.0499919
0.0499946
0.0499961
0.0499912
0.0499929
0.0499974
0.0500049
0.0500039
0.0500195
0.0500098
0.0500036
0.0500092
0.050008
0.0500061
0.0499954
0.0499912
0.0500036
0.0499924
0.0499903
0.0499877
0.0499901
0.0499956
0.0499999
0.0500036
0.0500001
0.0499953
0.0499948
0.0499923
0.049991
0.0499914
0.0499879
0.049984
0.0499832
0.0499885
0.0499928
0.0499989
0.0499993
0.0499914
0.0499789
0.0499783
0.0499836
0.049988
0.0499918
0.0499971
0.0499986
)
;

boundaryField
{
    inlet
    {
        type            calculated;
        value           uniform 1;
    }
    outlet
    {
        type            calculated;
        value           uniform 0.0499986;
    }
    yzfaces
    {
        type            empty;
    }
}


// ************************************************************************* //
