/*--------------------------------*- C++ -*----------------------------------*\
| =========                 |                                                 |
| \\      /  F ield         | foam-extend: Open Source CFD                    |
|  \\    /   O peration     | Version:     5.0                                |
|   \\  /    A nd           | Web:         http://www.foam-extend.org         |
|    \\/     M anipulation  |                                                 |
\*---------------------------------------------------------------------------*/
FoamFile
{
    version     2.0;
    format      ascii;
    class       volScalarField;
    location    "1";
    object      S.gas;
}
// * * * * * * * * * * * * * * * * * * * * * * * * * * * * * * * * * * * * * //

dimensions      [0 0 0 0 0 0 0];

internalField   nonuniform List<scalar> 
100
(
0.577898
0.486285
0.430742
0.39156
0.361332
0.337144
0.314666
0.29569
0.278389
0.262719
0.24827
0.233974
0.220004
0.206321
0.192671
0.179084
0.165084
0.15074
0.136101
0.121251
0.106461
0.0923763
0.079753
0.0694595
0.0618651
0.0568107
0.0537389
0.0519804
0.0510434
0.0505329
0.0502646
0.0501307
0.0500752
0.0500433
0.0500285
0.0500163
0.0500123
0.050009
0.0500018
0.0499914
0.0499924
0.0499867
0.0499884
0.0499911
0.0499875
0.0499945
0.0500074
0.0500107
0.0500176
0.0500072
0.049999
0.0500012
0.0499978
0.0499879
0.0499757
0.0499876
0.0499935
0.0499918
0.0499908
0.0499965
0.0499955
0.049995
0.0500041
0.050005
0.0500077
0.0500091
0.0500048
0.0499973
0.0499911
0.0499956
0.0499996
0.049994
0.0500038
0.0499983
0.0499942
0.0499998
0.049999
0.0499966
0.0500052
0.0500035
0.0499988
0.0499935
0.0499924
0.0499907
0.0499784
0.0499858
0.0499819
0.0499881
0.0499861
0.0499998
0.0499943
0.0499935
0.0499897
0.0500006
0.0500091
0.05
0.0500056
0.0500086
0.050009
0.0500076
)
;

boundaryField
{
    inlet
    {
        type            calculated;
        value           uniform 1;
    }
    outlet
    {
        type            calculated;
        value           uniform 0.0500076;
    }
    yzfaces
    {
        type            empty;
    }
}


// ************************************************************************* //
