/*--------------------------------*- C++ -*----------------------------------*\
| =========                 |                                                 |
| \\      /  F ield         | foam-extend: Open Source CFD                    |
|  \\    /   O peration     | Version:     5.0                                |
|   \\  /    A nd           | Web:         http://www.foam-extend.org         |
|    \\/     M anipulation  |                                                 |
\*---------------------------------------------------------------------------*/
FoamFile
{
    version     2.0;
    format      ascii;
    class       volScalarField;
    location    "1";
    object      S.gas;
}
// * * * * * * * * * * * * * * * * * * * * * * * * * * * * * * * * * * * * * //

dimensions      [0 0 0 0 0 0 0];

internalField   nonuniform List<scalar> 
100
(
0.577652
0.486981
0.433215
0.392836
0.362183
0.336892
0.31543
0.296529
0.2788
0.263463
0.248315
0.233924
0.219874
0.206025
0.192504
0.17883
0.164933
0.150589
0.135971
0.12108
0.10628
0.0921974
0.07963
0.0693616
0.0617769
0.0567673
0.0537173
0.0519783
0.0510277
0.0505282
0.0502681
0.0501438
0.0500686
0.0500309
0.0500224
0.0500245
0.0500228
0.050012
0.0500092
0.0500139
0.0500102
0.0500168
0.0500088
0.0500055
0.0500026
0.0500078
0.0500022
0.0499988
0.0499901
0.0499839
0.0499828
0.0499812
0.0499873
0.0499901
0.0499912
0.049996
0.0499978
0.0499936
0.0499942
0.0499938
0.0499963
0.0500052
0.0499988
0.050006
0.0500066
0.0499989
0.0499879
0.0499775
0.0499815
0.0499891
0.0499932
0.0499911
0.0499923
0.0500002
0.0499975
0.0499914
0.049992
0.049989
0.0499944
0.0499965
0.0499929
0.0499984
0.049986
0.0499959
0.0499961
0.0500028
0.0500083
0.0499978
0.0499962
0.0499995
0.049992
0.049994
0.0499957
0.0500043
0.050005
0.0500013
0.0500056
0.0500073
0.0499938
0.0500085
)
;

boundaryField
{
    inlet
    {
        type            calculated;
        value           uniform 1;
    }
    outlet
    {
        type            calculated;
        value           uniform 0.0500085;
    }
    yzfaces
    {
        type            empty;
    }
}


// ************************************************************************* //
