/*--------------------------------*- C++ -*----------------------------------*\
| =========                 |                                                 |
| \\      /  F ield         | foam-extend: Open Source CFD                    |
|  \\    /   O peration     | Version:     5.0                                |
|   \\  /    A nd           | Web:         http://www.foam-extend.org         |
|    \\/     M anipulation  |                                                 |
\*---------------------------------------------------------------------------*/
FoamFile
{
    version     2.0;
    format      ascii;
    class       volVectorField;
    location    "1";
    object      U.gas;
}
// * * * * * * * * * * * * * * * * * * * * * * * * * * * * * * * * * * * * * //

dimensions      [0 1 -1 0 0 0 0];

internalField   nonuniform List<vector> 
100
(
(0.00854635 0 0)
(0.00986081 0 0)
(0.010735 0 0)
(0.0114476 0 0)
(0.011993 0 0)
(0.0124358 0 0)
(0.0128162 0 0)
(0.01311 0 0)
(0.0133471 0 0)
(0.0134728 0 0)
(0.013584 0 0)
(0.0136377 0 0)
(0.0136401 0 0)
(0.0136029 0 0)
(0.0134893 0 0)
(0.0133031 0 0)
(0.0130159 0 0)
(0.0126187 0 0)
(0.0120859 0 0)
(0.0114003 0 0)
(0.0105477 0 0)
(0.00954478 0 0)
(0.00845575 0 0)
(0.00738842 0 0)
(0.00646528 0 0)
(0.00575922 0 0)
(0.00528754 0 0)
(0.00500374 0 0)
(0.00484319 0 0)
(0.0047545 0 0)
(0.00470609 0 0)
(0.0046774 0 0)
(0.00465994 0 0)
(0.00464948 0 0)
(0.00464508 0 0)
(0.00464174 0 0)
(0.00463749 0 0)
(0.00463454 0 0)
(0.00463625 0 0)
(0.00464112 0 0)
(0.00464461 0 0)
(0.00464466 0 0)
(0.00464799 0 0)
(0.00465372 0 0)
(0.00466074 0 0)
(0.00466438 0 0)
(0.00466152 0 0)
(0.00465702 0 0)
(0.00465725 0 0)
(0.00465743 0 0)
(0.00465938 0 0)
(0.00466335 0 0)
(0.00466558 0 0)
(0.00467119 0 0)
(0.00467687 0 0)
(0.00467608 0 0)
(0.00467671 0 0)
(0.00468048 0 0)
(0.00467732 0 0)
(0.00467313 0 0)
(0.00467574 0 0)
(0.00467852 0 0)
(0.00467803 0 0)
(0.0046757 0 0)
(0.00467473 0 0)
(0.00467291 0 0)
(0.00467359 0 0)
(0.00467497 0 0)
(0.00467497 0 0)
(0.00467775 0 0)
(0.00467589 0 0)
(0.00467504 0 0)
(0.0046744 0 0)
(0.00467235 0 0)
(0.00467692 0 0)
(0.0046758 0 0)
(0.00467089 0 0)
(0.00466446 0 0)
(0.00465808 0 0)
(0.00465821 0 0)
(0.00465775 0 0)
(0.00465735 0 0)
(0.00465542 0 0)
(0.00465124 0 0)
(0.00465058 0 0)
(0.00464923 0 0)
(0.00465126 0 0)
(0.0046538 0 0)
(0.00465181 0 0)
(0.00464905 0 0)
(0.0046489 0 0)
(0.00464646 0 0)
(0.00464543 0 0)
(0.00464776 0 0)
(0.00464735 0 0)
(0.0046495 0 0)
(0.00465428 0 0)
(0.00465628 0 0)
(0.00465776 0 0)
(0.00465945 0 0)
)
;

boundaryField
{
    inlet
    {
        type            fixedValue;
        value           uniform (0.005 0 0);
    }
    outlet
    {
        type            zeroGradient;
    }
    yzfaces
    {
        type            empty;
    }
}


// ************************************************************************* //
