/*--------------------------------*- C++ -*----------------------------------*\
| =========                 |                                                 |
| \\      /  F ield         | foam-extend: Open Source CFD                    |
|  \\    /   O peration     | Version:     5.0                                |
|   \\  /    A nd           | Web:         http://www.foam-extend.org         |
|    \\/     M anipulation  |                                                 |
\*---------------------------------------------------------------------------*/
FoamFile
{
    version     2.0;
    format      ascii;
    class       volVectorField;
    location    "1";
    object      U.gas;
}
// * * * * * * * * * * * * * * * * * * * * * * * * * * * * * * * * * * * * * //

dimensions      [0 1 -1 0 0 0 0];

internalField   nonuniform List<vector> 
100
(
(0.00852288 0 0)
(0.00981587 0 0)
(0.010725 0 0)
(0.0114131 0 0)
(0.0119359 0 0)
(0.0123974 0 0)
(0.0128027 0 0)
(0.0130761 0 0)
(0.0133308 0 0)
(0.0135297 0 0)
(0.0136337 0 0)
(0.0137198 0 0)
(0.0137472 0 0)
(0.0137101 0 0)
(0.0136092 0 0)
(0.0134363 0 0)
(0.013153 0 0)
(0.0127623 0 0)
(0.0122309 0 0)
(0.0115476 0 0)
(0.0106972 0 0)
(0.00968439 0 0)
(0.00857871 0 0)
(0.00749785 0 0)
(0.00655583 0 0)
(0.00582856 0 0)
(0.00534051 0 0)
(0.00504412 0 0)
(0.00487238 0 0)
(0.00477898 0 0)
(0.0047328 0 0)
(0.00470992 0 0)
(0.00469773 0 0)
(0.00468717 0 0)
(0.00467768 0 0)
(0.00467565 0 0)
(0.00467449 0 0)
(0.00466829 0 0)
(0.00466593 0 0)
(0.00466852 0 0)
(0.00466965 0 0)
(0.00466999 0 0)
(0.00467164 0 0)
(0.00467036 0 0)
(0.00466741 0 0)
(0.00466543 0 0)
(0.00466725 0 0)
(0.00466721 0 0)
(0.00466915 0 0)
(0.00467567 0 0)
(0.00467686 0 0)
(0.00467396 0 0)
(0.00467084 0 0)
(0.00466769 0 0)
(0.00466799 0 0)
(0.00466765 0 0)
(0.00466701 0 0)
(0.0046674 0 0)
(0.00466602 0 0)
(0.00466256 0 0)
(0.00466248 0 0)
(0.00466505 0 0)
(0.00466826 0 0)
(0.00467 0 0)
(0.004672 0 0)
(0.00467089 0 0)
(0.00466555 0 0)
(0.0046626 0 0)
(0.00466555 0 0)
(0.00466728 0 0)
(0.00466462 0 0)
(0.00466182 0 0)
(0.00466118 0 0)
(0.00466051 0 0)
(0.00465986 0 0)
(0.00465953 0 0)
(0.0046637 0 0)
(0.00466773 0 0)
(0.00466729 0 0)
(0.00466514 0 0)
(0.00466184 0 0)
(0.0046578 0 0)
(0.00465681 0 0)
(0.00465533 0 0)
(0.00465417 0 0)
(0.00465257 0 0)
(0.00464649 0 0)
(0.00464381 0 0)
(0.00464331 0 0)
(0.00463892 0 0)
(0.00463487 0 0)
(0.00463504 0 0)
(0.00463928 0 0)
(0.00464414 0 0)
(0.00465002 0 0)
(0.0046531 0 0)
(0.00465576 0 0)
(0.0046618 0 0)
(0.00466544 0 0)
(0.0046689 0 0)
)
;

boundaryField
{
    inlet
    {
        type            fixedValue;
        value           uniform (0.005 0 0);
    }
    outlet
    {
        type            zeroGradient;
    }
    yzfaces
    {
        type            empty;
    }
}


// ************************************************************************* //
