/*--------------------------------*- C++ -*----------------------------------*\
| =========                 |                                                 |
| \\      /  F ield         | foam-extend: Open Source CFD                    |
|  \\    /   O peration     | Version:     5.0                                |
|   \\  /    A nd           | Web:         http://www.foam-extend.org         |
|    \\/     M anipulation  |                                                 |
\*---------------------------------------------------------------------------*/
FoamFile
{
    version     2.0;
    format      ascii;
    class       volVectorField;
    location    "1";
    object      U.gas;
}
// * * * * * * * * * * * * * * * * * * * * * * * * * * * * * * * * * * * * * //

dimensions      [0 1 -1 0 0 0 0];

internalField   nonuniform List<vector> 
100
(
(0.00852677 0 0)
(0.00982075 0 0)
(0.0107109 0 0)
(0.0113945 0 0)
(0.0119419 0 0)
(0.0123312 0 0)
(0.0127249 0 0)
(0.013045 0 0)
(0.0133121 0 0)
(0.0134997 0 0)
(0.0135865 0 0)
(0.0136378 0 0)
(0.013658 0 0)
(0.0136126 0 0)
(0.0135014 0 0)
(0.0133021 0 0)
(0.0130239 0 0)
(0.0126381 0 0)
(0.0121145 0 0)
(0.0114288 0 0)
(0.0105736 0 0)
(0.00956308 0 0)
(0.00846584 0 0)
(0.00738378 0 0)
(0.00645109 0 0)
(0.00574502 0 0)
(0.00526956 0 0)
(0.0049798 0 0)
(0.00481327 0 0)
(0.00472443 0 0)
(0.00467078 0 0)
(0.00463974 0 0)
(0.00462607 0 0)
(0.00462344 0 0)
(0.00461914 0 0)
(0.00461503 0 0)
(0.00461292 0 0)
(0.00461248 0 0)
(0.00461391 0 0)
(0.00461206 0 0)
(0.00460906 0 0)
(0.00460726 0 0)
(0.00460364 0 0)
(0.00460262 0 0)
(0.00460086 0 0)
(0.00459658 0 0)
(0.00459401 0 0)
(0.00459499 0 0)
(0.00459772 0 0)
(0.00459978 0 0)
(0.00459506 0 0)
(0.00459379 0 0)
(0.00459558 0 0)
(0.00459163 0 0)
(0.00459047 0 0)
(0.0045907 0 0)
(0.00459161 0 0)
(0.00459309 0 0)
(0.0045953 0 0)
(0.00459837 0 0)
(0.00459919 0 0)
(0.00459711 0 0)
(0.00459522 0 0)
(0.00459104 0 0)
(0.00458782 0 0)
(0.00458764 0 0)
(0.00459007 0 0)
(0.00459308 0 0)
(0.00459107 0 0)
(0.00459184 0 0)
(0.00459556 0 0)
(0.00459286 0 0)
(0.00459181 0 0)
(0.00459624 0 0)
(0.0045975 0 0)
(0.00459371 0 0)
(0.00459064 0 0)
(0.00459155 0 0)
(0.00459371 0 0)
(0.00459604 0 0)
(0.00459717 0 0)
(0.00459682 0 0)
(0.00459809 0 0)
(0.0046003 0 0)
(0.00460093 0 0)
(0.00460375 0 0)
(0.00460904 0 0)
(0.0046104 0 0)
(0.00461226 0 0)
(0.00461571 0 0)
(0.00461695 0 0)
(0.00461182 0 0)
(0.00460921 0 0)
(0.00460752 0 0)
(0.0046092 0 0)
(0.00461325 0 0)
(0.00461335 0 0)
(0.00461487 0 0)
(0.00461725 0 0)
(0.00461489 0 0)
)
;

boundaryField
{
    inlet
    {
        type            fixedValue;
        value           uniform (0.005 0 0);
    }
    outlet
    {
        type            zeroGradient;
    }
    yzfaces
    {
        type            empty;
    }
}


// ************************************************************************* //
