/*--------------------------------*- C++ -*----------------------------------*\
| =========                 |                                                 |
| \\      /  F ield         | foam-extend: Open Source CFD                    |
|  \\    /   O peration     | Version:     5.0                                |
|   \\  /    A nd           | Web:         http://www.foam-extend.org         |
|    \\/     M anipulation  |                                                 |
\*---------------------------------------------------------------------------*/
FoamFile
{
    version     2.0;
    format      ascii;
    class       volVectorField;
    location    "1";
    object      U.water;
}
// * * * * * * * * * * * * * * * * * * * * * * * * * * * * * * * * * * * * * //

dimensions      [0 1 -1 0 0 0 0];

internalField   nonuniform List<vector> 
100
(
(0.000174078 0 0)
(0.000432924 0 0)
(0.000657017 0 0)
(0.00086476 0 0)
(0.00105776 0 0)
(0.00124656 0 0)
(0.0014387 0 0)
(0.00162421 0 0)
(0.00180488 0 0)
(0.00199116 0 0)
(0.00217578 0 0)
(0.00236552 0 0)
(0.00256197 0 0)
(0.00276014 0 0)
(0.00297018 0 0)
(0.00319227 0 0)
(0.00342018 0 0)
(0.00365367 0 0)
(0.00389205 0 0)
(0.00413187 0 0)
(0.00436328 0 0)
(0.00456278 0 0)
(0.00472503 0 0)
(0.0048514 0 0)
(0.0049407 0 0)
(0.00499175 0 0)
(0.00502013 0 0)
(0.00503842 0 0)
(0.00504473 0 0)
(0.00504647 0 0)
(0.00505166 0 0)
(0.00505692 0 0)
(0.00505734 0 0)
(0.00505219 0 0)
(0.00504506 0 0)
(0.00504496 0 0)
(0.00504341 0 0)
(0.00503722 0 0)
(0.00503661 0 0)
(0.00504062 0 0)
(0.00504246 0 0)
(0.00504351 0 0)
(0.00504454 0 0)
(0.00504357 0 0)
(0.00503932 0 0)
(0.00503681 0 0)
(0.00503732 0 0)
(0.00503698 0 0)
(0.00504062 0 0)
(0.00504666 0 0)
(0.00504963 0 0)
(0.00504769 0 0)
(0.00504356 0 0)
(0.00504092 0 0)
(0.00504003 0 0)
(0.00503995 0 0)
(0.00503957 0 0)
(0.00503938 0 0)
(0.00503805 0 0)
(0.00503427 0 0)
(0.00503371 0 0)
(0.00503607 0 0)
(0.00503883 0 0)
(0.00504125 0 0)
(0.00504171 0 0)
(0.00504203 0 0)
(0.00503702 0 0)
(0.00503245 0 0)
(0.00503569 0 0)
(0.00503759 0 0)
(0.00503575 0 0)
(0.00503381 0 0)
(0.00503203 0 0)
(0.00503226 0 0)
(0.0050314 0 0)
(0.00503093 0 0)
(0.00503615 0 0)
(0.00504049 0 0)
(0.00503909 0 0)
(0.00503624 0 0)
(0.00503269 0 0)
(0.00502885 0 0)
(0.00502806 0 0)
(0.00502632 0 0)
(0.00502492 0 0)
(0.00502401 0 0)
(0.00501806 0 0)
(0.00501512 0 0)
(0.00501359 0 0)
(0.00500851 0 0)
(0.00500446 0 0)
(0.00500408 0 0)
(0.00500904 0 0)
(0.00501448 0 0)
(0.00502187 0 0)
(0.00502575 0 0)
(0.00502789 0 0)
(0.00503397 0 0)
(0.00503761 0 0)
(0.00504369 0 0)
)
;

boundaryField
{
    inlet
    {
        type            fixedValue;
        value           uniform (0 0 0);
    }
    outlet
    {
        type            zeroGradient;
    }
    yzfaces
    {
        type            empty;
    }
}


// ************************************************************************* //
