/*--------------------------------*- C++ -*----------------------------------*\
| =========                 |                                                 |
| \\      /  F ield         | foam-extend: Open Source CFD                    |
|  \\    /   O peration     | Version:     5.0                                |
|   \\  /    A nd           | Web:         http://www.foam-extend.org         |
|    \\/     M anipulation  |                                                 |
\*---------------------------------------------------------------------------*/
FoamFile
{
    version     2.0;
    format      ascii;
    class       volVectorField;
    location    "1";
    object      U.water;
}
// * * * * * * * * * * * * * * * * * * * * * * * * * * * * * * * * * * * * * //

dimensions      [0 1 -1 0 0 0 0];

internalField   nonuniform List<vector> 
100
(
(0.000174375 0 0)
(0.000433048 0 0)
(0.000656411 0 0)
(0.000864897 0 0)
(0.0010605 0 0)
(0.00124208 0 0)
(0.00142577 0 0)
(0.00161752 0 0)
(0.00180421 0 0)
(0.00199052 0 0)
(0.00216729 0 0)
(0.00234731 0 0)
(0.00254144 0 0)
(0.00274262 0 0)
(0.00295223 0 0)
(0.00316663 0 0)
(0.00338986 0 0)
(0.00362676 0 0)
(0.00386849 0 0)
(0.00410593 0 0)
(0.00432844 0 0)
(0.00452329 0 0)
(0.00468143 0 0)
(0.00479823 0 0)
(0.00487948 0 0)
(0.00493231 0 0)
(0.00496371 0 0)
(0.0049806 0 0)
(0.00498832 0 0)
(0.00499034 0 0)
(0.00498592 0 0)
(0.00498096 0 0)
(0.00497964 0 0)
(0.00498246 0 0)
(0.00498142 0 0)
(0.00497834 0 0)
(0.00497793 0 0)
(0.00497826 0 0)
(0.00497974 0 0)
(0.0049784 0 0)
(0.00497695 0 0)
(0.00497507 0 0)
(0.0049716 0 0)
(0.00497032 0 0)
(0.00496859 0 0)
(0.00496453 0 0)
(0.00496017 0 0)
(0.00495942 0 0)
(0.00496177 0 0)
(0.0049635 0 0)
(0.00495961 0 0)
(0.00495965 0 0)
(0.00496186 0 0)
(0.00495724 0 0)
(0.00495688 0 0)
(0.00495842 0 0)
(0.00495788 0 0)
(0.00495894 0 0)
(0.00496221 0 0)
(0.00496533 0 0)
(0.00496508 0 0)
(0.00496401 0 0)
(0.00496206 0 0)
(0.0049561 0 0)
(0.00495243 0 0)
(0.00495187 0 0)
(0.0049541 0 0)
(0.00495817 0 0)
(0.00495689 0 0)
(0.0049582 0 0)
(0.00496246 0 0)
(0.00495841 0 0)
(0.00495733 0 0)
(0.00496153 0 0)
(0.00496335 0 0)
(0.00496013 0 0)
(0.00495602 0 0)
(0.0049565 0 0)
(0.00495925 0 0)
(0.00496096 0 0)
(0.00496241 0 0)
(0.00496208 0 0)
(0.00496395 0 0)
(0.00496668 0 0)
(0.00496736 0 0)
(0.00497235 0 0)
(0.00497818 0 0)
(0.00497956 0 0)
(0.00497975 0 0)
(0.00498395 0 0)
(0.00498359 0 0)
(0.00497826 0 0)
(0.00497635 0 0)
(0.00497526 0 0)
(0.00497597 0 0)
(0.00497879 0 0)
(0.00497994 0 0)
(0.00498119 0 0)
(0.00498356 0 0)
(0.00498101 0 0)
)
;

boundaryField
{
    inlet
    {
        type            fixedValue;
        value           uniform (0 0 0);
    }
    outlet
    {
        type            zeroGradient;
    }
    yzfaces
    {
        type            empty;
    }
}


// ************************************************************************* //
