/*--------------------------------*- C++ -*----------------------------------*\
| =========                 |                                                 |
| \\      /  F ield         | foam-extend: Open Source CFD                    |
|  \\    /   O peration     | Version:     5.0                                |
|   \\  /    A nd           | Web:         http://www.foam-extend.org         |
|    \\/     M anipulation  |                                                 |
\*---------------------------------------------------------------------------*/
FoamFile
{
    version     2.0;
    format      ascii;
    class       volVectorField;
    location    "1";
    object      U.water;
}
// * * * * * * * * * * * * * * * * * * * * * * * * * * * * * * * * * * * * * //

dimensions      [0 1 -1 0 0 0 0];

internalField   nonuniform List<vector> 
100
(
(0.000175285 0 0)
(0.00043547 0 0)
(0.000655775 0 0)
(0.000860496 0 0)
(0.00105978 0 0)
(0.00124963 0 0)
(0.00143773 0 0)
(0.00162006 0 0)
(0.0018023 0 0)
(0.00198278 0 0)
(0.00216048 0 0)
(0.00234845 0 0)
(0.00254074 0 0)
(0.0027438 0 0)
(0.0029537 0 0)
(0.00316936 0 0)
(0.00339342 0 0)
(0.00362594 0 0)
(0.00386494 0 0)
(0.00410087 0 0)
(0.00432472 0 0)
(0.00452333 0 0)
(0.00468592 0 0)
(0.00480978 0 0)
(0.004898 0 0)
(0.00495288 0 0)
(0.00498431 0 0)
(0.00500471 0 0)
(0.00501783 0 0)
(0.00502392 0 0)
(0.00502398 0 0)
(0.00502023 0 0)
(0.00501489 0 0)
(0.00501167 0 0)
(0.00501092 0 0)
(0.00500871 0 0)
(0.00500396 0 0)
(0.00500121 0 0)
(0.00500394 0 0)
(0.00500911 0 0)
(0.00501317 0 0)
(0.00501378 0 0)
(0.00501581 0 0)
(0.00502271 0 0)
(0.00503092 0 0)
(0.00503478 0 0)
(0.005031 0 0)
(0.00502732 0 0)
(0.00502761 0 0)
(0.00502846 0 0)
(0.00503161 0 0)
(0.00503597 0 0)
(0.00503872 0 0)
(0.00504403 0 0)
(0.00504934 0 0)
(0.0050483 0 0)
(0.00504911 0 0)
(0.0050534 0 0)
(0.00505069 0 0)
(0.00504606 0 0)
(0.00504814 0 0)
(0.00505065 0 0)
(0.00504959 0 0)
(0.00504757 0 0)
(0.00504584 0 0)
(0.00504342 0 0)
(0.00504471 0 0)
(0.00504843 0 0)
(0.00504945 0 0)
(0.00505092 0 0)
(0.00504857 0 0)
(0.00504824 0 0)
(0.00504776 0 0)
(0.00504524 0 0)
(0.00504958 0 0)
(0.00504853 0 0)
(0.005043 0 0)
(0.00503585 0 0)
(0.00502957 0 0)
(0.00502892 0 0)
(0.00502832 0 0)
(0.00502844 0 0)
(0.00502555 0 0)
(0.0050228 0 0)
(0.00502134 0 0)
(0.00501932 0 0)
(0.00502101 0 0)
(0.00502305 0 0)
(0.00502189 0 0)
(0.00501959 0 0)
(0.00501879 0 0)
(0.00501695 0 0)
(0.00501559 0 0)
(0.00501692 0 0)
(0.00501552 0 0)
(0.00501923 0 0)
(0.00502485 0 0)
(0.00502646 0 0)
(0.00502813 0 0)
(0.0050337 0 0)
)
;

boundaryField
{
    inlet
    {
        type            fixedValue;
        value           uniform (0 0 0);
    }
    outlet
    {
        type            zeroGradient;
    }
    yzfaces
    {
        type            empty;
    }
}


// ************************************************************************* //
