/*--------------------------------*- C++ -*----------------------------------*\
| =========                 |                                                 |
| \\      /  F ield         | foam-extend: Open Source CFD                    |
|  \\    /   O peration     | Version:     5.0                                |
|   \\  /    A nd           | Web:         http://www.foam-extend.org         |
|    \\/     M anipulation  |                                                 |
\*---------------------------------------------------------------------------*/
FoamFile
{
    version     2.0;
    format      ascii;
    class       volScalarField;
    location    "0.373594";
    object      alpha.gas;
}
// * * * * * * * * * * * * * * * * * * * * * * * * * * * * * * * * * * * * * //

dimensions      [0 0 0 0 0 0 0];

internalField   nonuniform List<scalar> 
100
(
0.0790948
0.0620261
0.0525005
0.0102705
0.0397193
0.0346525
0.0300441
0.0257196
0.0217667
0.0182658
0.0153948
0.0132568
0.0118292
0.0109757
0.0104992
0.0102526
0.0101259
0.0100631
0.010031
0.0100129
0.0100056
0.0100019
0.00999952
0.0100004
0.00999834
0.009999
0.00999966
0.0100009
0.00999955
0.00999981
0.0100014
0.0100023
0.0100018
0.0100004
0.00999898
0.00999916
0.00999911
0.0100001
0.0099996
0.0100011
0.0100008
0.00999996
0.00999998
0.00999909
0.0099985
0.00999956
0.010001
0.00999926
0.00999894
0.00999817
0.00999962
0.00999875
0.0100004
0.010001
0.00999974
0.00999962
0.0100016
0.0100005
0.010001
0.0100007
0.0100004
0.0100009
0.0100005
0.010001
0.00999999
0.0100006
0.0100009
0.00999897
0.00999822
0.0100006
0.00999975
0.00999916
0.0100004
0.0100004
0.0100001
0.00999817
0.010001
0.0100019
0.00999917
0.0100011
0.010001
0.0100019
0.0100019
0.00999858
0.00999977
0.00999891
0.0099993
0.00999859
0.00999758
0.00999751
0.00999654
0.0099962
0.0099983
0.00999974
0.00999768
0.00999935
0.00999961
0.0100001
0.010001
0.0100018
)
;

boundaryField
{
    inlet
    {
        type            fixedValue;
        value           uniform 0.2;
    }
    outlet
    {
        type            zeroGradient;
    }
    yzfaces
    {
        type            empty;
    }
}


// ************************************************************************* //
