/*--------------------------------*- C++ -*----------------------------------*\
| =========                 |                                                 |
| \\      /  F ield         | foam-extend: Open Source CFD                    |
|  \\    /   O peration     | Version:     5.0                                |
|   \\  /    A nd           | Web:         http://www.foam-extend.org         |
|    \\/     M anipulation  |                                                 |
\*---------------------------------------------------------------------------*/
FoamFile
{
    version     2.0;
    format      ascii;
    class       volScalarField;
    location    "0.373594";
    object      Cl.water;
}
// * * * * * * * * * * * * * * * * * * * * * * * * * * * * * * * * * * * * * //

dimensions      [0 0 0 0 0 0 0];

internalField   nonuniform List<scalar> 
100
(
0
0.01133
0.0161007
4.20497e-15
0.0191971
0.0199581
0.0205418
0.0210938
0.0215827
0.0220105
0.022346
0.0225911
0.022785
0.0228784
0.0229302
0.0229953
0.0229907
0.022996
0.0229996
0.022999
0.0229896
0.022993
0.0230065
0.0229817
0.0230189
0.0229959
0.0229806
0.0229919
0.0230005
0.0230027
0.0229782
0.0230073
0.0229979
0.023009
0.0230027
0.0230057
0.0230254
0.0230012
0.0229988
0.0229804
0.0229983
0.0230167
0.0230007
0.0229946
0.0229992
0.0229886
0.0229699
0.02301
0.0230002
0.0230076
0.0230052
0.0230141
0.0229986
0.0230123
0.0229877
0.0230167
0.0229976
0.0229961
0.0230055
0.022977
0.0229887
0.0229846
0.0230259
0.0229898
0.0229943
0.0230057
0.0230083
0.0230054
0.0230272
0.0229965
0.023007
0.0229976
0.0229998
0.022995
0.0230081
0.0230156
0.0230102
0.0229788
0.0230132
0.0229864
0.0229944
0.0230098
0.0229895
0.0229968
0.0230023
0.0230048
0.0230077
0.0229911
0.0229705
0.0230055
0.0229856
0.0229924
0.0229774
0.0230115
0.0230122
0.0230305
0.0230081
0.0230184
0.0230023
0.0230031
)
;

boundaryField
{
    inlet
    {
        type            fixedValue;
        value           uniform 0;
    }
    outlet
    {
        type            zeroGradient;
    }
    yzfaces
    {
        type            empty;
    }
}


// ************************************************************************* //
