/*--------------------------------*- C++ -*----------------------------------*\
| =========                 |                                                 |
| \\      /  F ield         | foam-extend: Open Source CFD                    |
|  \\    /   O peration     | Version:     5.0                                |
|   \\  /    A nd           | Web:         http://www.foam-extend.org         |
|    \\/     M anipulation  |                                                 |
\*---------------------------------------------------------------------------*/
FoamFile
{
    version     2.0;
    format      ascii;
    class       volScalarField;
    location    "0.373594";
    object      CO2.water;
}
// * * * * * * * * * * * * * * * * * * * * * * * * * * * * * * * * * * * * * //

dimensions      [0 0 0 0 0 0 0];

internalField   nonuniform List<scalar> 
100
(
0.00316491
0.00114463
0.000378443
0.0049538
3.92834e-05
1.28999e-05
4.31626e-06
1.46654e-06
5.02352e-07
1.72232e-07
5.79552e-08
1.91928e-08
6.19321e-09
2.13682e-09
9.28537e-10
4.83205e-10
2.86072e-10
1.60226e-10
8.59236e-11
4.46293e-11
2.25654e-11
1.11615e-11
5.40923e-12
2.57987e-12
1.20969e-12
5.60804e-13
2.57014e-13
1.1649e-13
5.24203e-14
2.33988e-14
1.03805e-14
4.57766e-15
2.01499e-15
8.79626e-16
3.82548e-16
1.65768e-16
7.15971e-17
3.08135e-17
1.32724e-17
5.69177e-18
2.43992e-18
1.03983e-18
4.43557e-19
1.8893e-19
8.03489e-20
3.41246e-20
1.45182e-20
6.14022e-21
2.59914e-21
1.09923e-21
4.65065e-22
1.96324e-22
8.2878e-23
3.48907e-23
1.4733e-23
6.19676e-24
2.61242e-24
1.09708e-24
4.6083e-25
1.94056e-25
8.16383e-26
3.43141e-26
1.43964e-26
6.03457e-27
2.53553e-27
1.06268e-27
4.45507e-28
1.86529e-28
7.79143e-29
3.25674e-29
1.35936e-29
5.68573e-30
2.37042e-30
9.91636e-31
4.13122e-31
1.72393e-31
7.18505e-32
2.99755e-32
1.2465e-32
5.19747e-33
2.16654e-33
8.98459e-34
3.75592e-34
1.55566e-34
6.47717e-35
2.68897e-35
1.11719e-35
4.63517e-36
1.92889e-36
7.99649e-37
3.32676e-37
1.37695e-37
5.7152e-38
2.36738e-38
9.82239e-39
4.07378e-39
1.68899e-39
6.99783e-40
2.89817e-40
1.51689e-40
)
;

boundaryField
{
    inlet
    {
        type            fixedValue;
        value           uniform 0;
    }
    outlet
    {
        type            zeroGradient;
    }
    yzfaces
    {
        type            empty;
    }
}


// ************************************************************************* //
