/*--------------------------------*- C++ -*----------------------------------*\
| =========                 |                                                 |
| \\      /  F ield         | foam-extend: Open Source CFD                    |
|  \\    /   O peration     | Version:     5.0                                |
|   \\  /    A nd           | Web:         http://www.foam-extend.org         |
|    \\/     M anipulation  |                                                 |
\*---------------------------------------------------------------------------*/
FoamFile
{
    version     2.0;
    format      ascii;
    class       volScalarField;
    location    "0.373594";
    object      H2O.gas;
}
// * * * * * * * * * * * * * * * * * * * * * * * * * * * * * * * * * * * * * //

dimensions      [0 0 0 0 0 0 0];

internalField   nonuniform List<scalar> 
100
(
2.03212e-06
0.000567321
0.00177763
2.00015e-05
0.00576941
0.00818227
0.0104681
0.0123032
0.0133939
0.0136246
0.01314
0.0123008
0.0114838
0.0108589
0.0104563
0.0102494
0.0101199
0.0100626
0.010033
0.0100154
0.0100046
0.0100012
0.0100041
0.00999593
0.010007
0.00999798
0.00999163
0.00999988
0.0100007
0.0100022
0.00999221
0.0100071
0.0100022
0.0100055
0.00999942
0.0100016
0.0100083
0.0100008
0.00999899
0.00999171
0.00999788
0.0100044
0.0100003
0.00999672
0.01
0.00999386
0.00998581
0.00999948
0.00999526
0.00999885
0.0100017
0.0100071
0.00999939
0.0100057
0.00999499
0.0100059
0.0100003
0.0100007
0.0100064
0.00999337
0.00999775
0.00999707
0.0100111
0.00999748
0.00999832
0.0100017
0.010005
0.00999907
0.0100089
0.00999784
0.0100024
0.0099996
0.0100026
0.0100001
0.0100045
0.0100058
0.010006
0.00999548
0.0100067
0.00999407
0.00999629
0.0100035
0.00999638
0.00999547
0.00999754
0.00999938
0.0100023
0.00999558
0.00998441
0.0100031
0.00999189
0.00999731
0.00999025
0.0100052
0.0100028
0.0100108
0.00999924
0.0100052
0.0100033
0.0100026
)
;

boundaryField
{
    inlet
    {
        type            fixedValue;
        value           uniform 0;
    }
    outlet
    {
        type            zeroGradient;
    }
    yzfaces
    {
        type            empty;
    }
}


// ************************************************************************* //
