/*--------------------------------*- C++ -*----------------------------------*\
| =========                 |                                                 |
| \\      /  F ield         | foam-extend: Open Source CFD                    |
|  \\    /   O peration     | Version:     5.0                                |
|   \\  /    A nd           | Web:         http://www.foam-extend.org         |
|    \\/     M anipulation  |                                                 |
\*---------------------------------------------------------------------------*/
FoamFile
{
    version     2.0;
    format      ascii;
    class       volScalarField;
    location    "0.373594";
    object      Na.water;
}
// * * * * * * * * * * * * * * * * * * * * * * * * * * * * * * * * * * * * * //

dimensions      [0 0 0 0 0 0 0];

internalField   nonuniform List<scalar> 
100
(
0
0.0113314
0.0160979
4.20497e-15
0.0192004
0.0199638
0.0205408
0.0210875
0.021579
0.0220104
0.0223474
0.0225887
0.0227867
0.0228795
0.0229255
0.0229865
0.0229756
0.0229916
0.0229976
0.0230053
0.0229973
0.0229972
0.0230057
0.0229873
0.0230207
0.0230062
0.022987
0.0229991
0.0229996
0.0230017
0.0229823
0.0230166
0.0229965
0.0230081
0.0229945
0.0229968
0.0230161
0.0229896
0.0229862
0.0229698
0.0229856
0.0230061
0.0229947
0.0229933
0.0230028
0.0229854
0.0229677
0.0230057
0.0229983
0.0229989
0.0230016
0.0230187
0.0230014
0.0230114
0.0229865
0.0230115
0.0229986
0.0230039
0.0230078
0.0229765
0.0229909
0.0229831
0.0230232
0.0229934
0.0229894
0.0229989
0.0229962
0.02299
0.023024
0.0229954
0.0230097
0.023001
0.0229987
0.0229962
0.023009
0.0230157
0.0230152
0.0229966
0.0230269
0.0229946
0.0229919
0.0230046
0.0229847
0.022987
0.0229937
0.023005
0.0230099
0.0229891
0.0229623
0.0230057
0.022986
0.0230007
0.0229799
0.023013
0.0230191
0.023033
0.0230004
0.023016
0.023011
0.0230115
)
;

boundaryField
{
    inlet
    {
        type            fixedValue;
        value           uniform 0;
    }
    outlet
    {
        type            zeroGradient;
    }
    yzfaces
    {
        type            empty;
    }
}


// ************************************************************************* //
