/*--------------------------------*- C++ -*----------------------------------*\
| =========                 |                                                 |
| \\      /  F ield         | foam-extend: Open Source CFD                    |
|  \\    /   O peration     | Version:     5.0                                |
|   \\  /    A nd           | Web:         http://www.foam-extend.org         |
|    \\/     M anipulation  |                                                 |
\*---------------------------------------------------------------------------*/
FoamFile
{
    version     2.0;
    format      ascii;
    class       surfaceScalarField;
    location    "0.373594";
    object      phi;
}
// * * * * * * * * * * * * * * * * * * * * * * * * * * * * * * * * * * * * * //

dimensions      [0 3 -1 0 0 0 0];

internalField   nonuniform List<scalar> 
99
(
1.21734e-06
1.22051e-06
1.21751e-06
1.22225e-06
1.22008e-06
1.22103e-06
1.2201e-06
1.22285e-06
1.22039e-06
1.22125e-06
1.22098e-06
1.21962e-06
1.2203e-06
1.2188e-06
1.21964e-06
1.21818e-06
1.2185e-06
1.22011e-06
1.21925e-06
1.21851e-06
1.21808e-06
1.21843e-06
1.21669e-06
1.21902e-06
1.21675e-06
1.2173e-06
1.21687e-06
1.2186e-06
1.21763e-06
1.2168e-06
1.21592e-06
1.21584e-06
1.21604e-06
1.21595e-06
1.21606e-06
1.21518e-06
1.21309e-06
1.21129e-06
1.21232e-06
1.21097e-06
1.21252e-06
1.21045e-06
1.20945e-06
1.2102e-06
1.21004e-06
1.21093e-06
1.21221e-06
1.21344e-06
1.21127e-06
1.21404e-06
1.214e-06
1.21268e-06
1.21223e-06
1.21185e-06
1.21402e-06
1.21273e-06
1.21318e-06
1.21117e-06
1.21102e-06
1.21047e-06
1.21051e-06
1.2109e-06
1.21068e-06
1.20921e-06
1.20909e-06
1.21025e-06
1.20983e-06
1.20903e-06
1.20942e-06
1.20731e-06
1.20667e-06
1.20601e-06
1.2067e-06
1.20834e-06
1.20689e-06
1.20874e-06
1.2068e-06
1.20832e-06
1.20841e-06
1.20847e-06
1.21042e-06
1.20742e-06
1.20989e-06
1.20818e-06
1.20885e-06
1.2067e-06
1.20683e-06
1.2081e-06
1.21059e-06
1.2099e-06
1.21164e-06
1.20939e-06
1.20824e-06
1.20759e-06
1.2078e-06
1.20736e-06
1.20589e-06
1.20714e-06
1.20704e-06
)
;

boundaryField
{
    inlet
    {
        type            calculated;
        value           uniform -1.225e-06;
    }
    outlet
    {
        type            calculated;
        value           uniform 1.20513e-06;
    }
    yzfaces
    {
        type            empty;
    }
}


// ************************************************************************* //
