/*--------------------------------*- C++ -*----------------------------------*\
| =========                 |                                                 |
| \\      /  F ield         | foam-extend: Open Source CFD                    |
|  \\    /   O peration     | Version:     5.0                                |
|   \\  /    A nd           | Web:         http://www.foam-extend.org         |
|    \\/     M anipulation  |                                                 |
\*---------------------------------------------------------------------------*/
FoamFile
{
    version     2.0;
    format      ascii;
    class       surfaceScalarField;
    location    "0.373594";
    object      phi.water;
}
// * * * * * * * * * * * * * * * * * * * * * * * * * * * * * * * * * * * * * //

dimensions      [0 3 -1 0 0 0 0];

internalField   nonuniform List<scalar> 
99
(
1.1076e-06
1.88219e-06
2.49942e-06
3.08965e-06
3.60262e-06
4.10837e-06
4.57415e-06
5.0142e-06
5.36811e-06
5.65892e-06
5.86056e-06
5.97703e-06
6.04905e-06
6.08183e-06
6.10252e-06
6.10337e-06
6.11172e-06
6.12029e-06
6.11631e-06
6.11417e-06
6.11315e-06
6.11341e-06
6.10595e-06
6.11626e-06
6.1039e-06
6.1118e-06
6.10963e-06
6.11544e-06
6.10966e-06
6.10856e-06
6.10339e-06
6.1e-06
6.10091e-06
6.10059e-06
6.10188e-06
6.09475e-06
6.08496e-06
6.07881e-06
6.08716e-06
6.08101e-06
6.08448e-06
6.07319e-06
6.07028e-06
6.07366e-06
6.07387e-06
6.08339e-06
6.08798e-06
6.09068e-06
6.0796e-06
6.09194e-06
6.08929e-06
6.08362e-06
6.0824e-06
6.08154e-06
6.09204e-06
6.0846e-06
6.0886e-06
6.07647e-06
6.07804e-06
6.07775e-06
6.07691e-06
6.07475e-06
6.07363e-06
6.06989e-06
6.06796e-06
6.07212e-06
6.07017e-06
6.06427e-06
6.06713e-06
6.05889e-06
6.05468e-06
6.05164e-06
6.05528e-06
6.06269e-06
6.05312e-06
6.0624e-06
6.05677e-06
6.06344e-06
6.06439e-06
6.06816e-06
6.07538e-06
6.06049e-06
6.07432e-06
6.06488e-06
6.06712e-06
6.0548e-06
6.0565e-06
6.06773e-06
6.07763e-06
6.07164e-06
6.08173e-06
6.07166e-06
6.06437e-06
6.05708e-06
6.05634e-06
6.0558e-06
6.05033e-06
6.05572e-06
6.05658e-06
)
;

boundaryField
{
    inlet
    {
        type            fixedValue;
        value           uniform 0;
    }
    outlet
    {
        type            calculated;
        value           uniform 6.04743e-06;
    }
    yzfaces
    {
        type            empty;
    }
}


// ************************************************************************* //
