/*--------------------------------*- C++ -*----------------------------------*\
| =========                 |                                                 |
| \\      /  F ield         | foam-extend: Open Source CFD                    |
|  \\    /   O peration     | Version:     5.0                                |
|   \\  /    A nd           | Web:         http://www.foam-extend.org         |
|    \\/     M anipulation  |                                                 |
\*---------------------------------------------------------------------------*/
FoamFile
{
    version     2.0;
    format      ascii;
    class       volScalarField;
    location    "0.373594";
    object      S.gas;
}
// * * * * * * * * * * * * * * * * * * * * * * * * * * * * * * * * * * * * * //

dimensions      [0 0 0 0 0 0 0];

internalField   nonuniform List<scalar> 
100
(
0.395474
0.310131
0.262502
0.227044
0.198597
0.173262
0.150221
0.128598
0.108833
0.0913292
0.0769738
0.0662838
0.0591462
0.0548784
0.0524959
0.051263
0.0506295
0.0503156
0.0501548
0.0500647
0.0500281
0.0500093
0.0499976
0.0500019
0.0499917
0.049995
0.0499983
0.0500045
0.0499977
0.0499991
0.0500068
0.0500115
0.0500091
0.050002
0.0499949
0.0499958
0.0499956
0.0500003
0.049998
0.0500057
0.050004
0.0499998
0.0499999
0.0499954
0.0499925
0.0499978
0.0500048
0.0499963
0.0499947
0.0499909
0.0499981
0.0499937
0.0500018
0.0500052
0.0499987
0.0499981
0.050008
0.0500025
0.0500051
0.0500036
0.050002
0.0500045
0.0500024
0.050005
0.0499999
0.0500031
0.0500045
0.0499948
0.0499911
0.0500028
0.0499988
0.0499958
0.0500019
0.050002
0.0500004
0.0499909
0.0500051
0.0500094
0.0499958
0.0500057
0.0500048
0.0500093
0.0500093
0.0499929
0.0499989
0.0499945
0.0499965
0.049993
0.0499879
0.0499875
0.0499827
0.049981
0.0499915
0.0499987
0.0499884
0.0499968
0.049998
0.0500004
0.0500049
0.0500088
)
;

boundaryField
{
    inlet
    {
        type            calculated;
        value           uniform 1;
    }
    outlet
    {
        type            calculated;
        value           uniform 0.0500088;
    }
    yzfaces
    {
        type            empty;
    }
}


// ************************************************************************* //
