/*--------------------------------*- C++ -*----------------------------------*\
| =========                 |                                                 |
| \\      /  F ield         | foam-extend: Open Source CFD                    |
|  \\    /   O peration     | Version:     5.0                                |
|   \\  /    A nd           | Web:         http://www.foam-extend.org         |
|    \\/     M anipulation  |                                                 |
\*---------------------------------------------------------------------------*/
FoamFile
{
    version     2.0;
    format      ascii;
    class       volVectorField;
    location    "0.373594";
    object      U.gas;
}
// * * * * * * * * * * * * * * * * * * * * * * * * * * * * * * * * * * * * * //

dimensions      [0 1 -1 0 0 0 0];

internalField   nonuniform List<vector> 
100
(
(0.0118671 0 0)
(0.013341 0 0)
(0.0139426 0 0)
(0.0141789 0 0)
(0.0140841 0 0)
(0.0137363 0 0)
(0.0131147 0 0)
(0.0122473 0 0)
(0.0111106 0 0)
(0.00978979 0 0)
(0.00841937 0 0)
(0.00715882 0 0)
(0.00616621 0 0)
(0.0054896 0 0)
(0.00508447 0 0)
(0.0048597 0 0)
(0.00474108 0 0)
(0.0046854 0 0)
(0.00465776 0 0)
(0.00463987 0 0)
(0.00462975 0 0)
(0.00462574 0 0)
(0.00462099 0 0)
(0.00462176 0 0)
(0.00462274 0 0)
(0.00461834 0 0)
(0.00461848 0 0)
(0.00462085 0 0)
(0.00462245 0 0)
(0.00461893 0 0)
(0.00461609 0 0)
(0.00461496 0 0)
(0.00461595 0 0)
(0.00461518 0 0)
(0.00461492 0 0)
(0.00461384 0 0)
(0.00460725 0 0)
(0.00459911 0 0)
(0.0045982 0 0)
(0.00459719 0 0)
(0.00459885 0 0)
(0.00459825 0 0)
(0.00459146 0 0)
(0.00459095 0 0)
(0.00459222 0 0)
(0.00459339 0 0)
(0.00459763 0 0)
(0.00460288 0 0)
(0.00460087 0 0)
(0.00460165 0 0)
(0.00460587 0 0)
(0.00460429 0 0)
(0.00460118 0 0)
(0.00460073 0 0)
(0.00460426 0 0)
(0.00460486 0 0)
(0.00460285 0 0)
(0.00460117 0 0)
(0.00459682 0 0)
(0.00459518 0 0)
(0.00459392 0 0)
(0.00459482 0 0)
(0.00459504 0 0)
(0.00459203 0 0)
(0.00458965 0 0)
(0.0045901 0 0)
(0.00459172 0 0)
(0.00458996 0 0)
(0.00458843 0 0)
(0.00458478 0 0)
(0.00458079 0 0)
(0.00457775 0 0)
(0.00457693 0 0)
(0.00458288 0 0)
(0.00458339 0 0)
(0.00458274 0 0)
(0.0045818 0 0)
(0.00458343 0 0)
(0.0045865 0 0)
(0.00458554 0 0)
(0.00459058 0 0)
(0.00458819 0 0)
(0.00458791 0 0)
(0.00458933 0 0)
(0.00458569 0 0)
(0.00458335 0 0)
(0.00457895 0 0)
(0.00458199 0 0)
(0.00458947 0 0)
(0.00459217 0 0)
(0.00459397 0 0)
(0.00459178 0 0)
(0.00458494 0 0)
(0.00458316 0 0)
(0.0045831 0 0)
(0.00458161 0 0)
(0.00457826 0 0)
(0.00457845 0 0)
(0.00458082 0 0)
(0.00457686 0 0)
)
;

boundaryField
{
    inlet
    {
        type            fixedValue;
        value           uniform (0.005 0 0);
    }
    outlet
    {
        type            zeroGradient;
    }
    yzfaces
    {
        type            empty;
    }
}


// ************************************************************************* //
