/*--------------------------------*- C++ -*----------------------------------*\
| =========                 |                                                 |
| \\      /  F ield         | foam-extend: Open Source CFD                    |
|  \\    /   O peration     | Version:     5.0                                |
|   \\  /    A nd           | Web:         http://www.foam-extend.org         |
|    \\/     M anipulation  |                                                 |
\*---------------------------------------------------------------------------*/
FoamFile
{
    version     2.0;
    format      ascii;
    class       volVectorField;
    location    "0.373594";
    object      U.water;
}
// * * * * * * * * * * * * * * * * * * * * * * * * * * * * * * * * * * * * * //

dimensions      [0 1 -1 0 0 0 0];

internalField   nonuniform List<vector> 
100
(
(0.000481735 0 0)
(0.00121433 0 0)
(0.00178383 0 0)
(0.0022768 0 0)
(0.00272934 0 0)
(0.00314715 0 0)
(0.00354423 0 0)
(0.00391396 0 0)
(0.00423826 0 0)
(0.00449981 0 0)
(0.00469768 0 0)
(0.00482621 0 0)
(0.00490482 0 0)
(0.00494803 0 0)
(0.00497043 0 0)
(0.00498139 0 0)
(0.00498518 0 0)
(0.0049922 0 0)
(0.00499522 0 0)
(0.0049927 0 0)
(0.0049907 0 0)
(0.00499072 0 0)
(0.00498799 0 0)
(0.00498922 0 0)
(0.00498928 0 0)
(0.00498583 0 0)
(0.00498608 0 0)
(0.00498873 0 0)
(0.00499029 0 0)
(0.00498661 0 0)
(0.00498308 0 0)
(0.00498109 0 0)
(0.00498129 0 0)
(0.00498157 0 0)
(0.00498163 0 0)
(0.00498002 0 0)
(0.00497398 0 0)
(0.00496606 0 0)
(0.00496445 0 0)
(0.00496383 0 0)
(0.00496417 0 0)
(0.00496309 0 0)
(0.00495685 0 0)
(0.00495634 0 0)
(0.00495754 0 0)
(0.00495904 0 0)
(0.00496348 0 0)
(0.00496859 0 0)
(0.00496666 0 0)
(0.00496793 0 0)
(0.00497357 0 0)
(0.00497073 0 0)
(0.00496711 0 0)
(0.00496534 0 0)
(0.00496898 0 0)
(0.00497085 0 0)
(0.00496915 0 0)
(0.00496588 0 0)
(0.00496148 0 0)
(0.00496006 0 0)
(0.00495904 0 0)
(0.00495991 0 0)
(0.00496024 0 0)
(0.00495679 0 0)
(0.0049535 0 0)
(0.00495571 0 0)
(0.00495722 0 0)
(0.00495469 0 0)
(0.0049539 0 0)
(0.0049504 0 0)
(0.00494469 0 0)
(0.00494206 0 0)
(0.00494217 0 0)
(0.00494686 0 0)
(0.00494724 0 0)
(0.00494813 0 0)
(0.00494799 0 0)
(0.00494701 0 0)
(0.0049503 0 0)
(0.00495068 0 0)
(0.00495471 0 0)
(0.00495257 0 0)
(0.00495147 0 0)
(0.00495302 0 0)
(0.00495097 0 0)
(0.00494793 0 0)
(0.00494383 0 0)
(0.00494666 0 0)
(0.00495434 0 0)
(0.00495806 0 0)
(0.00496023 0 0)
(0.00495925 0 0)
(0.00495231 0 0)
(0.00494854 0 0)
(0.00494759 0 0)
(0.00494717 0 0)
(0.00494324 0 0)
(0.00494276 0 0)
(0.00494511 0 0)
(0.004941 0 0)
)
;

boundaryField
{
    inlet
    {
        type            fixedValue;
        value           uniform (0 0 0);
    }
    outlet
    {
        type            zeroGradient;
    }
    yzfaces
    {
        type            empty;
    }
}


// ************************************************************************* //
