/*--------------------------------*- C++ -*----------------------------------*\
| =========                 |                                                 |
| \\      /  F ield         | foam-extend: Open Source CFD                    |
|  \\    /   O peration     | Version:     5.0                                |
|   \\  /    A nd           | Web:         http://www.foam-extend.org         |
|    \\/     M anipulation  |                                                 |
\*---------------------------------------------------------------------------*/
FoamFile
{
    version     2.0;
    format      ascii;
    class       regIOobject;
    location    "8/uniform";
    object      profilingInfo;
}
// * * * * * * * * * * * * * * * * * * * * * * * * * * * * * * * * * * * * * //

profilingInfo
(

    {
        id              4;
        parentId        3;
        description     "Foam::Time::writeObject - outputTime";
        calls           8;
        totalTime       0.928383;
        childTime       0;
        onStack         1;
    }

    {
        id              3;
        parentId        1;
        description     "Foam::Time::writeObject";
        calls           146;
        totalTime       0.929705;
        childTime       0.928383;
        onStack         1;
    }

    {
        id              1;
        description     "application::main";
        calls           1;
        totalTime       21.3249;
        childTime       0.92972;
        onStack         1;
    }

    {
        id              2;
        parentId        1;
        description     "functionObjectList::read";
        calls           1;
        totalTime       1.5e-05;
        childTime       0;
        onStack         0;
    }
);


// ************************************************************************* //
