/*--------------------------------*- C++ -*----------------------------------*\
| =========                 |                                                 |
| \\      /  F ield         | foam-extend: Open Source CFD                    |
|  \\    /   O peration     | Version:     5.0                                |
|   \\  /    A nd           | Web:         http://www.foam-extend.org         |
|    \\/     M anipulation  |                                                 |
\*---------------------------------------------------------------------------*/
FoamFile
{
    version     2.0;
    format      ascii;
    class       volScalarField;
    location    "4";
    object      Cl.water;
}
// * * * * * * * * * * * * * * * * * * * * * * * * * * * * * * * * * * * * * //

dimensions      [0 0 0 0 0 0 0];

internalField   nonuniform List<scalar> 
100
(
0.00980712
0.0130134
0.015331
0.0167211
0.0177976
0.0188232
0.0197336
0.0203545
0.0210544
0.0216867
0.0223707
0.0228046
0.0232122
0.0235753
0.0240354
0.0242972
0.0248519
0.0250197
0.0254368
0.0258051
0.0259863
0.0262901
0.0265212
0.0267587
0.0270353
0.0272574
0.0275042
0.0277446
0.0278641
0.0281252
0.0283204
0.0285067
0.0285609
0.0287722
0.0290043
0.0292351
0.0294053
0.0296464
0.0297299
0.0298427
0.0299569
0.0301174
0.0302516
0.0304408
0.0305865
0.030724
0.0308488
0.0310134
0.0312113
0.0313254
0.0315145
0.0316707
0.0318247
0.0319622
0.0321476
0.0323126
0.0325132
0.0336535
0.0338311
0.034079
0.0342972
0.0345021
0.0347057
0.0349596
0.0351989
0.0355016
0.0358012
0.0361104
0.0364517
0.0368255
0.0372054
0.0376208
0.0380648
0.0384613
0.038859
0.0391936
0.0394796
0.039646
0.0397669
0.0398883
0.0399368
0.0400076
0.040019
0.0399898
0.0399587
0.0399613
0.0400083
0.0400129
0.0400291
0.0399998
0.0400225
0.0399824
0.0399579
0.0399649
0.0399507
0.039996
0.0399782
0.0400194
0.0399981
0.0399927
)
;

boundaryField
{
    inlet
    {
        type            fixedValue;
        value           uniform 0;
    }
    outlet
    {
        type            zeroGradient;
    }
    yzfaces
    {
        type            empty;
    }
}


// ************************************************************************* //
