/*--------------------------------*- C++ -*----------------------------------*\
| =========                 |                                                 |
| \\      /  F ield         | foam-extend: Open Source CFD                    |
|  \\    /   O peration     | Version:     5.0                                |
|   \\  /    A nd           | Web:         http://www.foam-extend.org         |
|    \\/     M anipulation  |                                                 |
\*---------------------------------------------------------------------------*/
FoamFile
{
    version     2.0;
    format      ascii;
    class       surfaceScalarField;
    location    "4";
    object      phi;
}
// * * * * * * * * * * * * * * * * * * * * * * * * * * * * * * * * * * * * * //

dimensions      [0 3 -1 0 0 0 0];

internalField   nonuniform List<scalar> 
99
(
1.22461e-06
1.2197e-06
1.21931e-06
1.2141e-06
1.20876e-06
1.21428e-06
1.2169e-06
1.2214e-06
1.21573e-06
1.22634e-06
1.21809e-06
1.22231e-06
1.22353e-06
1.22986e-06
1.22719e-06
1.23125e-06
1.23098e-06
1.23788e-06
1.23499e-06
1.23634e-06
1.23934e-06
1.23714e-06
1.2362e-06
1.23866e-06
1.23864e-06
1.24142e-06
1.24117e-06
1.24295e-06
1.24669e-06
1.24327e-06
1.24633e-06
1.24528e-06
1.24453e-06
1.2424e-06
1.24358e-06
1.24436e-06
1.24235e-06
1.24271e-06
1.24322e-06
1.2409e-06
1.24031e-06
1.23807e-06
1.23573e-06
1.23679e-06
1.23622e-06
1.23463e-06
1.23179e-06
1.23212e-06
1.22786e-06
1.22849e-06
1.2285e-06
1.22836e-06
1.2263e-06
1.22847e-06
1.2287e-06
1.22911e-06
1.23049e-06
1.22997e-06
1.23235e-06
1.23303e-06
1.23381e-06
1.23432e-06
1.23472e-06
1.23458e-06
1.23723e-06
1.23568e-06
1.23628e-06
1.2369e-06
1.23794e-06
1.23697e-06
1.23736e-06
1.2361e-06
1.23389e-06
1.23426e-06
1.2343e-06
1.23408e-06
1.235e-06
1.23415e-06
1.23415e-06
1.23326e-06
1.23368e-06
1.23382e-06
1.23367e-06
1.23202e-06
1.23217e-06
1.23314e-06
1.23367e-06
1.23199e-06
1.23241e-06
1.23408e-06
1.2341e-06
1.23156e-06
1.23196e-06
1.23302e-06
1.23446e-06
1.23499e-06
1.23324e-06
1.23478e-06
1.23523e-06
)
;

boundaryField
{
    inlet
    {
        type            calculated;
        value           uniform -1.225e-06;
    }
    outlet
    {
        type            calculated;
        value           uniform 1.2341e-06;
    }
    yzfaces
    {
        type            empty;
    }
}


// ************************************************************************* //
