/*--------------------------------*- C++ -*----------------------------------*\
| =========                 |                                                 |
| \\      /  F ield         | foam-extend: Open Source CFD                    |
|  \\    /   O peration     | Version:     5.0                                |
|   \\  /    A nd           | Web:         http://www.foam-extend.org         |
|    \\/     M anipulation  |                                                 |
\*---------------------------------------------------------------------------*/
FoamFile
{
    version     2.0;
    format      ascii;
    class       volScalarField;
    location    "8.24539";
    object      CO2.water;
}
// * * * * * * * * * * * * * * * * * * * * * * * * * * * * * * * * * * * * * //

dimensions      [0 0 0 0 0 0 0];

internalField   nonuniform List<scalar> 
100
(
6.31659e-05
1.17387e-05
1.77634e-06
2.4194e-07
3.08604e-08
3.76065e-09
4.42712e-10
5.07065e-11
5.67858e-12
6.2402e-13
6.74691e-14
7.19077e-15
7.56649e-16
7.87109e-17
8.10383e-18
8.26408e-19
8.35293e-20
8.37437e-21
8.33235e-22
8.23111e-23
8.07546e-24
7.87339e-25
7.63013e-26
7.3513e-27
7.04412e-28
6.7145e-29
6.36726e-30
6.00966e-31
5.64531e-32
5.27907e-33
4.91566e-34
4.55757e-35
4.2089e-36
3.87126e-37
3.54739e-38
3.23877e-39
2.94649e-40
2.67103e-41
2.41304e-42
2.1725e-43
1.94979e-44
1.7445e-45
1.556e-46
1.38367e-47
1.2267e-48
1.08461e-49
9.56122e-51
8.40638e-52
7.37019e-53
6.44488e-54
5.62121e-55
4.89004e-56
4.24359e-57
3.67326e-58
3.17242e-59
2.73304e-60
2.34946e-61
2.01509e-62
1.72434e-63
1.47227e-64
1.25427e-65
1.06627e-66
9.04531e-68
7.65751e-69
6.46952e-70
5.4545e-71
4.58993e-72
3.85499e-73
3.2314e-74
2.70407e-75
2.25852e-76
1.8831e-77
1.56717e-78
1.30202e-79
1.07971e-80
8.93878e-82
7.38744e-83
6.0954e-84
5.02115e-85
4.12969e-86
3.39063e-87
2.77975e-88
2.27533e-89
1.85948e-90
1.51727e-91
1.2363e-92
1.00571e-93
8.16859e-95
6.62447e-96
5.36428e-97
4.33725e-98
3.50185e-99
2.82351e-100
2.27304e-101
1.82756e-102
1.46718e-103
1.17632e-104
9.41639e-106
7.52865e-107
6.01107e-108
)
;

boundaryField
{
    inlet
    {
        type            fixedValue;
        value           uniform 0;
    }
    outlet
    {
        type            zeroGradient;
    }
    yzfaces
    {
        type            empty;
    }
}


// ************************************************************************* //
