/*--------------------------------*- C++ -*----------------------------------*\
| =========                 |                                                 |
| \\      /  F ield         | foam-extend: Open Source CFD                    |
|  \\    /   O peration     | Version:     5.0                                |
|   \\  /    A nd           | Web:         http://www.foam-extend.org         |
|    \\/     M anipulation  |                                                 |
\*---------------------------------------------------------------------------*/
FoamFile
{
    version     2.0;
    format      ascii;
    class       volScalarField;
    location    "10";
    object      alpha.gas;
}
// * * * * * * * * * * * * * * * * * * * * * * * * * * * * * * * * * * * * * //

dimensions      [0 0 0 0 0 0 0];

internalField   nonuniform List<scalar> 
100
(
0.169648
0.156979
0.149755
0.141895
0.137329
0.135125
0.134858
0.1334
0.130303
0.126759
0.121858
0.117406
0.11474
0.112586
0.110885
0.108492
0.105922
0.103985
0.101952
0.100015
0.0978792
0.0967376
0.0959004
0.0945124
0.0927277
0.0915373
0.0901902
0.088774
0.0875746
0.0870158
0.0863905
0.0864096
0.0864244
0.0861466
0.0856709
0.0848896
0.0838403
0.0831564
0.0822709
0.0810204
0.0799821
0.0793766
0.0787257
0.077926
0.0771266
0.0764599
0.0757165
0.0752114
0.0747884
0.0742615
0.0737127
0.0730099
0.0724681
0.0719215
0.0715518
0.0710387
0.0705733
0.0701801
0.069948
0.0696371
0.0692677
0.068752
0.0682655
0.0676738
0.0671868
0.0668017
0.0662828
0.0658899
0.0654405
0.0650458
0.0645933
0.064175
0.0636947
0.0633428
0.0629623
0.0625528
0.0622288
0.0618359
0.0614527
0.0612007
0.0609074
0.0605363
0.0602139
0.0597974
0.0593846
0.0590804
0.0585943
0.0583173
0.0580146
0.0576737
0.0573407
0.0571125
0.056797
0.0565315
0.0562522
0.0560204
0.0557272
0.0555191
0.0552032
0.0549092
)
;

boundaryField
{
    inlet
    {
        type            fixedValue;
        value           uniform 0.2;
    }
    outlet
    {
        type            zeroGradient;
    }
    yzfaces
    {
        type            empty;
    }
}


// ************************************************************************* //
