/*--------------------------------*- C++ -*----------------------------------*\
| =========                 |                                                 |
| \\      /  F ield         | foam-extend: Open Source CFD                    |
|  \\    /   O peration     | Version:     5.0                                |
|   \\  /    A nd           | Web:         http://www.foam-extend.org         |
|    \\/     M anipulation  |                                                 |
\*---------------------------------------------------------------------------*/
FoamFile
{
    version     2.0;
    format      ascii;
    class       volScalarField;
    location    "10";
    object      alpha.gas;
}
// * * * * * * * * * * * * * * * * * * * * * * * * * * * * * * * * * * * * * //

dimensions      [0 0 0 0 0 0 0];

internalField   nonuniform List<scalar> 
100
(
0.16976
0.157184
0.150168
0.141745
0.136674
0.135032
0.134982
0.133996
0.130844
0.127452
0.122531
0.11786
0.114712
0.112326
0.110332
0.108258
0.105595
0.103728
0.101933
0.0997699
0.0977315
0.0965948
0.0956773
0.0939456
0.0924276
0.0910693
0.089824
0.0883892
0.0874074
0.0868468
0.0867172
0.0864148
0.0864553
0.0862149
0.0854593
0.0846899
0.0836828
0.0827855
0.0817729
0.0807238
0.0797688
0.079003
0.0784177
0.0776629
0.0770003
0.0763358
0.0757525
0.0752813
0.0747884
0.0744255
0.0737639
0.0731316
0.0725054
0.0719905
0.0713762
0.0709514
0.0705592
0.0701425
0.0698441
0.0693937
0.0689839
0.0685328
0.0679996
0.0675298
0.0670992
0.0665738
0.066137
0.0657797
0.0653956
0.0650512
0.0647111
0.0643015
0.0638153
0.0634139
0.0630566
0.062673
0.0621696
0.0616824
0.0613611
0.0610454
0.060649
0.0604053
0.0600842
0.0597099
0.0592808
0.0590056
0.0585895
0.0582707
0.0579667
0.057575
0.0572604
0.0569784
0.056712
0.0564203
0.0561274
0.055888
0.0556351
0.0554221
0.0551474
0.0549075
)
;

boundaryField
{
    inlet
    {
        type            fixedValue;
        value           uniform 0.2;
    }
    outlet
    {
        type            zeroGradient;
    }
    yzfaces
    {
        type            empty;
    }
}


// ************************************************************************* //
