/*--------------------------------*- C++ -*----------------------------------*\
| =========                 |                                                 |
| \\      /  F ield         | foam-extend: Open Source CFD                    |
|  \\    /   O peration     | Version:     5.0                                |
|   \\  /    A nd           | Web:         http://www.foam-extend.org         |
|    \\/     M anipulation  |                                                 |
\*---------------------------------------------------------------------------*/
FoamFile
{
    version     2.0;
    format      ascii;
    class       volScalarField;
    location    "10";
    object      Cl.water;
}
// * * * * * * * * * * * * * * * * * * * * * * * * * * * * * * * * * * * * * //

dimensions      [0 0 0 0 0 0 0];

internalField   nonuniform List<scalar> 
100
(
0.00348508
0.00494013
0.00576833
0.00667216
0.00719839
0.00745198
0.00748151
0.0076494
0.00800381
0.00841176
0.00897239
0.00948154
0.00978773
0.010037
0.0102328
0.0105109
0.0108052
0.0110279
0.0112602
0.0114815
0.01173
0.0118595
0.0119545
0.0121185
0.0123254
0.0124579
0.0126091
0.0127694
0.0129076
0.0129703
0.0130426
0.0130377
0.01304
0.0130735
0.0131262
0.0132168
0.0133363
0.0134124
0.0135158
0.0136594
0.0137799
0.0138514
0.0139265
0.0140217
0.0141144
0.0141898
0.0142768
0.0143353
0.0143833
0.0144436
0.0145072
0.0145913
0.0146512
0.0147129
0.0147536
0.0148106
0.0148627
0.0149093
0.0149366
0.0149753
0.0150213
0.0150753
0.015128
0.0151985
0.0152541
0.0152986
0.0153577
0.0154021
0.0154511
0.0154933
0.0155439
0.0155936
0.0156528
0.0156964
0.0157372
0.0157823
0.0158175
0.0158626
0.0159073
0.0159369
0.0159727
0.0160132
0.0160535
0.0160991
0.0161462
0.0161834
0.0162368
0.0162737
0.0163107
0.0163474
0.0163865
0.0164122
0.0164475
0.0164789
0.0165056
0.0165316
0.0165659
0.0165902
0.0166237
0.0166624
)
;

boundaryField
{
    inlet
    {
        type            fixedValue;
        value           uniform 0;
    }
    outlet
    {
        type            zeroGradient;
    }
    yzfaces
    {
        type            empty;
    }
}


// ************************************************************************* //
