/*--------------------------------*- C++ -*----------------------------------*\
| =========                 |                                                 |
| \\      /  F ield         | foam-extend: Open Source CFD                    |
|  \\    /   O peration     | Version:     5.0                                |
|   \\  /    A nd           | Web:         http://www.foam-extend.org         |
|    \\/     M anipulation  |                                                 |
\*---------------------------------------------------------------------------*/
FoamFile
{
    version     2.0;
    format      ascii;
    class       volScalarField;
    location    "10";
    object      Cl.water;
}
// * * * * * * * * * * * * * * * * * * * * * * * * * * * * * * * * * * * * * //

dimensions      [0 0 0 0 0 0 0];

internalField   nonuniform List<scalar> 
100
(
0.0034723
0.00491863
0.00572509
0.00669345
0.00727506
0.0074638
0.00746942
0.00758299
0.00794294
0.00833297
0.00889722
0.00943497
0.00979814
0.0100734
0.0103036
0.0105391
0.0108415
0.011054
0.0112563
0.0115075
0.0117446
0.0118759
0.0119844
0.0121854
0.0123606
0.0125177
0.0126584
0.012822
0.012934
0.0130006
0.0130112
0.0130475
0.0130409
0.0130702
0.013157
0.0132456
0.0133597
0.0134605
0.0135789
0.0136999
0.0138113
0.0138977
0.0139646
0.0140507
0.014129
0.0142059
0.0142731
0.0143237
0.014377
0.0144194
0.0144957
0.0145694
0.0146402
0.0146995
0.014769
0.0148213
0.0148671
0.0149157
0.0149546
0.015007
0.0150562
0.0151046
0.0151639
0.0152117
0.0152654
0.0153236
0.0153729
0.0154119
0.0154585
0.0154973
0.0155358
0.0155822
0.0156395
0.0156833
0.0157231
0.015766
0.0158234
0.015882
0.0159169
0.0159525
0.0159945
0.0160226
0.0160612
0.016107
0.0161597
0.0161887
0.0162373
0.016273
0.0163135
0.0163537
0.0163872
0.016423
0.0164573
0.0164895
0.0165273
0.016557
0.0165831
0.0166089
0.0166361
0.0166639
)
;

boundaryField
{
    inlet
    {
        type            fixedValue;
        value           uniform 0;
    }
    outlet
    {
        type            zeroGradient;
    }
    yzfaces
    {
        type            empty;
    }
}


// ************************************************************************* //
