/*--------------------------------*- C++ -*----------------------------------*\
| =========                 |                                                 |
| \\      /  F ield         | foam-extend: Open Source CFD                    |
|  \\    /   O peration     | Version:     5.0                                |
|   \\  /    A nd           | Web:         http://www.foam-extend.org         |
|    \\/     M anipulation  |                                                 |
\*---------------------------------------------------------------------------*/
FoamFile
{
    version     2.0;
    format      ascii;
    class       volScalarField;
    location    "10";
    object      Cl.water;
}
// * * * * * * * * * * * * * * * * * * * * * * * * * * * * * * * * * * * * * //

dimensions      [0 0 0 0 0 0 0];

internalField   nonuniform List<scalar> 
100
(
0.00348481
0.00488221
0.00576145
0.00668754
0.00723724
0.00744898
0.0075011
0.00759862
0.00796915
0.00839222
0.00896887
0.00949784
0.0098375
0.0100668
0.01025
0.0105188
0.0108059
0.0110229
0.0112527
0.0115117
0.0117232
0.0118425
0.0119493
0.0121234
0.0123013
0.0124578
0.0126219
0.0128014
0.0129066
0.0129758
0.0129686
0.0130149
0.0130234
0.0130573
0.0131409
0.0132219
0.0133194
0.0134054
0.0135085
0.0136433
0.0137473
0.0138431
0.0139387
0.0140442
0.0141322
0.0142189
0.0142788
0.0143401
0.0143863
0.0144462
0.014518
0.0145799
0.0146396
0.0147147
0.0147697
0.0148143
0.0148549
0.0148978
0.014938
0.0150034
0.0150557
0.0151047
0.0151624
0.0152175
0.0152744
0.0153227
0.0153846
0.0154185
0.0154544
0.015502
0.0155462
0.0155986
0.0156461
0.015693
0.0157359
0.0157782
0.0158192
0.0158603
0.0158999
0.0159425
0.015983
0.0160181
0.0160676
0.0161105
0.0161572
0.0162021
0.0162338
0.0162783
0.0163135
0.0163457
0.0163839
0.0164165
0.0164543
0.0164834
0.0165149
0.0165464
0.0165728
0.0166037
0.0166358
0.0166608
)
;

boundaryField
{
    inlet
    {
        type            fixedValue;
        value           uniform 0;
    }
    outlet
    {
        type            zeroGradient;
    }
    yzfaces
    {
        type            empty;
    }
}


// ************************************************************************* //
