/*--------------------------------*- C++ -*----------------------------------*\
| =========                 |                                                 |
| \\      /  F ield         | foam-extend: Open Source CFD                    |
|  \\    /   O peration     | Version:     5.0                                |
|   \\  /    A nd           | Web:         http://www.foam-extend.org         |
|    \\/     M anipulation  |                                                 |
\*---------------------------------------------------------------------------*/
FoamFile
{
    version     2.0;
    format      ascii;
    class       volScalarField;
    location    "10";
    object      CO2.water;
}
// * * * * * * * * * * * * * * * * * * * * * * * * * * * * * * * * * * * * * //

dimensions      [0 0 0 0 0 0 0];

internalField   nonuniform List<scalar> 
100
(
0.000794229
0.00112454
0.00130882
0.00153003
0.00166322
0.00170635
0.00170767
0.00173356
0.00181636
0.00190545
0.00203468
0.00215738
0.00224005
0.00230272
0.0023551
0.00240956
0.00247951
0.00252853
0.00257568
0.0026325
0.00268604
0.00271589
0.00273999
0.00278547
0.00282534
0.00286101
0.00289372
0.00293141
0.00295719
0.00297192
0.00297532
0.00298326
0.0029822
0.00298851
0.00300836
0.00302857
0.00305502
0.00307858
0.00310518
0.00313273
0.00315782
0.00317793
0.0031933
0.00321313
0.00323053
0.00324798
0.0032633
0.00327568
0.00328863
0.00329816
0.00331553
0.00333214
0.00334859
0.00336211
0.00337825
0.0033894
0.0033997
0.00341065
0.00341849
0.00343031
0.00344108
0.00345293
0.00346693
0.00347927
0.00349058
0.00350438
0.00351585
0.00352524
0.00353532
0.00354437
0.0035533
0.00356406
0.00357683
0.00358737
0.00359676
0.00360683
0.00362005
0.00363285
0.00364129
0.00364958
0.00365999
0.00366639
0.00367482
0.00368465
0.00369592
0.00370315
0.00371408
0.00372246
0.00373044
0.00374073
0.00374899
0.0037564
0.00376339
0.00377106
0.00377875
0.00378503
0.00379168
0.00379727
0.00380449
0.00381079
)
;

boundaryField
{
    inlet
    {
        type            fixedValue;
        value           uniform 0;
    }
    outlet
    {
        type            zeroGradient;
    }
    yzfaces
    {
        type            empty;
    }
}


// ************************************************************************* //
