/*--------------------------------*- C++ -*----------------------------------*\
| =========                 |                                                 |
| \\      /  F ield         | foam-extend: Open Source CFD                    |
|  \\    /   O peration     | Version:     5.0                                |
|   \\  /    A nd           | Web:         http://www.foam-extend.org         |
|    \\/     M anipulation  |                                                 |
\*---------------------------------------------------------------------------*/
FoamFile
{
    version     2.0;
    format      ascii;
    class       volScalarField;
    location    "10";
    object      CO2.gas;
}
// * * * * * * * * * * * * * * * * * * * * * * * * * * * * * * * * * * * * * //

dimensions      [0 0 0 0 0 0 0];

internalField   nonuniform List<scalar> 
100
(
0.169318
0.156674
0.149463
0.141618
0.137062
0.134862
0.134595
0.13314
0.13005
0.126512
0.121621
0.117177
0.114517
0.112366
0.110669
0.108281
0.105716
0.103782
0.101754
0.0998202
0.0976885
0.0965492
0.0957136
0.0943283
0.0925471
0.091359
0.0900146
0.0886012
0.087404
0.0868464
0.0862222
0.0862413
0.0862561
0.0859788
0.0855041
0.0847243
0.0836771
0.0829944
0.0821107
0.0808626
0.0798263
0.079222
0.0785724
0.0777742
0.0769764
0.076311
0.075569
0.075065
0.0746427
0.0741168
0.0735692
0.0728678
0.072327
0.0717815
0.0714124
0.0709003
0.0704359
0.0700434
0.0698118
0.0695015
0.0691328
0.0686181
0.0681325
0.0675421
0.067056
0.0666716
0.0661538
0.0657615
0.0653131
0.0649191
0.0644675
0.0640501
0.0635707
0.0632194
0.0628397
0.062431
0.0621076
0.0617155
0.061333
0.0610815
0.0607888
0.0604184
0.0600966
0.059681
0.0592689
0.0589654
0.0584802
0.0582037
0.0579017
0.0575613
0.057229
0.0570013
0.0566864
0.0564214
0.0561426
0.0559113
0.0556187
0.055411
0.0550957
0.0548022
)
;

boundaryField
{
    inlet
    {
        type            fixedValue;
        value           uniform 0.2;
    }
    outlet
    {
        type            zeroGradient;
    }
    yzfaces
    {
        type            empty;
    }
}


// ************************************************************************* //
