/*--------------------------------*- C++ -*----------------------------------*\
| =========                 |                                                 |
| \\      /  F ield         | foam-extend: Open Source CFD                    |
|  \\    /   O peration     | Version:     5.0                                |
|   \\  /    A nd           | Web:         http://www.foam-extend.org         |
|    \\/     M anipulation  |                                                 |
\*---------------------------------------------------------------------------*/
FoamFile
{
    version     2.0;
    format      ascii;
    class       volScalarField;
    location    "10";
    object      CO2.water;
}
// * * * * * * * * * * * * * * * * * * * * * * * * * * * * * * * * * * * * * //

dimensions      [0 0 0 0 0 0 0];

internalField   nonuniform List<scalar> 
100
(
0.000797178
0.00112992
0.00131967
0.00152611
0.00164601
0.0017039
0.00171094
0.00174922
0.00183055
0.00192365
0.00205235
0.0021693
0.0022393
0.0022959
0.00234056
0.00240341
0.00247092
0.0025218
0.00257518
0.00262606
0.00268216
0.00271214
0.00273413
0.00277058
0.00281746
0.00284872
0.0028841
0.0029213
0.0029528
0.00296748
0.0029839
0.0029834
0.00298301
0.00299031
0.0030028
0.00302332
0.00305088
0.00306884
0.0030921
0.00312494
0.00315222
0.00316812
0.00318521
0.00320622
0.00322721
0.00324472
0.00326425
0.00327751
0.00328863
0.00330247
0.00331688
0.00333534
0.00334957
0.00336392
0.00337363
0.00338711
0.00339933
0.00340966
0.00341576
0.00342392
0.00343362
0.00344717
0.00345995
0.00347549
0.00348828
0.00349839
0.00351202
0.00352234
0.00353414
0.00354451
0.00355639
0.00356738
0.00357999
0.00358924
0.00359923
0.00360999
0.0036185
0.00362882
0.00363888
0.0036455
0.0036532
0.00366295
0.00367142
0.00368236
0.0036932
0.00370119
0.00371395
0.00372123
0.00372918
0.00373814
0.00374688
0.00375287
0.00376116
0.00376814
0.00377547
0.00378156
0.00378926
0.00379472
0.00380302
0.00381074
)
;

boundaryField
{
    inlet
    {
        type            fixedValue;
        value           uniform 0;
    }
    outlet
    {
        type            zeroGradient;
    }
    yzfaces
    {
        type            empty;
    }
}


// ************************************************************************* //
