/*--------------------------------*- C++ -*----------------------------------*\
| =========                 |                                                 |
| \\      /  F ield         | foam-extend: Open Source CFD                    |
|  \\    /   O peration     | Version:     5.0                                |
|   \\  /    A nd           | Web:         http://www.foam-extend.org         |
|    \\/     M anipulation  |                                                 |
\*---------------------------------------------------------------------------*/
FoamFile
{
    version     2.0;
    format      ascii;
    class       volScalarField;
    location    "10";
    object      H2O.gas;
}
// * * * * * * * * * * * * * * * * * * * * * * * * * * * * * * * * * * * * * //

dimensions      [0 0 0 0 0 0 0];

internalField   nonuniform List<scalar> 
100
(
0.000330385
0.000305713
0.000291643
0.000276336
0.000267445
0.000263153
0.000262631
0.000259792
0.000253762
0.000246859
0.000237316
0.000228644
0.000223454
0.000219257
0.000215946
0.000211286
0.00020628
0.000202507
0.000198549
0.000194776
0.000190617
0.000188394
0.000186763
0.00018406
0.000180584
0.000178266
0.000175643
0.000172885
0.000170549
0.000169461
0.000168243
0.00016828
0.000168309
0.000167768
0.000166842
0.00016532
0.000163277
0.000161945
0.00016022
0.000157785
0.000155763
0.000154584
0.000153316
0.000151759
0.000150202
0.000148903
0.000147456
0.000146472
0.000145648
0.000144622
0.000143553
0.000142185
0.00014113
0.000140065
0.000139345
0.000138346
0.000137439
0.000136674
0.000136222
0.000135616
0.000134897
0.000133893
0.000132945
0.000131793
0.000130844
0.000130094
0.000129084
0.000128319
0.000127444
0.000126675
0.000125794
0.000124979
0.000124044
0.000123358
0.000122617
0.00012182
0.000121189
0.000120424
0.000119677
0.000119187
0.000118615
0.000117893
0.000117265
0.000116454
0.00011565
0.000115057
0.000114111
0.000113571
0.000112982
0.000112318
0.000111669
0.000111225
0.00011061
0.000110093
0.000109549
0.000109098
0.000108527
0.000108122
0.000107507
0.000106934
)
;

boundaryField
{
    inlet
    {
        type            fixedValue;
        value           uniform 0;
    }
    outlet
    {
        type            zeroGradient;
    }
    yzfaces
    {
        type            empty;
    }
}


// ************************************************************************* //
