/*--------------------------------*- C++ -*----------------------------------*\
| =========                 |                                                 |
| \\      /  F ield         | foam-extend: Open Source CFD                    |
|  \\    /   O peration     | Version:     5.0                                |
|   \\  /    A nd           | Web:         http://www.foam-extend.org         |
|    \\/     M anipulation  |                                                 |
\*---------------------------------------------------------------------------*/
FoamFile
{
    version     2.0;
    format      ascii;
    class       volScalarField;
    location    "10";
    object      H2O.water;
}
// * * * * * * * * * * * * * * * * * * * * * * * * * * * * * * * * * * * * * //

dimensions      [0 0 0 0 0 0 0];

internalField   nonuniform List<scalar> 
100
(
0.0225839
0.0320103
0.0373858
0.0432344
0.0466311
0.0482711
0.0484704
0.049555
0.051859
0.0544966
0.0581427
0.0614557
0.0634389
0.0650422
0.0663074
0.0680879
0.0700005
0.0714419
0.0729543
0.0743956
0.0759848
0.0768342
0.0774572
0.07849
0.0798179
0.0807036
0.0817059
0.0827597
0.0836522
0.0840679
0.0845332
0.084519
0.0845079
0.0847146
0.0850686
0.0856499
0.0864307
0.0869396
0.0875984
0.0885289
0.0893015
0.089752
0.0902363
0.0908314
0.0914262
0.0919222
0.0924754
0.0928512
0.093166
0.093558
0.0939663
0.0944892
0.0948924
0.0952991
0.0955742
0.095956
0.0963023
0.0965948
0.0967675
0.0969988
0.0972737
0.0976574
0.0980194
0.0984596
0.098822
0.0991086
0.0994946
0.099787
0.100121
0.100415
0.100752
0.101063
0.10142
0.101682
0.101965
0.10227
0.102511
0.102803
0.103089
0.103276
0.103494
0.10377
0.10401
0.10432
0.104627
0.104854
0.105215
0.105422
0.105647
0.1059
0.106148
0.106318
0.106553
0.10675
0.106958
0.107131
0.107349
0.107504
0.107739
0.107957
)
;

boundaryField
{
    inlet
    {
        type            fixedValue;
        value           uniform 0;
    }
    outlet
    {
        type            zeroGradient;
    }
    yzfaces
    {
        type            empty;
    }
}


// ************************************************************************* //
