/*--------------------------------*- C++ -*----------------------------------*\
| =========                 |                                                 |
| \\      /  F ield         | foam-extend: Open Source CFD                    |
|  \\    /   O peration     | Version:     5.0                                |
|   \\  /    A nd           | Web:         http://www.foam-extend.org         |
|    \\/     M anipulation  |                                                 |
\*---------------------------------------------------------------------------*/
FoamFile
{
    version     2.0;
    format      ascii;
    class       volScalarField;
    location    "10";
    object      H2O.water;
}
// * * * * * * * * * * * * * * * * * * * * * * * * * * * * * * * * * * * * * //

dimensions      [0 0 0 0 0 0 0];

internalField   nonuniform List<scalar> 
100
(
0.0225003
0.0318579
0.0370786
0.0433454
0.0471186
0.0483405
0.0483779
0.0491115
0.0514571
0.053981
0.0576419
0.061118
0.0634601
0.0652354
0.0667193
0.0682624
0.0702439
0.0716327
0.0729683
0.074578
0.0760947
0.0769405
0.0776232
0.0789117
0.0800411
0.0810518
0.0819784
0.083046
0.0837765
0.0841936
0.0842901
0.0845151
0.084485
0.0846638
0.0852261
0.0857985
0.0865479
0.0872155
0.0879689
0.0887496
0.0894601
0.09003
0.0904655
0.0910271
0.0915201
0.0920146
0.0924485
0.0927992
0.093166
0.093436
0.0939282
0.0943987
0.0948647
0.0952478
0.0957048
0.0960209
0.0963128
0.0966228
0.0968449
0.0971799
0.0974848
0.0978205
0.0982173
0.0985668
0.0988872
0.0992781
0.0996032
0.099869
0.100155
0.100411
0.100664
0.100969
0.101331
0.101629
0.101895
0.102181
0.102555
0.102918
0.103157
0.103392
0.103687
0.103868
0.104107
0.104385
0.104705
0.104909
0.105219
0.105456
0.105682
0.105974
0.106208
0.106418
0.106616
0.106833
0.107051
0.107229
0.107417
0.107576
0.10778
0.107959
)
;

boundaryField
{
    inlet
    {
        type            fixedValue;
        value           uniform 0;
    }
    outlet
    {
        type            zeroGradient;
    }
    yzfaces
    {
        type            empty;
    }
}


// ************************************************************************* //
