/*--------------------------------*- C++ -*----------------------------------*\
| =========                 |                                                 |
| \\      /  F ield         | foam-extend: Open Source CFD                    |
|  \\    /   O peration     | Version:     5.0                                |
|   \\  /    A nd           | Web:         http://www.foam-extend.org         |
|    \\/     M anipulation  |                                                 |
\*---------------------------------------------------------------------------*/
FoamFile
{
    version     2.0;
    format      ascii;
    class       volScalarField;
    location    "10";
    object      H2O.gas;
}
// * * * * * * * * * * * * * * * * * * * * * * * * * * * * * * * * * * * * * //

dimensions      [0 0 0 0 0 0 0];

internalField   nonuniform List<scalar> 
100
(
0.000330603
0.000306112
0.000292447
0.000276045
0.000266169
0.000262971
0.000262873
0.000260953
0.000254814
0.000248208
0.000238626
0.000229528
0.000223398
0.000218752
0.000214868
0.000210829
0.000205643
0.000202008
0.000198512
0.000194299
0.000190329
0.000188115
0.000186329
0.000182956
0.00018
0.000177355
0.00017493
0.000172135
0.000170223
0.000169132
0.000168879
0.00016829
0.000168369
0.000167901
0.000166429
0.000164931
0.00016297
0.000161222
0.00015925
0.000157207
0.000155347
0.000153856
0.000152716
0.000151246
0.000149956
0.000148662
0.000147526
0.000146608
0.000145648
0.000144941
0.000143653
0.000142422
0.000141202
0.000140199
0.000139003
0.000138176
0.000137412
0.0001366
0.000136019
0.000135142
0.000134344
0.000133466
0.000132427
0.000131512
0.000130674
0.000129651
0.0001288
0.000128104
0.000127356
0.000126685
0.000126023
0.000125225
0.000124278
0.000123497
0.000122801
0.000122054
0.000121073
0.000120125
0.000119499
0.000118884
0.000118112
0.000117638
0.000117012
0.000116283
0.000115448
0.000114912
0.000114101
0.00011348
0.000112889
0.000112126
0.000111513
0.000110964
0.000110445
0.000109877
0.000109307
0.00010884
0.000108348
0.000107933
0.000107398
0.000106931
)
;

boundaryField
{
    inlet
    {
        type            fixedValue;
        value           uniform 0;
    }
    outlet
    {
        type            zeroGradient;
    }
    yzfaces
    {
        type            empty;
    }
}


// ************************************************************************* //
