/*--------------------------------*- C++ -*----------------------------------*\
| =========                 |                                                 |
| \\      /  F ield         | foam-extend: Open Source CFD                    |
|  \\    /   O peration     | Version:     5.0                                |
|   \\  /    A nd           | Web:         http://www.foam-extend.org         |
|    \\/     M anipulation  |                                                 |
\*---------------------------------------------------------------------------*/
FoamFile
{
    version     2.0;
    format      ascii;
    class       volScalarField;
    location    "10";
    object      Na.water;
}
// * * * * * * * * * * * * * * * * * * * * * * * * * * * * * * * * * * * * * //

dimensions      [0 0 0 0 0 0 0];

internalField   nonuniform List<scalar> 
100
(
0.00348576
0.00494033
0.00577136
0.00667276
0.007195
0.0074476
0.00747961
0.00764649
0.00800324
0.00840943
0.00897421
0.00948769
0.00979362
0.0100392
0.010234
0.0105055
0.0108015
0.0110237
0.0112582
0.0114818
0.0117239
0.0118566
0.0119538
0.0121085
0.0123116
0.0124524
0.0126106
0.0127756
0.0129129
0.0129786
0.0130499
0.0130503
0.0130446
0.0130749
0.0131315
0.0132203
0.0133418
0.0134228
0.0135227
0.0136664
0.0137843
0.0138519
0.0139262
0.0140148
0.0141056
0.0141833
0.0142671
0.0143245
0.0143738
0.0144345
0.0144969
0.0145742
0.0146387
0.0147026
0.0147468
0.0148076
0.0148624
0.0149062
0.0149321
0.0149649
0.0150037
0.0150681
0.0151272
0.0151925
0.0152488
0.0152927
0.0153528
0.0153987
0.0154529
0.0155013
0.0155546
0.015601
0.0156521
0.0156893
0.015736
0.0157848
0.0158241
0.0158692
0.0159125
0.0159408
0.0159724
0.0160171
0.0160508
0.0161009
0.0161486
0.0161813
0.0162395
0.0162662
0.0162987
0.0163404
0.0163778
0.0164045
0.0164416
0.0164712
0.0165086
0.0165359
0.0165689
0.0165924
0.0166315
0.0166603
)
;

boundaryField
{
    inlet
    {
        type            fixedValue;
        value           uniform 0;
    }
    outlet
    {
        type            zeroGradient;
    }
    yzfaces
    {
        type            empty;
    }
}


// ************************************************************************* //
