/*--------------------------------*- C++ -*----------------------------------*\
| =========                 |                                                 |
| \\      /  F ield         | foam-extend: Open Source CFD                    |
|  \\    /   O peration     | Version:     5.0                                |
|   \\  /    A nd           | Web:         http://www.foam-extend.org         |
|    \\/     M anipulation  |                                                 |
\*---------------------------------------------------------------------------*/
FoamFile
{
    version     2.0;
    format      ascii;
    class       volScalarField;
    location    "10";
    object      Ns;
}
// * * * * * * * * * * * * * * * * * * * * * * * * * * * * * * * * * * * * * //

dimensions      [0 -3 0 0 1 0 0];

internalField   nonuniform List<scalar> 
100
(
28.2733
54.3783
41.6242
132.244
124.898
205.975
252.42
249.463
158.228
125.763
113.731
69.6034
94.9145
70.7263
78.9649
38.9956
14.1436
79.7005
3.77469
27.4618
14.6424
36.703
70.9824
38.3425
21.1395
49.562
47.0391
59.0098
44.8552
53.4653
75.5345
33.9351
78.835
64.6735
45.6556
38.9544
68.1303
52.409
34.7503
32.2299
73.1278
63.2754
51.9686
55.103
58.3361
44.267
36.7942
60.3005
55.024
72.7738
40.1866
35.8736
70.9702
55.4619
52.2421
68.2048
34.9591
56.7124
53.8876
75.3183
51.1975
56.0697
40.4791
46.183
53.0258
61.0992
52.8125
66.6438
66.4398
69.8135
62.4857
62.0542
62.5366
56.1407
66.6019
57.144
62.1861
64.3326
52.1978
62.9285
64.3911
51.2317
54.2435
57.9457
50.8294
70.7821
60.0082
68.8007
70.1269
75.9149
67.5556
65.2503
61.6181
68.9908
71.1719
69.2848
58.0024
66.0906
68.2193
80.475
)
;

boundaryField
{
    inlet
    {
        type            fixedValue;
        value           uniform 0;
    }
    outlet
    {
        type            zeroGradient;
    }
    yzfaces
    {
        type            empty;
    }
}


// ************************************************************************* //
