/*--------------------------------*- C++ -*----------------------------------*\
| =========                 |                                                 |
| \\      /  F ield         | foam-extend: Open Source CFD                    |
|  \\    /   O peration     | Version:     5.0                                |
|   \\  /    A nd           | Web:         http://www.foam-extend.org         |
|    \\/     M anipulation  |                                                 |
\*---------------------------------------------------------------------------*/
FoamFile
{
    version     2.0;
    format      ascii;
    class       surfaceScalarField;
    location    "10";
    object      phi;
}
// * * * * * * * * * * * * * * * * * * * * * * * * * * * * * * * * * * * * * //

dimensions      [0 3 -1 0 0 0 0];

internalField   nonuniform List<scalar> 
99
(
1.23274e-06
1.22242e-06
1.22143e-06
1.21581e-06
1.20444e-06
1.21274e-06
1.21286e-06
1.20226e-06
1.19423e-06
1.18265e-06
1.18006e-06
1.18426e-06
1.18622e-06
1.19158e-06
1.1899e-06
1.18834e-06
1.18891e-06
1.1866e-06
1.18413e-06
1.18189e-06
1.18534e-06
1.18899e-06
1.18669e-06
1.18739e-06
1.18626e-06
1.18477e-06
1.18641e-06
1.18884e-06
1.19478e-06
1.19633e-06
1.20813e-06
1.20218e-06
1.19885e-06
1.19611e-06
1.18718e-06
1.18244e-06
1.18104e-06
1.17619e-06
1.1761e-06
1.17551e-06
1.17521e-06
1.17432e-06
1.1721e-06
1.17253e-06
1.17392e-06
1.17528e-06
1.17906e-06
1.1768e-06
1.17537e-06
1.17599e-06
1.17417e-06
1.17487e-06
1.17329e-06
1.17323e-06
1.17264e-06
1.17387e-06
1.17406e-06
1.17683e-06
1.17573e-06
1.17396e-06
1.16951e-06
1.1669e-06
1.16775e-06
1.17192e-06
1.17132e-06
1.1688e-06
1.17191e-06
1.17185e-06
1.16973e-06
1.16895e-06
1.16873e-06
1.16573e-06
1.17342e-06
1.1738e-06
1.17525e-06
1.17556e-06
1.17359e-06
1.17164e-06
1.17207e-06
1.17093e-06
1.17004e-06
1.16892e-06
1.16338e-06
1.16367e-06
1.16044e-06
1.15842e-06
1.16077e-06
1.15929e-06
1.15586e-06
1.15547e-06
1.15785e-06
1.15641e-06
1.16046e-06
1.16308e-06
1.16354e-06
1.1658e-06
1.16662e-06
1.16634e-06
1.16602e-06
)
;

boundaryField
{
    inlet
    {
        type            calculated;
        value           uniform -1.225e-06;
    }
    outlet
    {
        type            calculated;
        value           uniform 1.16488e-06;
    }
    yzfaces
    {
        type            empty;
    }
}


// ************************************************************************* //
