/*--------------------------------*- C++ -*----------------------------------*\
| =========                 |                                                 |
| \\      /  F ield         | foam-extend: Open Source CFD                    |
|  \\    /   O peration     | Version:     5.0                                |
|   \\  /    A nd           | Web:         http://www.foam-extend.org         |
|    \\/     M anipulation  |                                                 |
\*---------------------------------------------------------------------------*/
FoamFile
{
    version     2.0;
    format      ascii;
    class       surfaceScalarField;
    location    "10";
    object      phi.water;
}
// * * * * * * * * * * * * * * * * * * * * * * * * * * * * * * * * * * * * * //

dimensions      [0 3 -1 0 0 0 0];

internalField   nonuniform List<scalar> 
99
(
6.13917e-08
1.08388e-07
1.42431e-07
1.91124e-07
2.2758e-07
2.44101e-07
2.45683e-07
2.4607e-07
2.68501e-07
2.91474e-07
3.35524e-07
3.84697e-07
4.21818e-07
4.50016e-07
4.65885e-07
4.94441e-07
5.31488e-07
5.58669e-07
5.8963e-07
6.32137e-07
6.68675e-07
6.85584e-07
6.9875e-07
7.28513e-07
7.63841e-07
7.8948e-07
8.2368e-07
8.71037e-07
8.98506e-07
9.12476e-07
9.0612e-07
9.21423e-07
9.18035e-07
9.2614e-07
9.50314e-07
9.65038e-07
9.86754e-07
1.006e-06
1.0313e-06
1.0712e-06
1.09879e-06
1.12418e-06
1.15627e-06
1.18341e-06
1.21082e-06
1.23585e-06
1.25381e-06
1.2713e-06
1.28903e-06
1.30666e-06
1.33396e-06
1.35684e-06
1.37496e-06
1.40538e-06
1.42454e-06
1.44358e-06
1.45252e-06
1.46973e-06
1.4814e-06
1.50755e-06
1.53231e-06
1.5498e-06
1.57052e-06
1.59417e-06
1.61378e-06
1.63333e-06
1.6645e-06
1.67415e-06
1.68932e-06
1.71373e-06
1.73011e-06
1.75241e-06
1.77659e-06
1.7931e-06
1.81401e-06
1.83219e-06
1.85435e-06
1.87479e-06
1.88848e-06
1.91293e-06
1.92471e-06
1.93796e-06
1.96262e-06
1.9794e-06
2.00254e-06
2.02618e-06
2.04345e-06
2.07056e-06
2.08437e-06
2.10074e-06
2.12505e-06
2.13949e-06
2.15736e-06
2.16931e-06
2.18886e-06
2.20846e-06
2.22077e-06
2.23835e-06
2.26069e-06
)
;

boundaryField
{
    inlet
    {
        type            fixedValue;
        value           uniform 0;
    }
    outlet
    {
        type            calculated;
        value           uniform 2.27824e-06;
    }
    yzfaces
    {
        type            empty;
    }
}


// ************************************************************************* //
