/*--------------------------------*- C++ -*----------------------------------*\
| =========                 |                                                 |
| \\      /  F ield         | foam-extend: Open Source CFD                    |
|  \\    /   O peration     | Version:     5.0                                |
|   \\  /    A nd           | Web:         http://www.foam-extend.org         |
|    \\/     M anipulation  |                                                 |
\*---------------------------------------------------------------------------*/
FoamFile
{
    version     2.0;
    format      ascii;
    class       volVectorField;
    location    "10";
    object      U.gas;
}
// * * * * * * * * * * * * * * * * * * * * * * * * * * * * * * * * * * * * * //

dimensions      [0 1 -1 0 0 0 0];

internalField   nonuniform List<vector> 
100
(
(0.00589425 0 0)
(0.00631578 0 0)
(0.006602 0 0)
(0.0069734 0 0)
(0.00721376 0 0)
(0.00732072 0 0)
(0.00734097 0 0)
(0.00736098 0 0)
(0.00749918 0 0)
(0.00760307 0 0)
(0.00778742 0 0)
(0.00802118 0 0)
(0.00819517 0 0)
(0.00833725 0 0)
(0.00844069 0 0)
(0.00856126 0 0)
(0.00870645 0 0)
(0.00882645 0 0)
(0.00895517 0 0)
(0.00911994 0 0)
(0.00927232 0 0)
(0.0093324 0 0)
(0.009364 0 0)
(0.00945697 0 0)
(0.00958653 0 0)
(0.00968418 0 0)
(0.00979009 0 0)
(0.00996236 0 0)
(0.0100719 0 0)
(0.0101145 0 0)
(0.0100627 0 0)
(0.0100957 0 0)
(0.0100976 0 0)
(0.0101216 0 0)
(0.0102171 0 0)
(0.0102868 0 0)
(0.0103391 0 0)
(0.0103694 0 0)
(0.0104363 0 0)
(0.0105597 0 0)
(0.0106386 0 0)
(0.0107135 0 0)
(0.0108044 0 0)
(0.0108782 0 0)
(0.0109293 0 0)
(0.01099 0 0)
(0.0110123 0 0)
(0.011046 0 0)
(0.0110747 0 0)
(0.0111304 0 0)
(0.0111919 0 0)
(0.0112612 0 0)
(0.0113055 0 0)
(0.0113723 0 0)
(0.0114048 0 0)
(0.0114299 0 0)
(0.0114535 0 0)
(0.0114768 0 0)
(0.0115039 0 0)
(0.0115501 0 0)
(0.0115985 0 0)
(0.0116366 0 0)
(0.0116658 0 0)
(0.0117002 0 0)
(0.0117297 0 0)
(0.0117537 0 0)
(0.0118134 0 0)
(0.0118288 0 0)
(0.0118453 0 0)
(0.0118759 0 0)
(0.0118957 0 0)
(0.0119317 0 0)
(0.0119753 0 0)
(0.0120043 0 0)
(0.012013 0 0)
(0.0120328 0 0)
(0.012067 0 0)
(0.0120984 0 0)
(0.0121163 0 0)
(0.0121364 0 0)
(0.0121465 0 0)
(0.0121327 0 0)
(0.0121553 0 0)
(0.0121621 0 0)
(0.0121813 0 0)
(0.0122049 0 0)
(0.0122106 0 0)
(0.0122467 0 0)
(0.0122656 0 0)
(0.0122718 0 0)
(0.012295 0 0)
(0.0123008 0 0)
(0.0123167 0 0)
(0.0123073 0 0)
(0.0123105 0 0)
(0.0123348 0 0)
(0.0123435 0 0)
(0.0123546 0 0)
(0.0123765 0 0)
(0.0123955 0 0)
)
;

boundaryField
{
    inlet
    {
        type            fixedValue;
        value           uniform (0.005 0 0);
    }
    outlet
    {
        type            zeroGradient;
    }
    yzfaces
    {
        type            empty;
    }
}


// ************************************************************************* //
