/*--------------------------------*- C++ -*----------------------------------*\
| =========                 |                                                 |
| \\      /  F ield         | foam-extend: Open Source CFD                    |
|  \\    /   O peration     | Version:     5.0                                |
|   \\  /    A nd           | Web:         http://www.foam-extend.org         |
|    \\/     M anipulation  |                                                 |
\*---------------------------------------------------------------------------*/
FoamFile
{
    version     2.0;
    format      ascii;
    class       volVectorField;
    location    "10";
    object      U.gas;
}
// * * * * * * * * * * * * * * * * * * * * * * * * * * * * * * * * * * * * * //

dimensions      [0 1 -1 0 0 0 0];

internalField   nonuniform List<vector> 
100
(
(0.0059078 0 0)
(0.00636434 0 0)
(0.00662547 0 0)
(0.00695546 0 0)
(0.0071174 0 0)
(0.00721153 0 0)
(0.00724602 0 0)
(0.00728961 0 0)
(0.0073943 0 0)
(0.00752103 0 0)
(0.00774962 0 0)
(0.00801274 0 0)
(0.00818815 0 0)
(0.00834626 0 0)
(0.00846585 0 0)
(0.0086153 0 0)
(0.00878629 0 0)
(0.00890891 0 0)
(0.00903504 0 0)
(0.00915551 0 0)
(0.00931823 0 0)
(0.00942117 0 0)
(0.00948675 0 0)
(0.00959218 0 0)
(0.00973409 0 0)
(0.00980902 0 0)
(0.00991806 0 0)
(0.0100498 0 0)
(0.010179 0 0)
(0.0102457 0 0)
(0.010356 0 0)
(0.0103676 0 0)
(0.0103255 0 0)
(0.0103276 0 0)
(0.0103209 0 0)
(0.0103309 0 0)
(0.0103952 0 0)
(0.0104164 0 0)
(0.0104732 0 0)
(0.0105836 0 0)
(0.0106611 0 0)
(0.0106958 0 0)
(0.0107379 0 0)
(0.0108011 0 0)
(0.0108757 0 0)
(0.0109405 0 0)
(0.0110295 0 0)
(0.0110711 0 0)
(0.0110864 0 0)
(0.0111305 0 0)
(0.0111725 0 0)
(0.0112313 0 0)
(0.0112664 0 0)
(0.011303 0 0)
(0.0113238 0 0)
(0.0113765 0 0)
(0.01142 0 0)
(0.0114628 0 0)
(0.0114835 0 0)
(0.0114984 0 0)
(0.0115003 0 0)
(0.0115133 0 0)
(0.0115432 0 0)
(0.0116201 0 0)
(0.0116706 0 0)
(0.0116806 0 0)
(0.0117317 0 0)
(0.0117718 0 0)
(0.011798 0 0)
(0.0118111 0 0)
(0.0118437 0 0)
(0.0118571 0 0)
(0.0119205 0 0)
(0.0119814 0 0)
(0.0120213 0 0)
(0.0120616 0 0)
(0.012072 0 0)
(0.0120839 0 0)
(0.0121007 0 0)
(0.0121077 0 0)
(0.0121219 0 0)
(0.0121416 0 0)
(0.0121252 0 0)
(0.0121312 0 0)
(0.012143 0 0)
(0.0121272 0 0)
(0.0121732 0 0)
(0.0121807 0 0)
(0.0121755 0 0)
(0.0121782 0 0)
(0.0122072 0 0)
(0.0122178 0 0)
(0.0122576 0 0)
(0.0123052 0 0)
(0.012337 0 0)
(0.0123583 0 0)
(0.0123956 0 0)
(0.0124029 0 0)
(0.0124245 0 0)
(0.0124332 0 0)
)
;

boundaryField
{
    inlet
    {
        type            fixedValue;
        value           uniform (0.005 0 0);
    }
    outlet
    {
        type            zeroGradient;
    }
    yzfaces
    {
        type            empty;
    }
}


// ************************************************************************* //
