/*--------------------------------*- C++ -*----------------------------------*\
| =========                 |                                                 |
| \\      /  F ield         | foam-extend: Open Source CFD                    |
|  \\    /   O peration     | Version:     5.0                                |
|   \\  /    A nd           | Web:         http://www.foam-extend.org         |
|    \\/     M anipulation  |                                                 |
\*---------------------------------------------------------------------------*/
FoamFile
{
    version     2.0;
    format      ascii;
    class       volVectorField;
    location    "10";
    object      U.water;
}
// * * * * * * * * * * * * * * * * * * * * * * * * * * * * * * * * * * * * * //

dimensions      [0 1 -1 0 0 0 0];

internalField   nonuniform List<vector> 
100
(
(2.99959e-05 0 0)
(7.05236e-05 0 0)
(0.000105323 0 0)
(0.000135086 0 0)
(0.00016639 0 0)
(0.000187193 0 0)
(0.000197465 0 0)
(0.000200199 0 0)
(0.000210328 0 0)
(0.000229396 0 0)
(0.000256149 0 0)
(0.000294035 0 0)
(0.000328729 0 0)
(0.000353055 0 0)
(0.00037364 0 0)
(0.000393609 0 0)
(0.000421415 0 0)
(0.000449989 0 0)
(0.0004743 0 0)
(0.000500382 0 0)
(0.000530276 0 0)
(0.000559083 0 0)
(0.000575262 0 0)
(0.000591883 0 0)
(0.000617283 0 0)
(0.000644234 0 0)
(0.000667696 0 0)
(0.000695245 0 0)
(0.000724794 0 0)
(0.00074726 0 0)
(0.000763633 0 0)
(0.000774182 0 0)
(0.000771619 0 0)
(0.000771573 0 0)
(0.000774699 0 0)
(0.00078362 0 0)
(0.000801907 0 0)
(0.000821097 0 0)
(0.000836464 0 0)
(0.000860257 0 0)
(0.00088968 0 0)
(0.000911883 0 0)
(0.000926625 0 0)
(0.000944607 0 0)
(0.000967896 0 0)
(0.000990308 0 0)
(0.00101255 0 0)
(0.00103296 0 0)
(0.00104574 0 0)
(0.00105912 0 0)
(0.00107454 0 0)
(0.00109297 0 0)
(0.00111323 0 0)
(0.00113082 0 0)
(0.00114645 0 0)
(0.00115993 0 0)
(0.00117744 0 0)
(0.00119461 0 0)
(0.00120703 0 0)
(0.0012146 0 0)
(0.00122325 0 0)
(0.0012349 0 0)
(0.00125189 0 0)
(0.00127408 0 0)
(0.00129742 0 0)
(0.00131283 0 0)
(0.00132951 0 0)
(0.00134959 0 0)
(0.00136504 0 0)
(0.00138045 0 0)
(0.00139677 0 0)
(0.0014129 0 0)
(0.00143416 0 0)
(0.00145703 0 0)
(0.00147337 0 0)
(0.00149167 0 0)
(0.00150693 0 0)
(0.00152007 0 0)
(0.00153737 0 0)
(0.00155134 0 0)
(0.00156143 0 0)
(0.00157511 0 0)
(0.0015871 0 0)
(0.00160055 0 0)
(0.00161793 0 0)
(0.00163208 0 0)
(0.00165004 0 0)
(0.00167004 0 0)
(0.00168046 0 0)
(0.00169358 0 0)
(0.00171207 0 0)
(0.00172728 0 0)
(0.00174206 0 0)
(0.0017617 0 0)
(0.00177851 0 0)
(0.00179492 0 0)
(0.00181069 0 0)
(0.00182465 0 0)
(0.00183781 0 0)
(0.00185186 0 0)
)
;

boundaryField
{
    inlet
    {
        type            fixedValue;
        value           uniform (0 0 0);
    }
    outlet
    {
        type            zeroGradient;
    }
    yzfaces
    {
        type            empty;
    }
}


// ************************************************************************* //
