/*--------------------------------*- C++ -*----------------------------------*\
| =========                 |                                                 |
| \\      /  F ield         | foam-extend: Open Source CFD                    |
|  \\    /   O peration     | Version:     5.0                                |
|   \\  /    A nd           | Web:         http://www.foam-extend.org         |
|    \\/     M anipulation  |                                                 |
\*---------------------------------------------------------------------------*/
FoamFile
{
    version     2.0;
    format      ascii;
    class       volScalarField;
    location    "8";
    object      alpha.gas;
}
// * * * * * * * * * * * * * * * * * * * * * * * * * * * * * * * * * * * * * //

dimensions      [0 0 0 0 0 0 0];

internalField   nonuniform List<scalar> 
100
(
0.165222
0.153755
0.146688
0.140622
0.134155
0.128664
0.125168
0.123829
0.120747
0.116389
0.11255
0.109817
0.106998
0.104308
0.101869
0.099234
0.0974265
0.0956686
0.0942326
0.09269
0.0911141
0.0896411
0.0883665
0.0875574
0.0869838
0.0864754
0.0857186
0.0851899
0.0846611
0.0834644
0.0825102
0.0812072
0.0801227
0.0789674
0.0779127
0.0770138
0.0763023
0.0756582
0.0750747
0.0743688
0.0737172
0.0729343
0.0721767
0.0716283
0.0710559
0.0704712
0.0698103
0.069236
0.068626
0.0679841
0.0672623
0.0667086
0.0661003
0.0656024
0.0652119
0.0646609
0.0641545
0.063644
0.0631491
0.0626078
0.0621479
0.0617542
0.0613593
0.0609339
0.0604416
0.0600552
0.0596034
0.0591152
0.0586594
0.0582104
0.0578368
0.0574987
0.0570749
0.0566707
0.0562905
0.0558545
0.0555341
0.0552307
0.0548959
0.0545566
0.0542733
0.0538823
0.0535892
0.0531995
0.0528918
0.0525884
0.0522677
0.0519474
0.0516394
0.05126
0.050901
0.0504913
0.0500969
0.0497314
0.0493672
0.0489957
0.0485578
0.0481056
0.0476235
0.0470773
)
;

boundaryField
{
    inlet
    {
        type            fixedValue;
        value           uniform 0.2;
    }
    outlet
    {
        type            zeroGradient;
    }
    yzfaces
    {
        type            empty;
    }
}


// ************************************************************************* //
