/*--------------------------------*- C++ -*----------------------------------*\
| =========                 |                                                 |
| \\      /  F ield         | foam-extend: Open Source CFD                    |
|  \\    /   O peration     | Version:     5.0                                |
|   \\  /    A nd           | Web:         http://www.foam-extend.org         |
|    \\/     M anipulation  |                                                 |
\*---------------------------------------------------------------------------*/
FoamFile
{
    version     2.0;
    format      ascii;
    class       volScalarField;
    location    "8";
    object      alpha.gas;
}
// * * * * * * * * * * * * * * * * * * * * * * * * * * * * * * * * * * * * * //

dimensions      [0 0 0 0 0 0 0];

internalField   nonuniform List<scalar> 
100
(
0.165201
0.153474
0.146445
0.140715
0.13456
0.12824
0.125217
0.123438
0.120637
0.116731
0.112559
0.109533
0.106511
0.104258
0.101822
0.0995811
0.0979056
0.0961639
0.0946561
0.0929688
0.0918005
0.0902775
0.0890112
0.0873396
0.0864744
0.0859667
0.0854243
0.0848333
0.0840716
0.0831531
0.0822828
0.0810766
0.0800216
0.0788601
0.0779634
0.0771166
0.0763124
0.0754858
0.0747729
0.0741114
0.0733733
0.0726066
0.071882
0.0713923
0.070783
0.0701966
0.0697639
0.0692058
0.068591
0.0680068
0.0674155
0.0668708
0.0663777
0.0658622
0.0652861
0.0647367
0.0642452
0.0637545
0.0633532
0.0628236
0.0622969
0.0617531
0.0612576
0.0607945
0.0604061
0.0599514
0.0594769
0.0590656
0.0586585
0.0582429
0.0578669
0.0575039
0.0571504
0.0567153
0.0563175
0.0558806
0.0554959
0.055149
0.0548083
0.0544481
0.054042
0.053767
0.0534399
0.0531829
0.0528579
0.0525002
0.0521504
0.0518621
0.051506
0.0511832
0.0507684
0.0503914
0.0500466
0.0496268
0.0492123
0.0488854
0.0485066
0.0480594
0.047584
0.0471627
)
;

boundaryField
{
    inlet
    {
        type            fixedValue;
        value           uniform 0.2;
    }
    outlet
    {
        type            zeroGradient;
    }
    yzfaces
    {
        type            empty;
    }
}


// ************************************************************************* //
