/*--------------------------------*- C++ -*----------------------------------*\
| =========                 |                                                 |
| \\      /  F ield         | foam-extend: Open Source CFD                    |
|  \\    /   O peration     | Version:     5.0                                |
|   \\  /    A nd           | Web:         http://www.foam-extend.org         |
|    \\/     M anipulation  |                                                 |
\*---------------------------------------------------------------------------*/
FoamFile
{
    version     2.0;
    format      ascii;
    class       volScalarField;
    location    "8";
    object      Cl.water;
}
// * * * * * * * * * * * * * * * * * * * * * * * * * * * * * * * * * * * * * //

dimensions      [0 0 0 0 0 0 0];

internalField   nonuniform List<scalar> 
100
(
0.0066469
0.009491
0.0116227
0.0131901
0.0141682
0.0151286
0.016193
0.0166875
0.0170748
0.0173099
0.0177523
0.0183265
0.0188498
0.0193595
0.0197331
0.0200408
0.0205103
0.0208639
0.0212113
0.021465
0.0220013
0.0222006
0.0225297
0.0226979
0.0229982
0.0233093
0.0235014
0.0236534
0.023661
0.0238635
0.0239999
0.0241786
0.0243815
0.0245548
0.0246945
0.024872
0.0250573
0.0252339
0.0254168
0.0256295
0.0258233
0.0259807
0.0261731
0.0263362
0.0263766
0.0264065
0.0265133
0.0265609
0.0266658
0.0268273
0.0269361
0.0270699
0.0272087
0.0273111
0.0274532
0.0275619
0.0277125
0.0277745
0.0279492
0.0279917
0.0280753
0.0281141
0.028206
0.0283604
0.0284967
0.0286179
0.0286925
0.0288008
0.028944
0.029068
0.0291587
0.0292346
0.0293076
0.0293749
0.0294149
0.0295041
0.0296145
0.0297129
0.0298026
0.0298687
0.0299364
0.030006
0.0300412
0.0301144
0.0301775
0.0302045
0.0302254
0.0302922
0.0303387
0.0304324
0.0304258
0.0305577
0.030636
0.030728
0.0307923
0.0309057
0.0309483
0.0310038
0.031091
0.0311654
)
;

boundaryField
{
    inlet
    {
        type            fixedValue;
        value           uniform 0;
    }
    outlet
    {
        type            zeroGradient;
    }
    yzfaces
    {
        type            empty;
    }
}


// ************************************************************************* //
