/*--------------------------------*- C++ -*----------------------------------*\
| =========                 |                                                 |
| \\      /  F ield         | foam-extend: Open Source CFD                    |
|  \\    /   O peration     | Version:     5.0                                |
|   \\  /    A nd           | Web:         http://www.foam-extend.org         |
|    \\/     M anipulation  |                                                 |
\*---------------------------------------------------------------------------*/
FoamFile
{
    version     2.0;
    format      ascii;
    class       volScalarField;
    location    "8";
    object      CO2.water;
}
// * * * * * * * * * * * * * * * * * * * * * * * * * * * * * * * * * * * * * //

dimensions      [0 0 0 0 0 0 0];

internalField   nonuniform List<scalar> 
100
(
0.000913967
0.00122199
0.00140659
0.0015571
0.00171874
0.00188473
0.00196413
0.00201086
0.00208443
0.00218701
0.00229659
0.00237607
0.00245545
0.00251463
0.00257859
0.00263746
0.00268146
0.00272721
0.00276681
0.00281112
0.00284181
0.00288181
0.00291507
0.00295897
0.0029817
0.00299503
0.00300928
0.0030248
0.00304481
0.00306893
0.00309179
0.00312347
0.00315118
0.00318169
0.00320524
0.00322748
0.0032486
0.00327031
0.00328903
0.00330641
0.00332579
0.00334593
0.00336496
0.00337782
0.00339382
0.00340923
0.00342059
0.00343525
0.0034514
0.00346674
0.00348227
0.00349658
0.00350953
0.00352307
0.0035382
0.00355263
0.00356554
0.00357842
0.00358897
0.00360288
0.00361671
0.00363099
0.00364401
0.00365617
0.00366637
0.00367831
0.00369077
0.00370158
0.00371227
0.00372319
0.00373306
0.0037426
0.00375188
0.00376331
0.00377375
0.00378523
0.00379533
0.00380445
0.00381339
0.00382285
0.00383352
0.00384074
0.00384933
0.00385608
0.00386462
0.00387402
0.0038832
0.00389077
0.00390013
0.00390861
0.0039195
0.0039294
0.00393846
0.00394948
0.00396037
0.00396896
0.0039789
0.00399065
0.00400313
0.0040142
)
;

boundaryField
{
    inlet
    {
        type            fixedValue;
        value           uniform 0;
    }
    outlet
    {
        type            zeroGradient;
    }
    yzfaces
    {
        type            empty;
    }
}


// ************************************************************************* //
