/*--------------------------------*- C++ -*----------------------------------*\
| =========                 |                                                 |
| \\      /  F ield         | foam-extend: Open Source CFD                    |
|  \\    /   O peration     | Version:     5.0                                |
|   \\  /    A nd           | Web:         http://www.foam-extend.org         |
|    \\/     M anipulation  |                                                 |
\*---------------------------------------------------------------------------*/
FoamFile
{
    version     2.0;
    format      ascii;
    class       volScalarField;
    location    "8";
    object      H2O.gas;
}
// * * * * * * * * * * * * * * * * * * * * * * * * * * * * * * * * * * * * * //

dimensions      [0 0 0 0 0 0 0];

internalField   nonuniform List<scalar> 
100
(
0.000321725
0.000298886
0.000285198
0.000274038
0.000262052
0.000249744
0.000243857
0.000240392
0.000234937
0.000227331
0.000219206
0.000213313
0.000207427
0.000203039
0.000198296
0.000193931
0.000190668
0.000187276
0.00018434
0.000181054
0.000178779
0.000175813
0.000173347
0.000170091
0.000168406
0.000167418
0.000166361
0.00016521
0.000163727
0.000161938
0.000160243
0.000157894
0.00015584
0.000153578
0.000151831
0.000150182
0.000148616
0.000147006
0.000145618
0.00014433
0.000142892
0.000141399
0.000139988
0.000139034
0.000137848
0.000136706
0.000135863
0.000134776
0.000133579
0.000132441
0.00013129
0.000130229
0.000129269
0.000128265
0.000127143
0.000126073
0.000125116
0.00012416
0.000123378
0.000122347
0.000121321
0.000120262
0.000119297
0.000118396
0.000117639
0.000116754
0.00011583
0.000115029
0.000114236
0.000113426
0.000112694
0.000111987
0.000111299
0.000110451
0.000109677
0.000108826
0.000108077
0.000107401
0.000106737
0.000106036
0.000105245
0.00010471
0.000104073
0.000103572
0.000102939
0.000102243
0.000101561
0.000101
0.000100306
9.96778e-05
9.887e-05
9.81359e-05
9.74643e-05
9.66467e-05
9.58395e-05
9.52028e-05
9.44652e-05
9.35943e-05
9.26685e-05
9.1848e-05
)
;

boundaryField
{
    inlet
    {
        type            fixedValue;
        value           uniform 0;
    }
    outlet
    {
        type            zeroGradient;
    }
    yzfaces
    {
        type            empty;
    }
}


// ************************************************************************* //
