/*--------------------------------*- C++ -*----------------------------------*\
| =========                 |                                                 |
| \\      /  F ield         | foam-extend: Open Source CFD                    |
|  \\    /   O peration     | Version:     5.0                                |
|   \\  /    A nd           | Web:         http://www.foam-extend.org         |
|    \\/     M anipulation  |                                                 |
\*---------------------------------------------------------------------------*/
FoamFile
{
    version     2.0;
    format      ascii;
    class       volScalarField;
    location    "8";
    object      Na.water;
}
// * * * * * * * * * * * * * * * * * * * * * * * * * * * * * * * * * * * * * //

dimensions      [0 0 0 0 0 0 0];

internalField   nonuniform List<scalar> 
100
(
0.00664705
0.00949811
0.0116322
0.0131992
0.0141721
0.015129
0.0161985
0.0166899
0.0170706
0.0173101
0.0177561
0.0183285
0.0188409
0.0193397
0.0197256
0.0200465
0.0205174
0.0208728
0.0212116
0.021468
0.0220018
0.0221986
0.0225298
0.0227033
0.0230097
0.0233267
0.0235123
0.023671
0.0236722
0.0238719
0.0240079
0.0241775
0.0243717
0.0245491
0.0246999
0.0248813
0.0250642
0.025232
0.025403
0.0256125
0.0258004
0.0259588
0.0261512
0.0263204
0.026361
0.0263956
0.026504
0.0265556
0.0266651
0.026823
0.0269449
0.0270701
0.0271916
0.0272949
0.0274537
0.0275769
0.0277145
0.0277852
0.0279505
0.027992
0.0280885
0.0281341
0.0282083
0.0283597
0.0284787
0.0285943
0.0286495
0.0287575
0.0289029
0.0290193
0.0291123
0.0292
0.0292788
0.0293389
0.02938
0.0294713
0.0295927
0.0296938
0.0297964
0.0298646
0.0299443
0.0300094
0.0300423
0.0301267
0.0301868
0.030208
0.030245
0.0303127
0.0303485
0.0304325
0.0304396
0.0305654
0.0306606
0.0307559
0.0308095
0.0309266
0.0309659
0.0310203
0.0311045
0.0311831
)
;

boundaryField
{
    inlet
    {
        type            fixedValue;
        value           uniform 0;
    }
    outlet
    {
        type            zeroGradient;
    }
    yzfaces
    {
        type            empty;
    }
}


// ************************************************************************* //
