/*--------------------------------*- C++ -*----------------------------------*\
| =========                 |                                                 |
| \\      /  F ield         | foam-extend: Open Source CFD                    |
|  \\    /   O peration     | Version:     5.0                                |
|   \\  /    A nd           | Web:         http://www.foam-extend.org         |
|    \\/     M anipulation  |                                                 |
\*---------------------------------------------------------------------------*/
FoamFile
{
    version     2.0;
    format      ascii;
    class       volVectorField;
    location    "8";
    object      U.water;
}
// * * * * * * * * * * * * * * * * * * * * * * * * * * * * * * * * * * * * * //

dimensions      [0 1 -1 0 0 0 0];

internalField   nonuniform List<vector> 
100
(
(3.60629e-05 0 0)
(8.29845e-05 0 0)
(0.000118664 0 0)
(0.000146305 0 0)
(0.000174233 0 0)
(0.000208961 0 0)
(0.000243881 0 0)
(0.000262009 0 0)
(0.00027582 0 0)
(0.000299161 0 0)
(0.000334254 0 0)
(0.000372688 0 0)
(0.000406279 0 0)
(0.000439119 0 0)
(0.000466054 0 0)
(0.000497182 0 0)
(0.000528043 0 0)
(0.000554969 0 0)
(0.000582052 0 0)
(0.0006079 0 0)
(0.000635459 0 0)
(0.000661763 0 0)
(0.000688515 0 0)
(0.000716567 0 0)
(0.000746907 0 0)
(0.00076224 0 0)
(0.000771521 0 0)
(0.000782103 0 0)
(0.000793242 0 0)
(0.00080838 0 0)
(0.00082767 0 0)
(0.000847823 0 0)
(0.000873012 0 0)
(0.000901212 0 0)
(0.000929854 0 0)
(0.000950417 0 0)
(0.000970192 0 0)
(0.000992864 0 0)
(0.00101509 0 0)
(0.00103441 0 0)
(0.00105377 0 0)
(0.00107539 0 0)
(0.00110164 0 0)
(0.00112548 0 0)
(0.00114471 0 0)
(0.00116454 0 0)
(0.00117936 0 0)
(0.00119155 0 0)
(0.00120968 0 0)
(0.00123078 0 0)
(0.00124974 0 0)
(0.00126814 0 0)
(0.00128611 0 0)
(0.00130496 0 0)
(0.00132405 0 0)
(0.00134259 0 0)
(0.00136058 0 0)
(0.00137955 0 0)
(0.00139694 0 0)
(0.001413 0 0)
(0.00143374 0 0)
(0.00145812 0 0)
(0.00148032 0 0)
(0.00149901 0 0)
(0.00151655 0 0)
(0.0015336 0 0)
(0.00155647 0 0)
(0.00158134 0 0)
(0.00160331 0 0)
(0.00162319 0 0)
(0.00164066 0 0)
(0.00165655 0 0)
(0.00167217 0 0)
(0.00168757 0 0)
(0.00170642 0 0)
(0.00172653 0 0)
(0.00174855 0 0)
(0.00176684 0 0)
(0.00178177 0 0)
(0.00180017 0 0)
(0.0018245 0 0)
(0.00184572 0 0)
(0.00185954 0 0)
(0.0018726 0 0)
(0.00188522 0 0)
(0.00190447 0 0)
(0.00192543 0 0)
(0.00194267 0 0)
(0.00196053 0 0)
(0.00197724 0 0)
(0.00199395 0 0)
(0.00201794 0 0)
(0.00203553 0 0)
(0.0020549 0 0)
(0.00208255 0 0)
(0.00210174 0 0)
(0.00211529 0 0)
(0.00213716 0 0)
(0.00216491 0 0)
(0.00219266 0 0)
)
;

boundaryField
{
    inlet
    {
        type            fixedValue;
        value           uniform (0 0 0);
    }
    outlet
    {
        type            zeroGradient;
    }
    yzfaces
    {
        type            empty;
    }
}


// ************************************************************************* //
