/*--------------------------------*- C++ -*----------------------------------*\
| =========                 |                                                 |
| \\      /  F ield         | foam-extend: Open Source CFD                    |
|  \\    /   O peration     | Version:     5.0                                |
|   \\  /    A nd           | Web:         http://www.foam-extend.org         |
|    \\/     M anipulation  |                                                 |
\*---------------------------------------------------------------------------*/
FoamFile
{
    version     2.0;
    format      ascii;
    class       volScalarField;
    location    "7";
    object      Cl.water;
}
// * * * * * * * * * * * * * * * * * * * * * * * * * * * * * * * * * * * * * //

dimensions      [0 0 0 0 0 0 0];

internalField   nonuniform List<scalar> 
100
(
0.00426998
0.00569789
0.00680254
0.00745719
0.00773197
0.00824134
0.00880102
0.0093942
0.00986418
0.0102284
0.0105986
0.0109729
0.0112575
0.0115574
0.0117729
0.0119832
0.0122278
0.012421
0.0126147
0.0127787
0.0129247
0.0129806
0.0130397
0.0131529
0.0132892
0.0134167
0.0135583
0.0137146
0.013851
0.0139816
0.0141071
0.0142038
0.0142847
0.0143696
0.0144606
0.0145331
0.01464
0.014727
0.0148119
0.0148863
0.0149534
0.0150206
0.0150998
0.0151789
0.0152549
0.0153222
0.015383
0.0154614
0.0155218
0.0155778
0.0156483
0.0157225
0.0157866
0.0158512
0.0159121
0.0159732
0.0160357
0.0160847
0.0161371
0.0161887
0.0162472
0.0163035
0.0163531
0.0164153
0.0164638
0.0165225
0.0165755
0.0166138
0.0166671
0.0167025
0.0167469
0.0167875
0.0168311
0.0168761
0.0169219
0.0169724
0.0170193
0.0170645
0.0171187
0.0171749
0.0172268
0.0172766
0.0173301
0.0173834
0.0174408
0.017508
0.0175661
0.0176227
0.0176835
0.0177358
0.0177916
0.0178494
0.0179075
0.01796
0.0180237
0.0180795
0.0181386
0.0181965
0.0182505
0.0183223
)
;

boundaryField
{
    inlet
    {
        type            fixedValue;
        value           uniform 0;
    }
    outlet
    {
        type            zeroGradient;
    }
    yzfaces
    {
        type            empty;
    }
}


// ************************************************************************* //
