/*--------------------------------*- C++ -*----------------------------------*\
| =========                 |                                                 |
| \\      /  F ield         | foam-extend: Open Source CFD                    |
|  \\    /   O peration     | Version:     5.0                                |
|   \\  /    A nd           | Web:         http://www.foam-extend.org         |
|    \\/     M anipulation  |                                                 |
\*---------------------------------------------------------------------------*/
FoamFile
{
    version     2.0;
    format      ascii;
    class       surfaceScalarField;
    location    "7";
    object      phi.water;
}
// * * * * * * * * * * * * * * * * * * * * * * * * * * * * * * * * * * * * * //

dimensions      [0 3 -1 0 0 0 0];

internalField   nonuniform List<scalar> 
99
(
8.34308e-08
1.3953e-07
1.96767e-07
2.42621e-07
2.55608e-07
2.89959e-07
3.31648e-07
3.83245e-07
4.30184e-07
4.70837e-07
5.12637e-07
5.64676e-07
6.06792e-07
6.55623e-07
6.87212e-07
7.27123e-07
7.74317e-07
8.1145e-07
8.53758e-07
8.90936e-07
9.25066e-07
9.31941e-07
9.40899e-07
9.62509e-07
9.93172e-07
1.02768e-06
1.0649e-06
1.11133e-06
1.15314e-06
1.1919e-06
1.23452e-06
1.26756e-06
1.29736e-06
1.31841e-06
1.35031e-06
1.37036e-06
1.40547e-06
1.4409e-06
1.47581e-06
1.49878e-06
1.5229e-06
1.54551e-06
1.58021e-06
1.60948e-06
1.64384e-06
1.67778e-06
1.7005e-06
1.74267e-06
1.76804e-06
1.79397e-06
1.82807e-06
1.86685e-06
1.89438e-06
1.92086e-06
1.9539e-06
1.98022e-06
2.01188e-06
2.03762e-06
2.06733e-06
2.0875e-06
2.11992e-06
2.14047e-06
2.16901e-06
2.20553e-06
2.23552e-06
2.26592e-06
2.29771e-06
2.31706e-06
2.34048e-06
2.36366e-06
2.39235e-06
2.4234e-06
2.44878e-06
2.4766e-06
2.50589e-06
2.53702e-06
2.5657e-06
2.59709e-06
2.63134e-06
2.6644e-06
2.68942e-06
2.71861e-06
2.75096e-06
2.78848e-06
2.82641e-06
2.86854e-06
2.91047e-06
2.95127e-06
2.9965e-06
3.0385e-06
3.07433e-06
3.12132e-06
3.16244e-06
3.20407e-06
3.2515e-06
3.30001e-06
3.34669e-06
3.39884e-06
3.44416e-06
)
;

boundaryField
{
    inlet
    {
        type            fixedValue;
        value           uniform 0;
    }
    outlet
    {
        type            calculated;
        value           uniform 3.50801e-06;
    }
    yzfaces
    {
        type            empty;
    }
}


// ************************************************************************* //
