/*--------------------------------*- C++ -*----------------------------------*\
| =========                 |                                                 |
| \\      /  F ield         | foam-extend: Open Source CFD                    |
|  \\    /   O peration     | Version:     5.0                                |
|   \\  /    A nd           | Web:         http://www.foam-extend.org         |
|    \\/     M anipulation  |                                                 |
\*---------------------------------------------------------------------------*/
FoamFile
{
    version     2.0;
    format      ascii;
    class       volScalarField;
    location    "7";
    object      alpha.gas;
}
// * * * * * * * * * * * * * * * * * * * * * * * * * * * * * * * * * * * * * //

dimensions      [0 0 0 0 0 0 0];

internalField   nonuniform List<scalar> 
100
(
0.163005
0.15077
0.143795
0.135497
0.128643
0.125586
0.122757
0.119172
0.114361
0.111042
0.10764
0.104518
0.101894
0.0992385
0.097287
0.0951326
0.0934304
0.0918266
0.0900476
0.0887346
0.0874239
0.0867795
0.0861348
0.0853244
0.0844405
0.0833311
0.0822977
0.0812103
0.0797992
0.0787748
0.0776755
0.076752
0.0758256
0.074947
0.0743895
0.0734887
0.0726962
0.0719344
0.0712842
0.0705715
0.06989
0.069295
0.0686001
0.0679832
0.0671433
0.0665055
0.0657644
0.065142
0.0646154
0.0640277
0.0635055
0.0628608
0.0623295
0.0618456
0.0614356
0.0609341
0.06038
0.0598057
0.0593606
0.0588527
0.0583712
0.0578432
0.0573962
0.0569934
0.0565235
0.0560282
0.0556574
0.0552471
0.0548948
0.0545164
0.0541527
0.0537816
0.0533779
0.052939
0.0525688
0.0521952
0.0517699
0.0513738
0.0509908
0.0505232
0.0501313
0.049731
0.0493315
0.0488641
0.048378
0.0479231
0.0474411
0.0468936
0.046366
0.0458782
0.0453718
0.0448683
0.0444001
0.0438893
0.043395
0.0428777
0.0423786
0.0418865
0.0413704
0.040868
)
;

boundaryField
{
    inlet
    {
        type            fixedValue;
        value           uniform 0.2;
    }
    outlet
    {
        type            zeroGradient;
    }
    yzfaces
    {
        type            empty;
    }
}


// ************************************************************************* //
