/*--------------------------------*- C++ -*----------------------------------*\
| =========                 |                                                 |
| \\      /  F ield         | foam-extend: Open Source CFD                    |
|  \\    /   O peration     | Version:     5.0                                |
|   \\  /    A nd           | Web:         http://www.foam-extend.org         |
|    \\/     M anipulation  |                                                 |
\*---------------------------------------------------------------------------*/
FoamFile
{
    version     2.0;
    format      ascii;
    class       volScalarField;
    location    "7";
    object      Cl.water;
}
// * * * * * * * * * * * * * * * * * * * * * * * * * * * * * * * * * * * * * //

dimensions      [0 0 0 0 0 0 0];

internalField   nonuniform List<scalar> 
100
(
0.00730958
0.0102055
0.0123751
0.0135326
0.0147843
0.0160806
0.0168228
0.0172049
0.0174052
0.0180816
0.0185391
0.0191952
0.0198414
0.0202071
0.0206539
0.0209885
0.0214986
0.0219509
0.0223985
0.0227621
0.022916
0.0232319
0.0234093
0.0235362
0.0236161
0.0237513
0.023941
0.0242076
0.0243152
0.0245812
0.0248027
0.0249706
0.0251612
0.0254394
0.0256915
0.0257735
0.0258626
0.0260279
0.0262327
0.0264076
0.026515
0.0266225
0.0267437
0.0269172
0.0270231
0.0272146
0.0273902
0.0275197
0.0276658
0.02776
0.0278646
0.0279376
0.0281089
0.0282483
0.0283533
0.0284327
0.0285139
0.0286452
0.0288137
0.0289094
0.0289937
0.0290887
0.0291996
0.029321
0.0293803
0.0294734
0.0296218
0.0297414
0.0298447
0.0298465
0.029922
0.0300143
0.0301116
0.0301875
0.0302746
0.0303743
0.0303935
0.0304567
0.0305073
0.0305725
0.0306629
0.0307876
0.0308117
0.0308877
0.0309607
0.031076
0.0311444
0.0311969
0.0312838
0.0314219
0.0315316
0.0316316
0.0317543
0.0318468
0.0319508
0.0320649
0.0321733
0.032281
0.0323941
0.0325189
)
;

boundaryField
{
    inlet
    {
        type            fixedValue;
        value           uniform 0;
    }
    outlet
    {
        type            zeroGradient;
    }
    yzfaces
    {
        type            empty;
    }
}


// ************************************************************************* //
