/*--------------------------------*- C++ -*----------------------------------*\
| =========                 |                                                 |
| \\      /  F ield         | foam-extend: Open Source CFD                    |
|  \\    /   O peration     | Version:     5.0                                |
|   \\  /    A nd           | Web:         http://www.foam-extend.org         |
|    \\/     M anipulation  |                                                 |
\*---------------------------------------------------------------------------*/
FoamFile
{
    version     2.0;
    format      ascii;
    class       volScalarField;
    location    "7";
    object      CO2.gas;
}
// * * * * * * * * * * * * * * * * * * * * * * * * * * * * * * * * * * * * * //

dimensions      [0 0 0 0 0 0 0];

internalField   nonuniform List<scalar> 
100
(
0.162687
0.150476
0.143515
0.135233
0.128392
0.125341
0.122518
0.11894
0.114138
0.110826
0.107431
0.104315
0.101696
0.0990452
0.0970976
0.0949473
0.0932485
0.0916478
0.0898722
0.0885618
0.0872536
0.0866105
0.0859671
0.0851582
0.084276
0.0831688
0.0821374
0.0810521
0.0796438
0.0786214
0.0775242
0.0766025
0.075678
0.0748011
0.0742446
0.0733455
0.0725546
0.0717943
0.0711453
0.070434
0.0697539
0.06916
0.0684665
0.0678508
0.0670126
0.066376
0.0656363
0.0650151
0.0644895
0.063903
0.0633819
0.0627383
0.0622081
0.0617252
0.061316
0.0608154
0.0602624
0.0596893
0.059245
0.0587381
0.0582575
0.0577305
0.0572844
0.0568824
0.0564134
0.0559191
0.055549
0.0551395
0.0547879
0.0544103
0.0540472
0.0536768
0.053274
0.0528359
0.0524664
0.0520935
0.0516691
0.0512738
0.0508915
0.0504249
0.0500337
0.0496341
0.0492354
0.0487689
0.0482838
0.0478298
0.0473487
0.0468022
0.0462757
0.0457889
0.0452835
0.0447809
0.0443136
0.0438038
0.0433104
0.0427942
0.0422961
0.0418049
0.0412898
0.0407884
)
;

boundaryField
{
    inlet
    {
        type            fixedValue;
        value           uniform 0.2;
    }
    outlet
    {
        type            zeroGradient;
    }
    yzfaces
    {
        type            empty;
    }
}


// ************************************************************************* //
