/*--------------------------------*- C++ -*----------------------------------*\
| =========                 |                                                 |
| \\      /  F ield         | foam-extend: Open Source CFD                    |
|  \\    /   O peration     | Version:     5.0                                |
|   \\  /    A nd           | Web:         http://www.foam-extend.org         |
|    \\/     M anipulation  |                                                 |
\*---------------------------------------------------------------------------*/
FoamFile
{
    version     2.0;
    format      ascii;
    class       volScalarField;
    location    "7";
    object      H2O.water;
}
// * * * * * * * * * * * * * * * * * * * * * * * * * * * * * * * * * * * * * //

dimensions      [0 0 0 0 0 0 0];

internalField   nonuniform List<scalar> 
100
(
0.0214039
0.0275241
0.029979
0.0357384
0.039905
0.0402954
0.0415571
0.0442976
0.048581
0.0504668
0.0528587
0.0545827
0.0558523
0.0577236
0.0587094
0.0601383
0.0607867
0.0614419
0.0622935
0.0628472
0.0638015
0.0637971
0.0640532
0.0645858
0.0652793
0.0660832
0.0667052
0.0672373
0.0683966
0.0688599
0.0694874
0.0700451
0.0705674
0.0708771
0.0709212
0.071629
0.0722211
0.0726332
0.0728543
0.0732028
0.0736629
0.07402
0.0744606
0.0747135
0.0753157
0.0755442
0.0759052
0.0762607
0.0764887
0.0768757
0.0771791
0.0776704
0.0778442
0.0780312
0.0782411
0.0785723
0.07894
0.0792257
0.0793271
0.079624
0.079924
0.0802478
0.0804655
0.0806173
0.0809562
0.081262
0.0813262
0.0814916
0.081625
0.0819921
0.0821932
0.0823693
0.0825582
0.0828447
0.0830311
0.0831968
0.0835713
0.0838406
0.0840983
0.0844216
0.0846266
0.0847682
0.0850897
0.0853954
0.0857381
0.0859509
0.0862674
0.0866952
0.0870262
0.087218
0.0874985
0.087797
0.0880042
0.0883056
0.0885788
0.0888593
0.0891199
0.0893994
0.0896662
0.0899142
)
;

boundaryField
{
    inlet
    {
        type            fixedValue;
        value           uniform 0;
    }
    outlet
    {
        type            zeroGradient;
    }
    yzfaces
    {
        type            empty;
    }
}


// ************************************************************************* //
