/*--------------------------------*- C++ -*----------------------------------*\
| =========                 |                                                 |
| \\      /  F ield         | foam-extend: Open Source CFD                    |
|  \\    /   O peration     | Version:     5.0                                |
|   \\  /    A nd           | Web:         http://www.foam-extend.org         |
|    \\/     M anipulation  |                                                 |
\*---------------------------------------------------------------------------*/
FoamFile
{
    version     2.0;
    format      ascii;
    class       volScalarField;
    location    "7";
    object      Na.water;
}
// * * * * * * * * * * * * * * * * * * * * * * * * * * * * * * * * * * * * * //

dimensions      [0 0 0 0 0 0 0];

internalField   nonuniform List<scalar> 
100
(
0.00730989
0.0102076
0.0123744
0.0135381
0.0147936
0.0160836
0.0168341
0.0172024
0.0174034
0.0180731
0.018536
0.0191961
0.0198353
0.0201844
0.020652
0.0209863
0.0214853
0.0219395
0.0223726
0.0227338
0.0229018
0.0232179
0.023412
0.0235417
0.0236291
0.0237702
0.0239648
0.0242248
0.024332
0.0246001
0.0248216
0.0249953
0.0251844
0.025452
0.0256987
0.0257861
0.0258765
0.0260409
0.0262482
0.0264187
0.0265148
0.0266296
0.0267445
0.0269187
0.0270284
0.0272294
0.0274145
0.0275356
0.0276743
0.0277654
0.0278658
0.0279293
0.0281017
0.0282463
0.0283306
0.0284084
0.0284991
0.0286412
0.0288047
0.0289068
0.0289913
0.0290867
0.0291933
0.0293123
0.0293717
0.0294551
0.0296035
0.0297181
0.0298244
0.0298239
0.0299015
0.0299945
0.0301014
0.0301663
0.0302533
0.0303518
0.0303722
0.0304252
0.0304899
0.0305567
0.030643
0.0307665
0.0308098
0.0308834
0.0309409
0.0310558
0.0311402
0.0311931
0.0312888
0.031434
0.0315368
0.0316287
0.0317547
0.0318581
0.0319623
0.0320713
0.0321883
0.0322803
0.032403
0.0325194
)
;

boundaryField
{
    inlet
    {
        type            fixedValue;
        value           uniform 0;
    }
    outlet
    {
        type            zeroGradient;
    }
    yzfaces
    {
        type            empty;
    }
}


// ************************************************************************* //
