/*--------------------------------*- C++ -*----------------------------------*\
| =========                 |                                                 |
| \\      /  F ield         | foam-extend: Open Source CFD                    |
|  \\    /   O peration     | Version:     5.0                                |
|   \\  /    A nd           | Web:         http://www.foam-extend.org         |
|    \\/     M anipulation  |                                                 |
\*---------------------------------------------------------------------------*/
FoamFile
{
    version     2.0;
    format      ascii;
    class       surfaceScalarField;
    location    "7";
    object      phi;
}
// * * * * * * * * * * * * * * * * * * * * * * * * * * * * * * * * * * * * * //

dimensions      [0 3 -1 0 0 0 0];

internalField   nonuniform List<scalar> 
99
(
1.22607e-06
1.23628e-06
1.21894e-06
1.21043e-06
1.20956e-06
1.20636e-06
1.19909e-06
1.18397e-06
1.18273e-06
1.17694e-06
1.1695e-06
1.16689e-06
1.16055e-06
1.16174e-06
1.15698e-06
1.15865e-06
1.16082e-06
1.16027e-06
1.16332e-06
1.16278e-06
1.16333e-06
1.16735e-06
1.16592e-06
1.1684e-06
1.16937e-06
1.16938e-06
1.16784e-06
1.17204e-06
1.16932e-06
1.16583e-06
1.16569e-06
1.16726e-06
1.16731e-06
1.16627e-06
1.16314e-06
1.16551e-06
1.16611e-06
1.16752e-06
1.16654e-06
1.16799e-06
1.16723e-06
1.16628e-06
1.16598e-06
1.16248e-06
1.16102e-06
1.16061e-06
1.15849e-06
1.159e-06
1.15648e-06
1.15441e-06
1.15675e-06
1.15637e-06
1.15686e-06
1.15101e-06
1.15245e-06
1.15426e-06
1.15759e-06
1.16063e-06
1.16362e-06
1.16551e-06
1.1627e-06
1.16231e-06
1.16257e-06
1.16287e-06
1.15958e-06
1.16217e-06
1.15967e-06
1.16202e-06
1.16246e-06
1.16305e-06
1.16425e-06
1.1656e-06
1.16449e-06
1.16664e-06
1.16698e-06
1.16432e-06
1.16081e-06
1.15627e-06
1.15343e-06
1.15172e-06
1.1523e-06
1.15226e-06
1.14976e-06
1.14651e-06
1.1413e-06
1.13805e-06
1.14174e-06
1.13965e-06
1.13918e-06
1.13875e-06
1.1413e-06
1.14271e-06
1.14315e-06
1.14332e-06
1.14431e-06
1.14232e-06
1.14254e-06
1.14209e-06
1.14296e-06
)
;

boundaryField
{
    inlet
    {
        type            calculated;
        value           uniform -1.225e-06;
    }
    outlet
    {
        type            calculated;
        value           uniform 1.14317e-06;
    }
    yzfaces
    {
        type            empty;
    }
}


// ************************************************************************* //
