/*--------------------------------*- C++ -*----------------------------------*\
| =========                 |                                                 |
| \\      /  F ield         | foam-extend: Open Source CFD                    |
|  \\    /   O peration     | Version:     5.0                                |
|   \\  /    A nd           | Web:         http://www.foam-extend.org         |
|    \\/     M anipulation  |                                                 |
\*---------------------------------------------------------------------------*/
FoamFile
{
    version     2.0;
    format      ascii;
    class       surfaceScalarField;
    location    "7";
    object      phi.water;
}
// * * * * * * * * * * * * * * * * * * * * * * * * * * * * * * * * * * * * * //

dimensions      [0 3 -1 0 0 0 0];

internalField   nonuniform List<scalar> 
99
(
8.35384e-08
1.4003e-07
1.80579e-07
2.2398e-07
2.79658e-07
3.12893e-07
3.34436e-07
3.65061e-07
4.09043e-07
4.56275e-07
5.028e-07
5.43006e-07
5.85196e-07
6.25823e-07
6.55278e-07
7.01789e-07
7.33385e-07
7.63181e-07
8.06461e-07
8.43297e-07
8.80872e-07
9.10055e-07
9.28545e-07
9.56912e-07
9.80157e-07
1.00554e-06
1.03814e-06
1.07728e-06
1.11399e-06
1.14112e-06
1.17446e-06
1.21142e-06
1.24038e-06
1.26631e-06
1.29462e-06
1.32971e-06
1.36073e-06
1.39996e-06
1.43176e-06
1.46111e-06
1.48502e-06
1.50582e-06
1.53535e-06
1.55364e-06
1.58884e-06
1.62108e-06
1.64808e-06
1.67152e-06
1.69096e-06
1.72084e-06
1.7534e-06
1.78544e-06
1.81044e-06
1.83027e-06
1.86497e-06
1.90162e-06
1.93614e-06
1.96973e-06
1.99991e-06
2.03017e-06
2.04935e-06
2.08267e-06
2.11455e-06
2.14425e-06
2.16412e-06
2.19896e-06
2.22256e-06
2.2574e-06
2.28508e-06
2.30916e-06
2.33835e-06
2.36616e-06
2.39131e-06
2.42327e-06
2.45038e-06
2.47017e-06
2.48995e-06
2.50067e-06
2.52717e-06
2.55263e-06
2.59008e-06
2.62165e-06
2.64235e-06
2.66498e-06
2.69046e-06
2.72509e-06
2.7775e-06
2.80756e-06
2.84359e-06
2.88391e-06
2.93231e-06
2.97487e-06
3.01619e-06
3.05818e-06
3.10023e-06
3.135e-06
3.17813e-06
3.21973e-06
3.26642e-06
)
;

boundaryField
{
    inlet
    {
        type            fixedValue;
        value           uniform 0;
    }
    outlet
    {
        type            calculated;
        value           uniform 3.31959e-06;
    }
    yzfaces
    {
        type            empty;
    }
}


// ************************************************************************* //
