/*--------------------------------*- C++ -*----------------------------------*\
| =========                 |                                                 |
| \\      /  F ield         | foam-extend: Open Source CFD                    |
|  \\    /   O peration     | Version:     5.0                                |
|   \\  /    A nd           | Web:         http://www.foam-extend.org         |
|    \\/     M anipulation  |                                                 |
\*---------------------------------------------------------------------------*/
FoamFile
{
    version     2.0;
    format      ascii;
    class       surfaceScalarField;
    location    "7";
    object      phi.water;
}
// * * * * * * * * * * * * * * * * * * * * * * * * * * * * * * * * * * * * * //

dimensions      [0 3 -1 0 0 0 0];

internalField   nonuniform List<scalar> 
99
(
8.37859e-08
1.403e-07
1.74708e-07
2.26544e-07
2.86769e-07
3.14701e-07
3.3919e-07
3.71206e-07
4.24499e-07
4.63081e-07
5.10552e-07
5.55278e-07
5.99004e-07
6.5019e-07
6.87147e-07
7.33857e-07
7.67069e-07
7.99996e-07
8.43158e-07
8.78899e-07
9.13343e-07
9.38578e-07
9.52168e-07
9.7155e-07
9.96782e-07
1.02833e-06
1.05912e-06
1.0877e-06
1.14053e-06
1.17134e-06
1.21489e-06
1.25085e-06
1.28312e-06
1.32379e-06
1.34074e-06
1.38158e-06
1.40978e-06
1.44252e-06
1.47081e-06
1.4994e-06
1.53271e-06
1.55738e-06
1.58788e-06
1.61215e-06
1.65175e-06
1.68096e-06
1.72366e-06
1.75935e-06
1.78214e-06
1.81863e-06
1.84651e-06
1.88808e-06
1.91469e-06
1.94264e-06
1.96612e-06
1.9956e-06
2.02713e-06
2.05997e-06
2.08813e-06
2.12087e-06
2.14965e-06
2.18657e-06
2.21833e-06
2.2381e-06
2.27375e-06
2.31771e-06
2.34051e-06
2.36756e-06
2.39261e-06
2.42241e-06
2.43767e-06
2.45384e-06
2.47867e-06
2.51132e-06
2.52958e-06
2.55235e-06
2.58695e-06
2.62036e-06
2.64856e-06
2.68627e-06
2.71139e-06
2.74417e-06
2.76985e-06
2.81048e-06
2.84816e-06
2.88354e-06
2.92231e-06
2.96901e-06
3.01669e-06
3.04936e-06
3.0948e-06
3.13722e-06
3.17088e-06
3.21699e-06
3.26204e-06
3.3109e-06
3.34852e-06
3.39168e-06
3.43752e-06
)
;

boundaryField
{
    inlet
    {
        type            fixedValue;
        value           uniform 0;
    }
    outlet
    {
        type            calculated;
        value           uniform 3.4883e-06;
    }
    yzfaces
    {
        type            empty;
    }
}


// ************************************************************************* //
