/*--------------------------------*- C++ -*----------------------------------*\
| =========                 |                                                 |
| \\      /  F ield         | foam-extend: Open Source CFD                    |
|  \\    /   O peration     | Version:     5.0                                |
|   \\  /    A nd           | Web:         http://www.foam-extend.org         |
|    \\/     M anipulation  |                                                 |
\*---------------------------------------------------------------------------*/
FoamFile
{
    version     2.0;
    format      ascii;
    class       volVectorField;
    location    "7";
    object      U.gas;
}
// * * * * * * * * * * * * * * * * * * * * * * * * * * * * * * * * * * * * * //

dimensions      [0 1 -1 0 0 0 0];

internalField   nonuniform List<vector> 
100
(
(0.0061344 0 0)
(0.00663818 0 0)
(0.00696241 0 0)
(0.00722163 0 0)
(0.00753697 0 0)
(0.00772192 0 0)
(0.00783914 0 0)
(0.00797533 0 0)
(0.00816799 0 0)
(0.00838979 0 0)
(0.0085715 0 0)
(0.00872459 0 0)
(0.00888031 0 0)
(0.00901794 0 0)
(0.00913448 0 0)
(0.00929525 0 0)
(0.00941314 0 0)
(0.00953574 0 0)
(0.00968608 0 0)
(0.00982304 0 0)
(0.0099335 0 0)
(0.010024 0 0)
(0.0100986 0 0)
(0.0101794 0 0)
(0.0102633 0 0)
(0.0103435 0 0)
(0.010439 0 0)
(0.0105466 0 0)
(0.0106559 0 0)
(0.0107039 0 0)
(0.0107728 0 0)
(0.0108641 0 0)
(0.0109316 0 0)
(0.0109923 0 0)
(0.0110434 0 0)
(0.011111 0 0)
(0.0111934 0 0)
(0.011279 0 0)
(0.0113405 0 0)
(0.0113898 0 0)
(0.0114399 0 0)
(0.011477 0 0)
(0.0115246 0 0)
(0.0115461 0 0)
(0.0115957 0 0)
(0.0116366 0 0)
(0.0116657 0 0)
(0.0116892 0 0)
(0.0117197 0 0)
(0.0117477 0 0)
(0.0117927 0 0)
(0.0118473 0 0)
(0.0118793 0 0)
(0.0118907 0 0)
(0.0119143 0 0)
(0.0119686 0 0)
(0.0120256 0 0)
(0.012093 0 0)
(0.0121488 0 0)
(0.012206 0 0)
(0.0122273 0 0)
(0.0122512 0 0)
(0.0122801 0 0)
(0.0123078 0 0)
(0.0123115 0 0)
(0.0123387 0 0)
(0.0123639 0 0)
(0.012386 0 0)
(0.0124132 0 0)
(0.0124331 0 0)
(0.0124656 0 0)
(0.0124955 0 0)
(0.0125175 0 0)
(0.0125365 0 0)
(0.012565 0 0)
(0.0125653 0 0)
(0.0125471 0 0)
(0.012509 0 0)
(0.0124945 0 0)
(0.012481 0 0)
(0.012496 0 0)
(0.0125034 0 0)
(0.0124914 0 0)
(0.0124759 0 0)
(0.0124485 0 0)
(0.012413 0 0)
(0.0124239 0 0)
(0.0124272 0 0)
(0.0124189 0 0)
(0.0124158 0 0)
(0.0124271 0 0)
(0.0124428 0 0)
(0.012448 0 0)
(0.0124433 0 0)
(0.012439 0 0)
(0.012423 0 0)
(0.0124019 0 0)
(0.0123869 0 0)
(0.0123728 0 0)
(0.0123626 0 0)
)
;

boundaryField
{
    inlet
    {
        type            fixedValue;
        value           uniform (0.005 0 0);
    }
    outlet
    {
        type            zeroGradient;
    }
    yzfaces
    {
        type            empty;
    }
}


// ************************************************************************* //
