/*--------------------------------*- C++ -*----------------------------------*\
| =========                 |                                                 |
| \\      /  F ield         | foam-extend: Open Source CFD                    |
|  \\    /   O peration     | Version:     5.0                                |
|   \\  /    A nd           | Web:         http://www.foam-extend.org         |
|    \\/     M anipulation  |                                                 |
\*---------------------------------------------------------------------------*/
FoamFile
{
    version     2.0;
    format      ascii;
    class       volVectorField;
    location    "7";
    object      U.gas;
}
// * * * * * * * * * * * * * * * * * * * * * * * * * * * * * * * * * * * * * //

dimensions      [0 1 -1 0 0 0 0];

internalField   nonuniform List<vector> 
100
(
(0.00616286 0 0)
(0.00665703 0 0)
(0.00692221 0 0)
(0.00726762 0 0)
(0.00759149 0 0)
(0.00777131 0 0)
(0.00794372 0 0)
(0.00813653 0 0)
(0.00837109 0 0)
(0.00851449 0 0)
(0.00871746 0 0)
(0.00890389 0 0)
(0.00906881 0 0)
(0.00929365 0 0)
(0.00946698 0 0)
(0.00965421 0 0)
(0.00977771 0 0)
(0.00987635 0 0)
(0.0100083 0 0)
(0.0101235 0 0)
(0.0102393 0 0)
(0.010329 0 0)
(0.0104218 0 0)
(0.0104604 0 0)
(0.0105235 0 0)
(0.0106251 0 0)
(0.0107097 0 0)
(0.0107808 0 0)
(0.0109242 0 0)
(0.0110231 0 0)
(0.0111302 0 0)
(0.0112422 0 0)
(0.0113217 0 0)
(0.0114189 0 0)
(0.0114756 0 0)
(0.0115708 0 0)
(0.011643 0 0)
(0.0116966 0 0)
(0.0117508 0 0)
(0.0118099 0 0)
(0.0118725 0 0)
(0.0119223 0 0)
(0.0119799 0 0)
(0.0120152 0 0)
(0.0120691 0 0)
(0.0120966 0 0)
(0.0121761 0 0)
(0.0122588 0 0)
(0.0122979 0 0)
(0.0123401 0 0)
(0.0123871 0 0)
(0.0124703 0 0)
(0.0125222 0 0)
(0.0125453 0 0)
(0.0125731 0 0)
(0.0126225 0 0)
(0.0126651 0 0)
(0.0126958 0 0)
(0.0127113 0 0)
(0.012762 0 0)
(0.0127939 0 0)
(0.012831 0 0)
(0.0128727 0 0)
(0.0128879 0 0)
(0.0129148 0 0)
(0.0129875 0 0)
(0.0130243 0 0)
(0.0130454 0 0)
(0.0130549 0 0)
(0.0130851 0 0)
(0.0130881 0 0)
(0.0130565 0 0)
(0.0130374 0 0)
(0.0130493 0 0)
(0.0130405 0 0)
(0.0130214 0 0)
(0.0130344 0 0)
(0.0130595 0 0)
(0.0130814 0 0)
(0.0131148 0 0)
(0.0131133 0 0)
(0.0131153 0 0)
(0.013114 0 0)
(0.0131278 0 0)
(0.0131452 0 0)
(0.0131394 0 0)
(0.0131422 0 0)
(0.013161 0 0)
(0.013173 0 0)
(0.0131562 0 0)
(0.0131394 0 0)
(0.0131337 0 0)
(0.0131054 0 0)
(0.0130895 0 0)
(0.0130843 0 0)
(0.0130865 0 0)
(0.0130578 0 0)
(0.0130203 0 0)
(0.0129962 0 0)
(0.0129752 0 0)
)
;

boundaryField
{
    inlet
    {
        type            fixedValue;
        value           uniform (0.005 0 0);
    }
    outlet
    {
        type            zeroGradient;
    }
    yzfaces
    {
        type            empty;
    }
}


// ************************************************************************* //
