/*--------------------------------*- C++ -*----------------------------------*\
| =========                 |                                                 |
| \\      /  F ield         | foam-extend: Open Source CFD                    |
|  \\    /   O peration     | Version:     5.0                                |
|   \\  /    A nd           | Web:         http://www.foam-extend.org         |
|    \\/     M anipulation  |                                                 |
\*---------------------------------------------------------------------------*/
FoamFile
{
    version     2.0;
    format      ascii;
    class       volScalarField;
    location    "3";
    object      alpha.gas;
}
// * * * * * * * * * * * * * * * * * * * * * * * * * * * * * * * * * * * * * //

dimensions      [0 0 0 0 0 0 0];

internalField   nonuniform List<scalar> 
100
(
0.141314
0.125007
0.115186
0.107373
0.100389
0.0948621
0.0906902
0.0877717
0.0841351
0.0815284
0.0790396
0.0764798
0.0739859
0.0718764
0.0698714
0.0678409
0.0661577
0.0642324
0.0624254
0.0605798
0.0584529
0.0567033
0.0544904
0.0519316
0.0485256
0.0439854
0.0366269
0.0210838
0.0234487
0.0243672
0.0248225
0.0250901
0.0252753
0.0253873
0.025459
0.02549
0.0254921
0.0254773
0.0254487
0.0253784
0.0252675
0.025086
0.0248271
0.0244697
0.0239872
0.0233529
0.0225514
0.0215727
0.0204073
0.0190691
0.0176203
0.0161182
0.0146634
0.0133684
0.012307
0.0115117
0.0109508
0.0105832
0.0103509
0.0102068
0.0101188
0.0100676
0.0100381
0.0100207
0.0100119
0.0100058
0.0100045
0.0100021
0.010002
0.0100015
0.0100029
0.0100014
0.0100006
0.0100002
0.00999984
0.0100014
0.0100019
0.0100037
0.0100042
0.0100041
0.0100054
0.0100046
0.0100045
0.0100026
0.0100025
0.0100009
0.0100003
0.0100005
0.0100001
0.0100013
0.0100002
0.010001
0.00999982
0.00999927
0.010001
0.0100012
0.00999995
0.00999985
0.00999908
0.0100012
)
;

boundaryField
{
    inlet
    {
        type            fixedValue;
        value           uniform 0.2;
    }
    outlet
    {
        type            zeroGradient;
    }
    yzfaces
    {
        type            empty;
    }
}


// ************************************************************************* //
