/*--------------------------------*- C++ -*----------------------------------*\
| =========                 |                                                 |
| \\      /  F ield         | foam-extend: Open Source CFD                    |
|  \\    /   O peration     | Version:     5.0                                |
|   \\  /    A nd           | Web:         http://www.foam-extend.org         |
|    \\/     M anipulation  |                                                 |
\*---------------------------------------------------------------------------*/
FoamFile
{
    version     2.0;
    format      ascii;
    class       volScalarField;
    location    "3";
    object      Cl.water;
}
// * * * * * * * * * * * * * * * * * * * * * * * * * * * * * * * * * * * * * //

dimensions      [0 0 0 0 0 0 0];

internalField   nonuniform List<scalar> 
100
(
0.011812
0.0152351
0.0174058
0.0189778
0.0202842
0.0213483
0.0222953
0.0230346
0.0236603
0.0242745
0.0247871
0.0253517
0.0257732
0.026265
0.0266535
0.0269972
0.0273546
0.027732
0.0281458
0.0285652
0.0289559
0.0293517
0.0297928
0.0302987
0.0309472
0.0319429
0.0334783
0.0366601
0.036825
0.0368479
0.0368644
0.0368017
0.0367565
0.0367201
0.0367188
0.0366984
0.0367215
0.0367322
0.0367315
0.0367573
0.0367692
0.0368182
0.0368996
0.0369497
0.03706
0.0372026
0.0373767
0.0375969
0.0377924
0.0380744
0.0383901
0.0387116
0.0389857
0.0392624
0.039486
0.0396667
0.0397813
0.0398931
0.0399219
0.039949
0.0399954
0.0399992
0.0400087
0.0399994
0.0399691
0.0399437
0.039972
0.039979
0.0399704
0.0399978
0.040023
0.0400408
0.0400362
0.040051
0.0400381
0.0400684
0.0400473
0.0400528
0.0400493
0.0400449
0.0400723
0.0400479
0.0400265
0.0400064
0.0400114
0.0400145
0.0399879
0.039978
0.0399534
0.0400029
0.040007
0.0400225
0.0400007
0.0399915
0.0400012
0.0399805
0.0399885
0.0400049
0.0399834
0.0400032
)
;

boundaryField
{
    inlet
    {
        type            fixedValue;
        value           uniform 0;
    }
    outlet
    {
        type            zeroGradient;
    }
    yzfaces
    {
        type            empty;
    }
}


// ************************************************************************* //
