/*--------------------------------*- C++ -*----------------------------------*\
| =========                 |                                                 |
| \\      /  F ield         | foam-extend: Open Source CFD                    |
|  \\    /   O peration     | Version:     5.0                                |
|   \\  /    A nd           | Web:         http://www.foam-extend.org         |
|    \\/     M anipulation  |                                                 |
\*---------------------------------------------------------------------------*/
FoamFile
{
    version     2.0;
    format      ascii;
    class       volScalarField;
    location    "3";
    object      H2O.gas;
}
// * * * * * * * * * * * * * * * * * * * * * * * * * * * * * * * * * * * * * //

dimensions      [0 0 0 0 0 0 0];

internalField   nonuniform List<scalar> 
100
(
0.000275205
0.000243448
0.000224322
0.000209105
0.000195505
0.000184741
0.000176617
0.000170933
0.000163851
0.000158774
0.000153927
0.000148942
0.000144085
0.000139977
0.000136073
0.000132118
0.00012884
0.000125091
0.000121572
0.000117977
0.000113835
0.000110428
0.000106118
0.000101135
9.45022e-05
8.56603e-05
7.13298e-05
4.10601e-05
0.00111378
0.00220178
0.00339073
0.00467325
0.00604548
0.00748212
0.00897349
0.0104708
0.0119711
0.0134403
0.0148463
0.0161763
0.0173828
0.0184607
0.0193762
0.020059
0.0205193
0.0207121
0.0206166
0.0202231
0.0194853
0.0184884
0.017282
0.0159412
0.0145692
0.0133242
0.0122888
0.0115092
0.0109489
0.0105917
0.0103558
0.0102103
0.0101257
0.0100714
0.0100419
0.010022
0.010007
0.00999579
0.01
0.0100019
0.00999746
0.0100032
0.0100082
0.0100086
0.0100054
0.0100102
0.0100066
0.0100144
0.0100081
0.0100129
0.0100155
0.0100149
0.0100201
0.0100129
0.0100105
0.0100052
0.0100039
0.0100049
0.00999814
0.00999703
0.00999104
0.0100038
0.0100024
0.0100066
0.0100011
0.0099973
0.0100003
0.00999974
0.0100004
0.0100049
0.00999825
0.0100063
)
;

boundaryField
{
    inlet
    {
        type            fixedValue;
        value           uniform 0;
    }
    outlet
    {
        type            zeroGradient;
    }
    yzfaces
    {
        type            empty;
    }
}


// ************************************************************************* //
