/*--------------------------------*- C++ -*----------------------------------*\
| =========                 |                                                 |
| \\      /  F ield         | foam-extend: Open Source CFD                    |
|  \\    /   O peration     | Version:     5.0                                |
|   \\  /    A nd           | Web:         http://www.foam-extend.org         |
|    \\/     M anipulation  |                                                 |
\*---------------------------------------------------------------------------*/
FoamFile
{
    version     2.0;
    format      ascii;
    class       volScalarField;
    location    "3";
    object      Na.water;
}
// * * * * * * * * * * * * * * * * * * * * * * * * * * * * * * * * * * * * * //

dimensions      [0 0 0 0 0 0 0];

internalField   nonuniform List<scalar> 
100
(
0.0118125
0.0152406
0.0174248
0.0189832
0.0202941
0.0213488
0.0223086
0.0230444
0.0236757
0.0242914
0.0248106
0.0253681
0.0257843
0.0262798
0.0266782
0.0270158
0.0273895
0.0277511
0.0281422
0.0285599
0.0289685
0.0293661
0.0298109
0.0303085
0.0309517
0.0319561
0.0334891
0.0366572
0.0368245
0.0368423
0.0368659
0.0368113
0.036772
0.0367364
0.0367326
0.0367098
0.0367238
0.0367365
0.0367277
0.0367496
0.036759
0.0368239
0.0369034
0.0369448
0.0370541
0.0371974
0.0373761
0.0376074
0.0378138
0.0380889
0.0383884
0.0387159
0.0389862
0.0392588
0.0394904
0.0396874
0.0398007
0.0399101
0.0399468
0.0399634
0.0399883
0.0399947
0.0400096
0.0400056
0.03998
0.0399523
0.0399733
0.0399899
0.0399664
0.0399948
0.0400048
0.0400105
0.0400059
0.0400339
0.0400269
0.040051
0.0400254
0.040043
0.0400544
0.0400502
0.0400558
0.0400262
0.0400239
0.0400163
0.0400083
0.0400182
0.0399939
0.0399895
0.0399641
0.0400031
0.0399969
0.0400064
0.039997
0.039983
0.039992
0.0399969
0.0400112
0.040013
0.0399912
0.0400243
)
;

boundaryField
{
    inlet
    {
        type            fixedValue;
        value           uniform 0;
    }
    outlet
    {
        type            zeroGradient;
    }
    yzfaces
    {
        type            empty;
    }
}


// ************************************************************************* //
