/*--------------------------------*- C++ -*----------------------------------*\
| =========                 |                                                 |
| \\      /  F ield         | foam-extend: Open Source CFD                    |
|  \\    /   O peration     | Version:     5.0                                |
|   \\  /    A nd           | Web:         http://www.foam-extend.org         |
|    \\/     M anipulation  |                                                 |
\*---------------------------------------------------------------------------*/
FoamFile
{
    version     2.0;
    format      ascii;
    class       surfaceScalarField;
    location    "3";
    object      phi;
}
// * * * * * * * * * * * * * * * * * * * * * * * * * * * * * * * * * * * * * //

dimensions      [0 3 -1 0 0 0 0];

internalField   nonuniform List<scalar> 
99
(
1.22357e-06
1.21735e-06
1.21423e-06
1.21406e-06
1.21279e-06
1.21234e-06
1.21202e-06
1.20985e-06
1.2059e-06
1.20669e-06
1.20185e-06
1.20472e-06
1.20538e-06
1.20591e-06
1.207e-06
1.2088e-06
1.21032e-06
1.20943e-06
1.20799e-06
1.20479e-06
1.20869e-06
1.2075e-06
1.20979e-06
1.20799e-06
1.20758e-06
1.21191e-06
1.21108e-06
1.21129e-06
1.21056e-06
1.21172e-06
1.21154e-06
1.21244e-06
1.2116e-06
1.21159e-06
1.21141e-06
1.21241e-06
1.21121e-06
1.21365e-06
1.21265e-06
1.21384e-06
1.21399e-06
1.21402e-06
1.21376e-06
1.21414e-06
1.21477e-06
1.21577e-06
1.21536e-06
1.21448e-06
1.21457e-06
1.21563e-06
1.21479e-06
1.21508e-06
1.21521e-06
1.2152e-06
1.21753e-06
1.21644e-06
1.21769e-06
1.21606e-06
1.21577e-06
1.21449e-06
1.21309e-06
1.21213e-06
1.2141e-06
1.21318e-06
1.2111e-06
1.21132e-06
1.21001e-06
1.21014e-06
1.21058e-06
1.21174e-06
1.2103e-06
1.20906e-06
1.20846e-06
1.20782e-06
1.20901e-06
1.20879e-06
1.21022e-06
1.21026e-06
1.20993e-06
1.21148e-06
1.21089e-06
1.20964e-06
1.20941e-06
1.20795e-06
1.20843e-06
1.2071e-06
1.20713e-06
1.20687e-06
1.20745e-06
1.20915e-06
1.2088e-06
1.20803e-06
1.20718e-06
1.20753e-06
1.20661e-06
1.20674e-06
1.2078e-06
1.2064e-06
1.20643e-06
)
;

boundaryField
{
    inlet
    {
        type            calculated;
        value           uniform -1.225e-06;
    }
    outlet
    {
        type            calculated;
        value           uniform 1.20631e-06;
    }
    yzfaces
    {
        type            empty;
    }
}


// ************************************************************************* //
