/*--------------------------------*- C++ -*----------------------------------*\
| =========                 |                                                 |
| \\      /  F ield         | foam-extend: Open Source CFD                    |
|  \\    /   O peration     | Version:     5.0                                |
|   \\  /    A nd           | Web:         http://www.foam-extend.org         |
|    \\/     M anipulation  |                                                 |
\*---------------------------------------------------------------------------*/
FoamFile
{
    version     2.0;
    format      ascii;
    class       surfaceScalarField;
    location    "3";
    object      phi.water;
}
// * * * * * * * * * * * * * * * * * * * * * * * * * * * * * * * * * * * * * //

dimensions      [0 3 -1 0 0 0 0];

internalField   nonuniform List<scalar> 
99
(
1.77688e-07
3.04499e-07
4.09674e-07
5.11316e-07
6.25454e-07
7.34563e-07
8.27273e-07
9.04934e-07
9.97091e-07
1.07597e-06
1.1568e-06
1.24193e-06
1.33719e-06
1.42522e-06
1.50953e-06
1.60619e-06
1.68627e-06
1.78669e-06
1.88552e-06
1.98076e-06
2.10881e-06
2.22175e-06
2.36654e-06
2.5437e-06
2.79292e-06
3.1497e-06
3.74681e-06
5.4691e-06
5.24501e-06
5.15741e-06
5.11226e-06
5.09253e-06
5.07233e-06
5.06151e-06
5.05294e-06
5.05425e-06
5.04789e-06
5.05986e-06
5.05773e-06
5.06971e-06
5.07899e-06
5.09121e-06
5.11263e-06
5.14736e-06
5.19168e-06
5.24922e-06
5.3141e-06
5.39398e-06
5.49124e-06
5.59831e-06
5.69676e-06
5.79838e-06
5.88798e-06
5.95681e-06
6.01766e-06
6.04621e-06
6.07354e-06
6.07779e-06
6.08653e-06
6.08459e-06
6.08053e-06
6.07845e-06
6.09013e-06
6.08871e-06
6.08204e-06
6.08327e-06
6.07364e-06
6.07438e-06
6.07609e-06
6.07898e-06
6.06999e-06
6.06391e-06
6.06007e-06
6.05627e-06
6.06141e-06
6.06043e-06
6.06882e-06
6.0674e-06
6.06529e-06
6.07189e-06
6.06969e-06
6.06608e-06
6.06674e-06
6.06078e-06
6.0628e-06
6.05733e-06
6.05959e-06
6.06042e-06
6.06157e-06
6.06664e-06
6.06404e-06
6.06035e-06
6.0585e-06
6.0608e-06
6.05597e-06
6.05631e-06
6.0597e-06
6.05313e-06
6.05311e-06
)
;

boundaryField
{
    inlet
    {
        type            fixedValue;
        value           uniform 0;
    }
    outlet
    {
        type            calculated;
        value           uniform 6.05097e-06;
    }
    yzfaces
    {
        type            empty;
    }
}


// ************************************************************************* //
