/*--------------------------------*- C++ -*----------------------------------*\
| =========                 |                                                 |
| \\      /  F ield         | foam-extend: Open Source CFD                    |
|  \\    /   O peration     | Version:     5.0                                |
|   \\  /    A nd           | Web:         http://www.foam-extend.org         |
|    \\/     M anipulation  |                                                 |
\*---------------------------------------------------------------------------*/
FoamFile
{
    version     2.0;
    format      ascii;
    class       volVectorField;
    location    "3";
    object      U.gas;
}
// * * * * * * * * * * * * * * * * * * * * * * * * * * * * * * * * * * * * * //

dimensions      [0 1 -1 0 0 0 0];

internalField   nonuniform List<vector> 
100
(
(0.00703517 0 0)
(0.00784629 0 0)
(0.00840623 0 0)
(0.00889813 0 0)
(0.00939922 0 0)
(0.00980549 0 0)
(0.0101195 0 0)
(0.0103721 0 0)
(0.010635 0 0)
(0.0108394 0 0)
(0.0110466 0 0)
(0.011245 0 0)
(0.0114857 0 0)
(0.0116691 0 0)
(0.0118402 0 0)
(0.0120335 0 0)
(0.0121847 0 0)
(0.0123676 0 0)
(0.0125018 0 0)
(0.012608 0 0)
(0.0127747 0 0)
(0.0129093 0 0)
(0.0130742 0 0)
(0.0132664 0 0)
(0.0134819 0 0)
(0.0137574 0 0)
(0.0142262 0 0)
(0.0156142 0 0)
(0.00915852 0 0)
(0.00994187 0 0)
(0.0102443 0 0)
(0.0103899 0 0)
(0.010472 0 0)
(0.0105243 0 0)
(0.0105579 0 0)
(0.0105853 0 0)
(0.0105935 0 0)
(0.0105994 0 0)
(0.0106037 0 0)
(0.0105995 0 0)
(0.010588 0 0)
(0.0105644 0 0)
(0.0105183 0 0)
(0.0104501 0 0)
(0.0103568 0 0)
(0.0102296 0 0)
(0.0100462 0 0)
(0.00979148 0 0)
(0.00946889 0 0)
(0.00906927 0 0)
(0.008576 0 0)
(0.00800632 0 0)
(0.00738525 0 0)
(0.00675501 0 0)
(0.00617867 0 0)
(0.00569419 0 0)
(0.00532425 0 0)
(0.0050613 0 0)
(0.00488524 0 0)
(0.00477361 0 0)
(0.00470251 0 0)
(0.00465683 0 0)
(0.00463391 0 0)
(0.00462237 0 0)
(0.0046091 0 0)
(0.0046013 0 0)
(0.00459678 0 0)
(0.00459484 0 0)
(0.00459443 0 0)
(0.00459683 0 0)
(0.00459597 0 0)
(0.00459175 0 0)
(0.00458798 0 0)
(0.00458551 0 0)
(0.00458652 0 0)
(0.00458799 0 0)
(0.00459046 0 0)
(0.00459294 0 0)
(0.00459285 0 0)
(0.00459633 0 0)
(0.00459864 0 0)
(0.00459527 0 0)
(0.0045916 0 0)
(0.00458853 0 0)
(0.00458627 0 0)
(0.00458361 0 0)
(0.00458129 0 0)
(0.00458124 0 0)
(0.00458122 0 0)
(0.004585 0 0)
(0.00458766 0 0)
(0.00458561 0 0)
(0.00458286 0 0)
(0.00458118 0 0)
(0.00458051 0 0)
(0.00457937 0 0)
(0.00458135 0 0)
(0.00457994 0 0)
(0.00457826 0 0)
(0.00457665 0 0)
)
;

boundaryField
{
    inlet
    {
        type            fixedValue;
        value           uniform (0.005 0 0);
    }
    outlet
    {
        type            zeroGradient;
    }
    yzfaces
    {
        type            empty;
    }
}


// ************************************************************************* //
