/*--------------------------------*- C++ -*----------------------------------*\
| =========                 |                                                 |
| \\      /  F ield         | foam-extend: Open Source CFD                    |
|  \\    /   O peration     | Version:     5.0                                |
|   \\  /    A nd           | Web:         http://www.foam-extend.org         |
|    \\/     M anipulation  |                                                 |
\*---------------------------------------------------------------------------*/
FoamFile
{
    version     2.0;
    format      ascii;
    class       volVectorField;
    location    "3";
    object      U.water;
}
// * * * * * * * * * * * * * * * * * * * * * * * * * * * * * * * * * * * * * //

dimensions      [0 1 -1 0 0 0 0];

internalField   nonuniform List<vector> 
100
(
(8.25988e-05 0 0)
(0.000197305 0 0)
(0.000291938 0 0)
(0.000377033 0 0)
(0.000463671 0 0)
(0.000554097 0 0)
(0.000636926 0 0)
(0.00070809 0 0)
(0.000775969 0 0)
(0.000846684 0 0)
(0.000911842 0 0)
(0.000979684 0 0)
(0.00105217 0 0)
(0.00112718 0 0)
(0.00119783 0 0)
(0.00127066 0 0)
(0.00134451 0 0)
(0.00141802 0 0)
(0.00149963 0 0)
(0.0015791 0 0)
(0.00166863 0 0)
(0.00176848 0 0)
(0.00187469 0 0)
(0.00200744 0 0)
(0.00218298 0 0)
(0.00243885 0 0)
(0.00285804 0 0)
(0.00368119 0 0)
(0.0043826 0 0)
(0.00424994 0 0)
(0.00419458 0 0)
(0.00416613 0 0)
(0.00414779 0 0)
(0.00413414 0 0)
(0.00412616 0 0)
(0.00412294 0 0)
(0.0041212 0 0)
(0.0041238 0 0)
(0.0041276 0 0)
(0.00413125 0 0)
(0.00414013 0 0)
(0.00415062 0 0)
(0.00416613 0 0)
(0.00418885 0 0)
(0.00422106 0 0)
(0.00426369 0 0)
(0.0043153 0 0)
(0.00437459 0 0)
(0.0044446 0 0)
(0.00452646 0 0)
(0.00461069 0 0)
(0.00469179 0 0)
(0.00476787 0 0)
(0.00483144 0 0)
(0.00488515 0 0)
(0.00492289 0 0)
(0.00494696 0 0)
(0.00496156 0 0)
(0.00496715 0 0)
(0.00496973 0 0)
(0.00496768 0 0)
(0.00496494 0 0)
(0.00496826 0 0)
(0.0049711 0 0)
(0.00496535 0 0)
(0.00496176 0 0)
(0.00495964 0 0)
(0.0049572 0 0)
(0.00495844 0 0)
(0.00496176 0 0)
(0.00496121 0 0)
(0.00495566 0 0)
(0.0049519 0 0)
(0.00494937 0 0)
(0.0049505 0 0)
(0.00495251 0 0)
(0.00495498 0 0)
(0.00495801 0 0)
(0.00495739 0 0)
(0.00495984 0 0)
(0.00496178 0 0)
(0.004958 0 0)
(0.00495502 0 0)
(0.00495155 0 0)
(0.00494956 0 0)
(0.00494786 0 0)
(0.0049452 0 0)
(0.0049447 0 0)
(0.00494537 0 0)
(0.00495008 0 0)
(0.00495284 0 0)
(0.00495056 0 0)
(0.00494723 0 0)
(0.00494623 0 0)
(0.00494504 0 0)
(0.0049434 0 0)
(0.00494584 0 0)
(0.0049452 0 0)
(0.00494235 0 0)
(0.00494225 0 0)
)
;

boundaryField
{
    inlet
    {
        type            fixedValue;
        value           uniform (0 0 0);
    }
    outlet
    {
        type            zeroGradient;
    }
    yzfaces
    {
        type            empty;
    }
}


// ************************************************************************* //
