/*--------------------------------*- C++ -*----------------------------------*\
| =========                 |                                                 |
| \\      /  F ield         | foam-extend: Open Source CFD                    |
|  \\    /   O peration     | Version:     5.0                                |
|   \\  /    A nd           | Web:         http://www.foam-extend.org         |
|    \\/     M anipulation  |                                                 |
\*---------------------------------------------------------------------------*/
FoamFile
{
    version     2.0;
    format      ascii;
    class       volScalarField;
    location    "10";
    object      alpha.gas;
}
// * * * * * * * * * * * * * * * * * * * * * * * * * * * * * * * * * * * * * //

dimensions      [0 0 0 0 0 0 0];

internalField   nonuniform List<scalar> 
100
(
0.15882
0.147679
0.148111
0.148868
0.140949
0.127646
0.124362
0.124603
0.12353
0.123804
0.119887
0.114579
0.110128
0.10542
0.101383
0.0983966
0.0950592
0.0925141
0.0901574
0.0878675
0.0862811
0.0860814
0.0858454
0.0850552
0.0847814
0.0837074
0.083673
0.0825684
0.0812087
0.0797806
0.0784555
0.0774655
0.0762182
0.0753505
0.0744543
0.0733744
0.0731554
0.0721062
0.0714105
0.0710109
0.0706141
0.0697555
0.0691992
0.0686576
0.0684037
0.0676475
0.0670391
0.0665791
0.066027
0.0655995
0.0650116
0.0647749
0.0639803
0.0635429
0.0629629
0.0624576
0.061692
0.0612253
0.0609627
0.0603508
0.0599554
0.0594019
0.0587575
0.0582042
0.0577718
0.0573792
0.0569825
0.0566145
0.0562377
0.0556667
0.0552733
0.055016
0.0544424
0.0541137
0.053677
0.0535615
0.0528967
0.0527071
0.0524073
0.0520537
0.0515731
0.0511486
0.0506517
0.0498464
0.0488165
0.0474969
0.0454298
0.0423302
0.0364583
0.022699
0.024282
0.0244365
0.0243012
0.0241573
0.0240407
0.0239501
0.0238735
0.023814
0.0237679
0.0237446
)
;

boundaryField
{
    inlet
    {
        type            fixedValue;
        value           uniform 0.2;
    }
    outlet
    {
        type            zeroGradient;
    }
    yzfaces
    {
        type            empty;
    }
}


// ************************************************************************* //
