/*--------------------------------*- C++ -*----------------------------------*\
| =========                 |                                                 |
| \\      /  F ield         | foam-extend: Open Source CFD                    |
|  \\    /   O peration     | Version:     5.0                                |
|   \\  /    A nd           | Web:         http://www.foam-extend.org         |
|    \\/     M anipulation  |                                                 |
\*---------------------------------------------------------------------------*/
FoamFile
{
    version     2.0;
    format      ascii;
    class       volScalarField;
    location    "10";
    object      Cl.water;
}
// * * * * * * * * * * * * * * * * * * * * * * * * * * * * * * * * * * * * * //

dimensions      [0 0 0 0 0 0 0];

internalField   nonuniform List<scalar> 
100
(
0.00770479
0.0105039
0.0116913
0.0118317
0.0129644
0.0153579
0.0164977
0.0168248
0.0169187
0.0166143
0.0167226
0.0175832
0.018311
0.0191949
0.0199888
0.0204646
0.0209986
0.0215492
0.0221261
0.0226575
0.0232289
0.0236128
0.0237012
0.0237541
0.0237459
0.0238272
0.0238035
0.0239544
0.0241256
0.0243956
0.0247261
0.0250567
0.0253493
0.0256145
0.0256802
0.025832
0.0258858
0.0259366
0.0261376
0.0263502
0.0264893
0.0265943
0.0266931
0.026836
0.026899
0.0270029
0.0271884
0.0272715
0.0274596
0.0275695
0.0275907
0.0276762
0.027716
0.0278588
0.0279387
0.0280652
0.0282415
0.0284075
0.0285064
0.0285566
0.0286666
0.0287432
0.0288752
0.0290136
0.0291645
0.0292797
0.0293518
0.0294151
0.0295061
0.0296091
0.0297497
0.0298598
0.0299784
0.0300777
0.0301537
0.0302246
0.0303026
0.0303776
0.0304029
0.0304173
0.0305109
0.0305889
0.0306869
0.0308002
0.0309482
0.0312394
0.0316265
0.0322798
0.0335003
0.036292
0.0366433
0.0368474
0.0369375
0.0369893
0.0369991
0.037039
0.0370657
0.0370754
0.0370966
0.0371443
)
;

boundaryField
{
    inlet
    {
        type            fixedValue;
        value           uniform 0;
    }
    outlet
    {
        type            zeroGradient;
    }
    yzfaces
    {
        type            empty;
    }
}


// ************************************************************************* //
