/*--------------------------------*- C++ -*----------------------------------*\
| =========                 |                                                 |
| \\      /  F ield         | foam-extend: Open Source CFD                    |
|  \\    /   O peration     | Version:     5.0                                |
|   \\  /    A nd           | Web:         http://www.foam-extend.org         |
|    \\/     M anipulation  |                                                 |
\*---------------------------------------------------------------------------*/
FoamFile
{
    version     2.0;
    format      ascii;
    class       volScalarField;
    location    "10";
    object      CO2.gas;
}
// * * * * * * * * * * * * * * * * * * * * * * * * * * * * * * * * * * * * * //

dimensions      [0 0 0 0 0 0 0];

internalField   nonuniform List<scalar> 
100
(
0.158511
0.147392
0.147823
0.148578
0.140674
0.127397
0.12412
0.124361
0.123289
0.123563
0.119653
0.114356
0.109914
0.105215
0.101186
0.098205
0.0948741
0.092334
0.0899818
0.0876964
0.0861131
0.0859137
0.0856782
0.0848895
0.0846163
0.0835444
0.08351
0.0824076
0.0810506
0.0796252
0.0783027
0.0773146
0.0760698
0.0752037
0.0743093
0.0732315
0.0730129
0.0719658
0.0712714
0.0708726
0.0704766
0.0696196
0.0690644
0.0685239
0.0682705
0.0675157
0.0669086
0.0664494
0.0658984
0.0654717
0.064885
0.0646488
0.0638557
0.0634192
0.0628403
0.0623359
0.0615718
0.061106
0.060844
0.0602333
0.0598387
0.0592862
0.0586431
0.0580908
0.0576593
0.0572674
0.0568715
0.0565042
0.0561281
0.0555583
0.0551657
0.0549089
0.0543364
0.0540083
0.0535725
0.0534572
0.0527937
0.0526044
0.0523052
0.0519523
0.0514726
0.0510489
0.0505531
0.0497494
0.0487215
0.0474044
0.0453413
0.0422478
0.0363873
0.0226548
0.0239653
0.0238358
0.0233575
0.0228388
0.0222983
0.0217614
0.0212062
0.0206243
0.0200319
0.0194424
)
;

boundaryField
{
    inlet
    {
        type            fixedValue;
        value           uniform 0.2;
    }
    outlet
    {
        type            zeroGradient;
    }
    yzfaces
    {
        type            empty;
    }
}


// ************************************************************************* //
