/*--------------------------------*- C++ -*----------------------------------*\
| =========                 |                                                 |
| \\      /  F ield         | foam-extend: Open Source CFD                    |
|  \\    /   O peration     | Version:     5.0                                |
|   \\  /    A nd           | Web:         http://www.foam-extend.org         |
|    \\/     M anipulation  |                                                 |
\*---------------------------------------------------------------------------*/
FoamFile
{
    version     2.0;
    format      ascii;
    class       volScalarField;
    location    "10";
    object      CO2.water;
}
// * * * * * * * * * * * * * * * * * * * * * * * * * * * * * * * * * * * * * //

dimensions      [0 0 0 0 0 0 0];

internalField   nonuniform List<scalar> 
100
(
0.00108157
0.00137418
0.00136283
0.00134295
0.00155095
0.00190035
0.0019866
0.00198025
0.00200845
0.00200125
0.00210414
0.00224353
0.00236045
0.0024841
0.00259012
0.00266857
0.00275622
0.00282307
0.00288497
0.00294511
0.00298677
0.00299202
0.00299822
0.00301897
0.00302616
0.00305437
0.00305528
0.00308429
0.00312
0.00315751
0.00319231
0.00321831
0.00325107
0.00327386
0.0032974
0.00332576
0.00333151
0.00335907
0.00337734
0.00338784
0.00339826
0.00342081
0.00343542
0.00344965
0.00345632
0.00347618
0.00349216
0.00350424
0.00351874
0.00352997
0.00354541
0.00355162
0.00357249
0.00358398
0.00359922
0.00361249
0.0036326
0.00364485
0.00365175
0.00366782
0.00367821
0.00369275
0.00370967
0.0037242
0.00373556
0.00374587
0.00375629
0.00376595
0.00377585
0.00379085
0.00380118
0.00380794
0.003823
0.00383164
0.00384311
0.00384614
0.0038636
0.00386858
0.00387645
0.00388574
0.00389837
0.00390951
0.00392256
0.00394371
0.00397076
0.00400542
0.00405972
0.00414112
0.00429535
0.00465673
0.00156504
0.000558883
0.000202854
7.36391e-05
2.66113e-05
9.58306e-06
3.4388e-06
1.23e-06
4.3824e-07
1.56792e-07
)
;

boundaryField
{
    inlet
    {
        type            fixedValue;
        value           uniform 0;
    }
    outlet
    {
        type            zeroGradient;
    }
    yzfaces
    {
        type            empty;
    }
}


// ************************************************************************* //
