/*--------------------------------*- C++ -*----------------------------------*\
| =========                 |                                                 |
| \\      /  F ield         | foam-extend: Open Source CFD                    |
|  \\    /   O peration     | Version:     5.0                                |
|   \\  /    A nd           | Web:         http://www.foam-extend.org         |
|    \\/     M anipulation  |                                                 |
\*---------------------------------------------------------------------------*/
FoamFile
{
    version     2.0;
    format      ascii;
    class       volScalarField;
    location    "10";
    object      H2O.water;
}
// * * * * * * * * * * * * * * * * * * * * * * * * * * * * * * * * * * * * * //

dimensions      [0 0 0 0 0 0 0];

internalField   nonuniform List<scalar> 
100
(
0.0246884
0.029938
0.0271311
0.026114
0.0315592
0.0397261
0.040645
0.0397661
0.0406094
0.040939
0.0445394
0.0479719
0.0508542
0.0536737
0.0560163
0.0579946
0.0601765
0.0615715
0.0627082
0.0638611
0.0642592
0.0636899
0.0637436
0.0644039
0.0646967
0.0655776
0.0656402
0.0664302
0.0674196
0.0682585
0.068881
0.0691989
0.069834
0.0701491
0.0708976
0.0716416
0.0717424
0.072654
0.072923
0.0728951
0.0730026
0.0736297
0.0739609
0.0742036
0.0743254
0.0748633
0.0750702
0.0753485
0.0755066
0.0756969
0.0762299
0.0762861
0.0770019
0.0771565
0.0775499
0.0777798
0.078186
0.0783162
0.0783755
0.0788597
0.0790441
0.0794361
0.0798196
0.0800733
0.080193
0.0803392
0.0805717
0.0807962
0.0809851
0.081331
0.0814386
0.0814538
0.0817789
0.0819135
0.0821768
0.0821458
0.0826482
0.0826836
0.082923
0.0832217
0.0835222
0.0837667
0.0840453
0.0845833
0.0852774
0.0859888
0.0872259
0.0889323
0.0922148
0.100042
0.100849
0.101364
0.101596
0.101752
0.101786
0.10185
0.101936
0.101978
0.102071
0.102212
)
;

boundaryField
{
    inlet
    {
        type            fixedValue;
        value           uniform 0;
    }
    outlet
    {
        type            zeroGradient;
    }
    yzfaces
    {
        type            empty;
    }
}


// ************************************************************************* //
