/*--------------------------------*- C++ -*----------------------------------*\
| =========                 |                                                 |
| \\      /  F ield         | foam-extend: Open Source CFD                    |
|  \\    /   O peration     | Version:     5.0                                |
|   \\  /    A nd           | Web:         http://www.foam-extend.org         |
|    \\/     M anipulation  |                                                 |
\*---------------------------------------------------------------------------*/
FoamFile
{
    version     2.0;
    format      ascii;
    class       volScalarField;
    location    "10";
    object      H2O.gas;
}
// * * * * * * * * * * * * * * * * * * * * * * * * * * * * * * * * * * * * * //

dimensions      [0 0 0 0 0 0 0];

internalField   nonuniform List<scalar> 
100
(
0.000309297
0.000287601
0.000288443
0.000289917
0.000274494
0.000248586
0.000242191
0.000242662
0.000240571
0.000241105
0.000233476
0.00022314
0.000214471
0.000205302
0.000197441
0.000191625
0.000185125
0.000180169
0.000175579
0.000171119
0.00016803
0.000167641
0.000167181
0.000165642
0.000165109
0.000163018
0.000162951
0.0001608
0.000158152
0.00015537
0.00015279
0.000150862
0.000148433
0.000146743
0.000144998
0.000142894
0.000142468
0.000140425
0.00013907
0.000138292
0.000137519
0.000135847
0.000134763
0.000133709
0.000133214
0.000131741
0.000130557
0.000129661
0.000128586
0.000127753
0.000126608
0.000126147
0.0001246
0.000123748
0.000122618
0.000121634
0.000120143
0.000119234
0.000118723
0.000117531
0.000116761
0.000115683
0.000114429
0.000113351
0.000112509
0.000111744
0.000110972
0.000110255
0.000109521
0.000108409
0.000107643
0.000107142
0.000106025
0.000105385
0.000104534
0.00010431
0.000103015
0.000102646
0.000102062
0.000101373
0.000100437
9.96103e-05
9.86428e-05
9.70745e-05
9.50688e-05
9.24989e-05
8.84732e-05
8.24369e-05
7.10015e-05
4.42056e-05
0.000314952
0.000607156
0.000938628
0.00131075
0.00172086
0.00217086
0.00265827
0.00318036
0.00373977
0.00433409
)
;

boundaryField
{
    inlet
    {
        type            fixedValue;
        value           uniform 0;
    }
    outlet
    {
        type            zeroGradient;
    }
    yzfaces
    {
        type            empty;
    }
}


// ************************************************************************* //
