/*--------------------------------*- C++ -*----------------------------------*\
| =========                 |                                                 |
| \\      /  F ield         | foam-extend: Open Source CFD                    |
|  \\    /   O peration     | Version:     5.0                                |
|   \\  /    A nd           | Web:         http://www.foam-extend.org         |
|    \\/     M anipulation  |                                                 |
\*---------------------------------------------------------------------------*/
FoamFile
{
    version     2.0;
    format      ascii;
    class       volScalarField;
    location    "10";
    object      Na.water;
}
// * * * * * * * * * * * * * * * * * * * * * * * * * * * * * * * * * * * * * //

dimensions      [0 0 0 0 0 0 0];

internalField   nonuniform List<scalar> 
100
(
0.00770525
0.0105047
0.0117034
0.011843
0.0129765
0.01537
0.016509
0.0168253
0.0169336
0.0166412
0.0167471
0.017622
0.0183463
0.0192274
0.0200214
0.0204756
0.0210095
0.0215422
0.0221234
0.0226687
0.023244
0.0236239
0.0237116
0.0237679
0.0237499
0.0238334
0.0238281
0.0239627
0.0241261
0.0244079
0.024745
0.0250606
0.0253475
0.0256121
0.0256704
0.0258263
0.0258849
0.025944
0.0261516
0.026356
0.0264958
0.0265998
0.0267114
0.0268531
0.0269155
0.0270102
0.0272101
0.0272967
0.027488
0.0276041
0.0276223
0.0277111
0.0277293
0.0278578
0.0279493
0.028085
0.0282479
0.0284062
0.0285036
0.028565
0.0286556
0.0287261
0.028838
0.0289847
0.0291352
0.0292561
0.0293377
0.0294083
0.0294953
0.0296024
0.0297372
0.0298625
0.0299773
0.0300634
0.0301494
0.0302219
0.0302889
0.0303632
0.0303904
0.0304217
0.0304954
0.0305863
0.0306935
0.0308263
0.0309872
0.0312695
0.0316581
0.0323165
0.0335312
0.0363106
0.0366475
0.0368399
0.036926
0.0369724
0.0369894
0.0370202
0.0370547
0.0370626
0.0370919
0.0371352
)
;

boundaryField
{
    inlet
    {
        type            fixedValue;
        value           uniform 0;
    }
    outlet
    {
        type            zeroGradient;
    }
    yzfaces
    {
        type            empty;
    }
}


// ************************************************************************* //
