/*--------------------------------*- C++ -*----------------------------------*\
| =========                 |                                                 |
| \\      /  F ield         | foam-extend: Open Source CFD                    |
|  \\    /   O peration     | Version:     5.0                                |
|   \\  /    A nd           | Web:         http://www.foam-extend.org         |
|    \\/     M anipulation  |                                                 |
\*---------------------------------------------------------------------------*/
FoamFile
{
    version     2.0;
    format      ascii;
    class       surfaceScalarField;
    location    "10";
    object      phi;
}
// * * * * * * * * * * * * * * * * * * * * * * * * * * * * * * * * * * * * * //

dimensions      [0 3 -1 0 0 0 0];

internalField   nonuniform List<scalar> 
99
(
1.22438e-06
1.23675e-06
1.23899e-06
1.24302e-06
1.23405e-06
1.2352e-06
1.22403e-06
1.21914e-06
1.20511e-06
1.20469e-06
1.2044e-06
1.20881e-06
1.2093e-06
1.2042e-06
1.20969e-06
1.21141e-06
1.20857e-06
1.20207e-06
1.20379e-06
1.2095e-06
1.21613e-06
1.21643e-06
1.21196e-06
1.20926e-06
1.21078e-06
1.21662e-06
1.21372e-06
1.20954e-06
1.20209e-06
1.20088e-06
1.20736e-06
1.20715e-06
1.21104e-06
1.21204e-06
1.20873e-06
1.21347e-06
1.21619e-06
1.21679e-06
1.21445e-06
1.21199e-06
1.21128e-06
1.21325e-06
1.21254e-06
1.21298e-06
1.2119e-06
1.21296e-06
1.21372e-06
1.21504e-06
1.21165e-06
1.21593e-06
1.21658e-06
1.21565e-06
1.2181e-06
1.21707e-06
1.219e-06
1.21837e-06
1.22042e-06
1.22216e-06
1.22347e-06
1.22194e-06
1.21529e-06
1.21579e-06
1.2188e-06
1.21916e-06
1.22059e-06
1.22202e-06
1.21938e-06
1.21753e-06
1.21832e-06
1.22105e-06
1.22208e-06
1.21999e-06
1.22444e-06
1.22811e-06
1.2266e-06
1.22185e-06
1.22513e-06
1.22629e-06
1.22555e-06
1.22276e-06
1.21931e-06
1.21423e-06
1.21339e-06
1.21263e-06
1.20943e-06
1.20652e-06
1.20718e-06
1.20621e-06
1.20561e-06
1.20619e-06
1.20746e-06
1.20635e-06
1.2057e-06
1.20495e-06
1.20542e-06
1.20621e-06
1.20748e-06
1.20902e-06
1.21188e-06
)
;

boundaryField
{
    inlet
    {
        type            calculated;
        value           uniform -1.225e-06;
    }
    outlet
    {
        type            calculated;
        value           uniform 1.21475e-06;
    }
    yzfaces
    {
        type            empty;
    }
}


// ************************************************************************* //
