/*--------------------------------*- C++ -*----------------------------------*\
| =========                 |                                                 |
| \\      /  F ield         | foam-extend: Open Source CFD                    |
|  \\    /   O peration     | Version:     5.0                                |
|   \\  /    A nd           | Web:         http://www.foam-extend.org         |
|    \\/     M anipulation  |                                                 |
\*---------------------------------------------------------------------------*/
FoamFile
{
    version     2.0;
    format      ascii;
    class       surfaceScalarField;
    location    "10";
    object      phi.water;
}
// * * * * * * * * * * * * * * * * * * * * * * * * * * * * * * * * * * * * * //

dimensions      [0 3 -1 0 0 0 0];

internalField   nonuniform List<scalar> 
99
(
9.9303e-08
1.67411e-07
1.65713e-07
1.4759e-07
1.8603e-07
2.96486e-07
3.35349e-07
3.28144e-07
3.37038e-07
3.23754e-07
3.6021e-07
4.16498e-07
4.78381e-07
5.45029e-07
6.13044e-07
6.64522e-07
7.36339e-07
7.89991e-07
8.38746e-07
9.03733e-07
9.53582e-07
9.58121e-07
9.68181e-07
9.84844e-07
9.93413e-07
1.02434e-06
1.02519e-06
1.05344e-06
1.08985e-06
1.13348e-06
1.17896e-06
1.21777e-06
1.26515e-06
1.29806e-06
1.33277e-06
1.37685e-06
1.38826e-06
1.43339e-06
1.46315e-06
1.48158e-06
1.49052e-06
1.53101e-06
1.55551e-06
1.5829e-06
1.59408e-06
1.62852e-06
1.65557e-06
1.6857e-06
1.7073e-06
1.73271e-06
1.76493e-06
1.77816e-06
1.82006e-06
1.84481e-06
1.8752e-06
1.90495e-06
1.95e-06
1.97835e-06
1.99712e-06
2.03383e-06
2.05079e-06
2.07983e-06
2.1194e-06
2.15689e-06
2.1874e-06
2.21554e-06
2.23881e-06
2.26145e-06
2.28384e-06
2.32571e-06
2.35523e-06
2.37585e-06
2.41429e-06
2.4469e-06
2.48076e-06
2.48487e-06
2.52993e-06
2.54722e-06
2.56939e-06
2.59423e-06
2.61991e-06
2.64428e-06
2.67632e-06
2.72905e-06
2.80488e-06
2.90236e-06
3.05948e-06
3.30424e-06
3.76643e-06
5.29734e-06
5.1453e-06
5.12159e-06
5.13261e-06
5.14528e-06
5.15934e-06
5.17007e-06
5.18116e-06
5.19179e-06
5.20488e-06
)
;

boundaryField
{
    inlet
    {
        type            fixedValue;
        value           uniform 0;
    }
    outlet
    {
        type            calculated;
        value           uniform 5.21543e-06;
    }
    yzfaces
    {
        type            empty;
    }
}


// ************************************************************************* //
