/*--------------------------------*- C++ -*----------------------------------*\
| =========                 |                                                 |
| \\      /  F ield         | foam-extend: Open Source CFD                    |
|  \\    /   O peration     | Version:     5.0                                |
|   \\  /    A nd           | Web:         http://www.foam-extend.org         |
|    \\/     M anipulation  |                                                 |
\*---------------------------------------------------------------------------*/
FoamFile
{
    version     2.0;
    format      ascii;
    class       volVectorField;
    location    "10";
    object      U.gas;
}
// * * * * * * * * * * * * * * * * * * * * * * * * * * * * * * * * * * * * * //

dimensions      [0 1 -1 0 0 0 0];

internalField   nonuniform List<vector> 
100
(
(0.00628016 0 0)
(0.00675993 0 0)
(0.00676709 0 0)
(0.0067408 0 0)
(0.00711866 0 0)
(0.00777958 0 0)
(0.00793359 0 0)
(0.00785113 0 0)
(0.00784605 0 0)
(0.00777344 0 0)
(0.00800795 0 0)
(0.00833008 0 0)
(0.0086646 0 0)
(0.00896168 0 0)
(0.00924033 0 0)
(0.00948076 0 0)
(0.00975937 0 0)
(0.00991365 0 0)
(0.0100554 0 0)
(0.0102872 0 0)
(0.0104538 0 0)
(0.0104804 0 0)
(0.0105075 0 0)
(0.0105295 0 0)
(0.0105461 0 0)
(0.0106646 0 0)
(0.0106815 0 0)
(0.0107638 0 0)
(0.010839 0 0)
(0.0109155 0 0)
(0.0110381 0 0)
(0.0111621 0 0)
(0.0112846 0 0)
(0.0113736 0 0)
(0.0114524 0 0)
(0.0115378 0 0)
(0.0115781 0 0)
(0.011711 0 0)
(0.0117578 0 0)
(0.0117622 0 0)
(0.0117661 0 0)
(0.0118681 0 0)
(0.0119079 0 0)
(0.0119504 0 0)
(0.0119629 0 0)
(0.0120405 0 0)
(0.0120872 0 0)
(0.0121476 0 0)
(0.0121763 0 0)
(0.0122077 0 0)
(0.01229 0 0)
(0.0123022 0 0)
(0.0123882 0 0)
(0.0124174 0 0)
(0.0124672 0 0)
(0.0125187 0 0)
(0.012587 0 0)
(0.0126193 0 0)
(0.0126574 0 0)
(0.0127228 0 0)
(0.0126968 0 0)
(0.0127005 0 0)
(0.0127655 0 0)
(0.0128207 0 0)
(0.012849 0 0)
(0.0128841 0 0)
(0.0129099 0 0)
(0.0129045 0 0)
(0.0129157 0 0)
(0.0129803 0 0)
(0.0130175 0 0)
(0.0130196 0 0)
(0.0130606 0 0)
(0.0131213 0 0)
(0.0131696 0 0)
(0.0131166 0 0)
(0.0131577 0 0)
(0.0131687 0 0)
(0.0131966 0 0)
(0.0132011 0 0)
(0.0131881 0 0)
(0.0131643 0 0)
(0.0131448 0 0)
(0.0131941 0 0)
(0.0132442 0 0)
(0.0132667 0 0)
(0.013365 0 0)
(0.01353 0 0)
(0.0138506 0 0)
(0.0149698 0 0)
(0.00966735 0 0)
(0.0101966 0 0)
(0.0102554 0 0)
(0.0102087 0 0)
(0.010162 0 0)
(0.0101304 0 0)
(0.0101123 0 0)
(0.0101025 0 0)
(0.0101001 0 0)
(0.0101098 0 0)
)
;

boundaryField
{
    inlet
    {
        type            fixedValue;
        value           uniform (0.005 0 0);
    }
    outlet
    {
        type            zeroGradient;
    }
    yzfaces
    {
        type            empty;
    }
}


// ************************************************************************* //
