/*--------------------------------*- C++ -*----------------------------------*\
| =========                 |                                                 |
| \\      /  F ield         | foam-extend: Open Source CFD                    |
|  \\    /   O peration     | Version:     5.0                                |
|   \\  /    A nd           | Web:         http://www.foam-extend.org         |
|    \\/     M anipulation  |                                                 |
\*---------------------------------------------------------------------------*/
FoamFile
{
    version     2.0;
    format      ascii;
    class       volVectorField;
    location    "10";
    object      U.water;
}
// * * * * * * * * * * * * * * * * * * * * * * * * * * * * * * * * * * * * * //

dimensions      [0 1 -1 0 0 0 0];

internalField   nonuniform List<vector> 
100
(
(4.59987e-05 0 0)
(0.000104227 0 0)
(0.000135583 0 0)
(0.000133492 0 0)
(0.00014036 0 0)
(0.000193371 0 0)
(0.000255199 0 0)
(0.000272496 0 0)
(0.000270723 0 0)
(0.000273583 0 0)
(0.00028045 0 0)
(0.000317361 0 0)
(0.00036563 0 0)
(0.000417593 0 0)
(0.00047169 0 0)
(0.000522317 0 0)
(0.000571053 0 0)
(0.000622741 0 0)
(0.000665114 0 0)
(0.000709546 0 0)
(0.000755455 0 0)
(0.000780564 0 0)
(0.000786896 0 0)
(0.000797031 0 0)
(0.000808351 0 0)
(0.000822065 0 0)
(0.000838096 0 0)
(0.000849347 0 0)
(0.000875193 0 0)
(0.000907204 0 0)
(0.000943357 0 0)
(0.00097812 0 0)
(0.00101252 0 0)
(0.00104626 0 0)
(0.00107349 0 0)
(0.00110408 0 0)
(0.00112972 0 0)
(0.00115091 0 0)
(0.00118185 0 0)
(0.00120205 0 0)
(0.00121452 0 0)
(0.00123241 0 0)
(0.00125954 0 0)
(0.00128032 0 0)
(0.00129775 0 0)
(0.00131471 0 0)
(0.00134013 0 0)
(0.00136359 0 0)
(0.00138467 0 0)
(0.00140441 0 0)
(0.00142709 0 0)
(0.00144772 0 0)
(0.00146847 0 0)
(0.00149624 0 0)
(0.00151853 0 0)
(0.0015433 0 0)
(0.00157219 0 0)
(0.00160253 0 0)
(0.00162345 0 0)
(0.00164552 0 0)
(0.00166832 0 0)
(0.00168657 0 0)
(0.00171349 0 0)
(0.0017444 0 0)
(0.00177252 0 0)
(0.00179707 0 0)
(0.00181812 0 0)
(0.00183709 0 0)
(0.00185573 0 0)
(0.00188063 0 0)
(0.00191017 0 0)
(0.00193135 0 0)
(0.00195418 0 0)
(0.00198377 0 0)
(0.00201079 0 0)
(0.00202855 0 0)
(0.00204568 0 0)
(0.0020721 0 0)
(0.00208916 0 0)
(0.00210888 0 0)
(0.00212966 0 0)
(0.00214994 0 0)
(0.00217372 0 0)
(0.0022082 0 0)
(0.0022609 0 0)
(0.00233333 0 0)
(0.00243884 0 0)
(0.0026103 0 0)
(0.00292647 0 0)
(0.00363039 0 0)
(0.0042706 0 0)
(0.00419256 0 0)
(0.00418495 0 0)
(0.00419307 0 0)
(0.00420281 0 0)
(0.00421308 0 0)
(0.00422289 0 0)
(0.00423272 0 0)
(0.00424475 0 0)
(0.0042575 0 0)
)
;

boundaryField
{
    inlet
    {
        type            fixedValue;
        value           uniform (0 0 0);
    }
    outlet
    {
        type            zeroGradient;
    }
    yzfaces
    {
        type            empty;
    }
}


// ************************************************************************* //
