/*--------------------------------*- C++ -*----------------------------------*\
| =========                 |                                                 |
| \\      /  F ield         | foam-extend: Open Source CFD                    |
|  \\    /   O peration     | Version:     5.0                                |
|   \\  /    A nd           | Web:         http://www.foam-extend.org         |
|    \\/     M anipulation  |                                                 |
\*---------------------------------------------------------------------------*/
FoamFile
{
    version     2.0;
    format      ascii;
    class       volScalarField;
    location    "10";
    object      alpha.gas;
}
// * * * * * * * * * * * * * * * * * * * * * * * * * * * * * * * * * * * * * //

dimensions      [0 0 0 0 0 0 0];

internalField   nonuniform List<scalar> 
100
(
0.169146
0.158255
0.1493
0.146194
0.142425
0.137354
0.131557
0.127
0.124615
0.124261
0.123324
0.121007
0.117037
0.113664
0.110863
0.107817
0.105744
0.103536
0.10146
0.0998399
0.0980031
0.0967409
0.095724
0.0941123
0.0928405
0.0916515
0.0902143
0.0888981
0.0878628
0.0871113
0.0867737
0.0865971
0.0862625
0.0859014
0.0854988
0.084809
0.0840609
0.0832224
0.0822498
0.0811711
0.0802481
0.0794366
0.0784906
0.0776641
0.0770225
0.0762658
0.0757117
0.0751211
0.0744847
0.073989
0.0734917
0.0728089
0.0724426
0.0719306
0.0714159
0.0708288
0.0703595
0.0699573
0.0696559
0.0691969
0.0686852
0.0682782
0.067889
0.067382
0.0668638
0.0663516
0.0659817
0.0656901
0.0652502
0.0649484
0.0645273
0.0641674
0.063734
0.063363
0.0628915
0.0625046
0.0620568
0.0616987
0.0612509
0.0607867
0.0604549
0.0601296
0.0597817
0.0594432
0.0590511
0.0587188
0.0583736
0.0580334
0.057802
0.0575471
0.0572664
0.0569814
0.0566676
0.0563696
0.0560865
0.0557784
0.0555113
0.0552784
0.0549967
0.0547565
)
;

boundaryField
{
    inlet
    {
        type            fixedValue;
        value           uniform 0.2;
    }
    outlet
    {
        type            zeroGradient;
    }
    yzfaces
    {
        type            empty;
    }
}


// ************************************************************************* //
