/*--------------------------------*- C++ -*----------------------------------*\
| =========                 |                                                 |
| \\      /  F ield         | foam-extend: Open Source CFD                    |
|  \\    /   O peration     | Version:     5.0                                |
|   \\  /    A nd           | Web:         http://www.foam-extend.org         |
|    \\/     M anipulation  |                                                 |
\*---------------------------------------------------------------------------*/
FoamFile
{
    version     2.0;
    format      ascii;
    class       volScalarField;
    location    "10";
    object      Cl.water;
}
// * * * * * * * * * * * * * * * * * * * * * * * * * * * * * * * * * * * * * //

dimensions      [0 0 0 0 0 0 0];

internalField   nonuniform List<scalar> 
100
(
0.00569962
0.00835844
0.0102458
0.0121474
0.0131562
0.0140455
0.0146046
0.0155396
0.0161597
0.0165503
0.0167557
0.0169597
0.0173421
0.0177207
0.0181299
0.0185877
0.018918
0.0194101
0.0195753
0.0200941
0.0204232
0.0208715
0.0211765
0.0214485
0.0215872
0.0218374
0.0220551
0.0223572
0.0227799
0.0229212
0.0230617
0.0230968
0.0232053
0.023329
0.023348
0.0234815
0.0237207
0.023698
0.0238427
0.0239519
0.0240909
0.0243407
0.0245407
0.0247095
0.0249456
0.0251089
0.0251459
0.0252524
0.0253222
0.0254173
0.0255266
0.0256241
0.025836
0.0259524
0.0260469
0.0262039
0.0263821
0.0264734
0.0265557
0.0266644
0.0267188
0.026827
0.026877
0.0270445
0.0271177
0.027216
0.0272736
0.0273859
0.0275264
0.0275595
0.0276475
0.0277671
0.0278353
0.0279219
0.0280361
0.02817
0.0282497
0.0283166
0.0284017
0.0284997
0.0285683
0.0285983
0.0286747
0.0287177
0.028758
0.0288717
0.0289976
0.0290572
0.0291279
0.0291625
0.0291853
0.0293133
0.0293115
0.0294161
0.0294685
0.0295561
0.0296249
0.0296808
0.0297533
0.0297983
)
;

boundaryField
{
    inlet
    {
        type            fixedValue;
        value           uniform 0;
    }
    outlet
    {
        type            zeroGradient;
    }
    yzfaces
    {
        type            empty;
    }
}


// ************************************************************************* //
