/*--------------------------------*- C++ -*----------------------------------*\
| =========                 |                                                 |
| \\      /  F ield         | foam-extend: Open Source CFD                    |
|  \\    /   O peration     | Version:     5.0                                |
|   \\  /    A nd           | Web:         http://www.foam-extend.org         |
|    \\/     M anipulation  |                                                 |
\*---------------------------------------------------------------------------*/
FoamFile
{
    version     2.0;
    format      ascii;
    class       volScalarField;
    location    "10";
    object      CO2.water;
}
// * * * * * * * * * * * * * * * * * * * * * * * * * * * * * * * * * * * * * //

dimensions      [0 0 0 0 0 0 0];

internalField   nonuniform List<scalar> 
100
(
0.000810354
0.00109642
0.00133162
0.00141318
0.00151218
0.00164537
0.00179763
0.00191732
0.00197995
0.00198926
0.00201386
0.00207471
0.00217898
0.00226757
0.00234114
0.00242115
0.00247559
0.00253358
0.0025881
0.00263066
0.0026789
0.00271205
0.00273876
0.00278109
0.0028145
0.00284572
0.00288347
0.00291804
0.00294523
0.00296497
0.00297384
0.00297847
0.00298726
0.00299675
0.00300732
0.00302544
0.00304509
0.00306711
0.00309266
0.00312099
0.00314523
0.00316654
0.00319139
0.0032131
0.00322995
0.00324982
0.00326437
0.00327989
0.0032966
0.00330962
0.00332268
0.00334061
0.00335024
0.00336368
0.0033772
0.00339262
0.00340495
0.00341551
0.00342343
0.00343548
0.00344892
0.00345961
0.00346983
0.00348315
0.00349676
0.00351021
0.00351993
0.00352759
0.00353914
0.00354707
0.00355813
0.00356758
0.00357896
0.00358871
0.00360109
0.00361125
0.00362301
0.00363242
0.00364418
0.00365637
0.00366509
0.00367363
0.00368277
0.00369166
0.00370196
0.00371068
0.00371975
0.00372869
0.00373477
0.00374146
0.00374883
0.00375632
0.00376456
0.00377239
0.00377982
0.00378791
0.00379493
0.00380105
0.00380844
0.00381475
)
;

boundaryField
{
    inlet
    {
        type            fixedValue;
        value           uniform 0;
    }
    outlet
    {
        type            zeroGradient;
    }
    yzfaces
    {
        type            empty;
    }
}


// ************************************************************************* //
