/*--------------------------------*- C++ -*----------------------------------*\
| =========                 |                                                 |
| \\      /  F ield         | foam-extend: Open Source CFD                    |
|  \\    /   O peration     | Version:     5.0                                |
|   \\  /    A nd           | Web:         http://www.foam-extend.org         |
|    \\/     M anipulation  |                                                 |
\*---------------------------------------------------------------------------*/
FoamFile
{
    version     2.0;
    format      ascii;
    class       volScalarField;
    location    "10";
    object      CO2.gas;
}
// * * * * * * * * * * * * * * * * * * * * * * * * * * * * * * * * * * * * * //

dimensions      [0 0 0 0 0 0 0];

internalField   nonuniform List<scalar> 
100
(
0.168817
0.157947
0.149009
0.14591
0.142148
0.137087
0.131301
0.126752
0.124372
0.124019
0.123084
0.120771
0.116809
0.113443
0.110647
0.107607
0.105538
0.103335
0.101263
0.0996455
0.0978123
0.0965525
0.0955376
0.093929
0.0926597
0.091473
0.0900387
0.0887249
0.0876917
0.0869416
0.0866047
0.0864285
0.0860946
0.0857341
0.0853323
0.0846439
0.0838972
0.0830603
0.0820896
0.081013
0.0800919
0.0792819
0.0783377
0.0775128
0.0768725
0.0761173
0.0755643
0.0749748
0.0743397
0.0738449
0.0733486
0.0726672
0.0723016
0.0717905
0.0712768
0.0706909
0.0702224
0.0698211
0.0695203
0.0690621
0.0685515
0.0681452
0.0677568
0.0672508
0.0667336
0.0662224
0.0658532
0.0655622
0.0651231
0.0648219
0.0644017
0.0640424
0.0636099
0.0632396
0.062769
0.0623829
0.061936
0.0615785
0.0611316
0.0606683
0.0603372
0.0600125
0.0596653
0.0593274
0.0589361
0.0586045
0.0582599
0.0579204
0.0576894
0.0574351
0.0571549
0.0568705
0.0565572
0.0562598
0.0559773
0.0556698
0.0554032
0.0551707
0.0548896
0.0546499
)
;

boundaryField
{
    inlet
    {
        type            fixedValue;
        value           uniform 0.2;
    }
    outlet
    {
        type            zeroGradient;
    }
    yzfaces
    {
        type            empty;
    }
}


// ************************************************************************* //
