/*--------------------------------*- C++ -*----------------------------------*\
| =========                 |                                                 |
| \\      /  F ield         | foam-extend: Open Source CFD                    |
|  \\    /   O peration     | Version:     5.0                                |
|   \\  /    A nd           | Web:         http://www.foam-extend.org         |
|    \\/     M anipulation  |                                                 |
\*---------------------------------------------------------------------------*/
FoamFile
{
    version     2.0;
    format      ascii;
    class       volScalarField;
    location    "10";
    object      H2O.gas;
}
// * * * * * * * * * * * * * * * * * * * * * * * * * * * * * * * * * * * * * //

dimensions      [0 0 0 0 0 0 0];

internalField   nonuniform List<scalar> 
100
(
0.000328986
0.000308367
0.000290318
0.000285891
0.000279496
0.000270508
0.000257869
0.000248192
0.000243776
0.000241508
0.00023983
0.000234214
0.000228173
0.00022113
0.000215234
0.000210898
0.000206257
0.000202906
0.000197875
0.000193964
0.000190451
0.000187699
0.000185622
0.000183284
0.00018005
0.000177188
0.000174912
0.000172233
0.00017062
0.000169505
0.000168518
0.000167891
0.000167862
0.000167118
0.000165953
0.000164756
0.00016427
0.000162822
0.000161027
0.000158804
0.0001568
0.000154837
0.000153141
0.000151342
0.000150165
0.000149112
0.000147957
0.000146943
0.000145974
0.000144837
0.000143829
0.000142613
0.000141537
0.000140345
0.000139129
0.000138176
0.000137265
0.000136181
0.000135518
0.000134831
0.000134011
0.000133274
0.000132085
0.00013121
0.000130128
0.000129285
0.000128337
0.000127398
0.00012689
0.00012592
0.000125161
0.000124298
0.000123488
0.000122646
0.000121911
0.000121276
0.000120502
0.000119929
0.000119331
0.000118662
0.000118039
0.00011726
0.000116719
0.00011607
0.00011529
0.000114475
0.000113742
0.000113155
0.000112608
0.000112097
0.000111437
0.0001109
0.000110219
0.000109722
0.000109005
0.000108441
0.000107962
0.000107359
0.000106957
0.000106656
)
;

boundaryField
{
    inlet
    {
        type            fixedValue;
        value           uniform 0;
    }
    outlet
    {
        type            zeroGradient;
    }
    yzfaces
    {
        type            empty;
    }
}


// ************************************************************************* //
