/*--------------------------------*- C++ -*----------------------------------*\
| =========                 |                                                 |
| \\      /  F ield         | foam-extend: Open Source CFD                    |
|  \\    /   O peration     | Version:     5.0                                |
|   \\  /    A nd           | Web:         http://www.foam-extend.org         |
|    \\/     M anipulation  |                                                 |
\*---------------------------------------------------------------------------*/
FoamFile
{
    version     2.0;
    format      ascii;
    class       volScalarField;
    location    "10";
    object      H2O.water;
}
// * * * * * * * * * * * * * * * * * * * * * * * * * * * * * * * * * * * * * //

dimensions      [0 0 0 0 0 0 0];

internalField   nonuniform List<scalar> 
100
(
0.0186372
0.0239536
0.028939
0.0279512
0.0296069
0.0333447
0.0373668
0.0402511
0.0407478
0.0401065
0.0411328
0.0428547
0.0462858
0.0485038
0.0504338
0.052699
0.0539935
0.0553538
0.0566926
0.0574483
0.0585406
0.0591917
0.0596227
0.0609149
0.0615642
0.0621425
0.062768
0.0634055
0.0635699
0.064039
0.0640021
0.063959
0.0640045
0.0641586
0.0646606
0.0653566
0.0658323
0.0664839
0.0671199
0.0677138
0.0681312
0.0684641
0.0691489
0.0694738
0.0698042
0.070277
0.0705555
0.070943
0.0714369
0.0718093
0.0720318
0.0724437
0.0724384
0.0727237
0.0731073
0.0735054
0.0735836
0.0737323
0.0737689
0.0741801
0.0746058
0.0747576
0.0749683
0.0753183
0.0756385
0.0759054
0.0759824
0.0759913
0.0763033
0.0763168
0.076628
0.0767323
0.0769493
0.0771413
0.0775355
0.0776954
0.0779717
0.0780813
0.0784379
0.0787956
0.0789806
0.0791622
0.0793218
0.079486
0.0796617
0.0797463
0.0799032
0.0800524
0.0801141
0.0803674
0.0805134
0.0807256
0.0809544
0.0810936
0.0811548
0.081378
0.0814877
0.0815241
0.0816804
0.0817142
)
;

boundaryField
{
    inlet
    {
        type            fixedValue;
        value           uniform 0;
    }
    outlet
    {
        type            zeroGradient;
    }
    yzfaces
    {
        type            empty;
    }
}


// ************************************************************************* //
