/*--------------------------------*- C++ -*----------------------------------*\
| =========                 |                                                 |
| \\      /  F ield         | foam-extend: Open Source CFD                    |
|  \\    /   O peration     | Version:     5.0                                |
|   \\  /    A nd           | Web:         http://www.foam-extend.org         |
|    \\/     M anipulation  |                                                 |
\*---------------------------------------------------------------------------*/
FoamFile
{
    version     2.0;
    format      ascii;
    class       volVectorField;
    location    "10";
    object      U.gas;
}
// * * * * * * * * * * * * * * * * * * * * * * * * * * * * * * * * * * * * * //

dimensions      [0 1 -1 0 0 0 0];

internalField   nonuniform List<vector> 
100
(
(0.00590026 0 0)
(0.00628583 0 0)
(0.00672748 0 0)
(0.00686728 0 0)
(0.0069881 0 0)
(0.00713046 0 0)
(0.00738158 0 0)
(0.00761704 0 0)
(0.00775788 0 0)
(0.00784861 0 0)
(0.00789404 0 0)
(0.00800892 0 0)
(0.00808505 0 0)
(0.00822792 0 0)
(0.0083702 0 0)
(0.00847568 0 0)
(0.00864632 0 0)
(0.00877224 0 0)
(0.00898905 0 0)
(0.00916679 0 0)
(0.00930721 0 0)
(0.00943856 0 0)
(0.00951758 0 0)
(0.00957386 0 0)
(0.0096698 0 0)
(0.00977935 0 0)
(0.00989 0 0)
(0.0100171 0 0)
(0.0100899 0 0)
(0.0101669 0 0)
(0.0102611 0 0)
(0.0103047 0 0)
(0.0102784 0 0)
(0.0102829 0 0)
(0.010322 0 0)
(0.0103465 0 0)
(0.0103441 0 0)
(0.0104146 0 0)
(0.0104759 0 0)
(0.0105824 0 0)
(0.0106803 0 0)
(0.0107875 0 0)
(0.0108923 0 0)
(0.0109968 0 0)
(0.0110364 0 0)
(0.0110673 0 0)
(0.0111302 0 0)
(0.0111925 0 0)
(0.0112374 0 0)
(0.0112816 0 0)
(0.0113183 0 0)
(0.0113698 0 0)
(0.0114147 0 0)
(0.0114782 0 0)
(0.0115336 0 0)
(0.0115594 0 0)
(0.0116027 0 0)
(0.0116767 0 0)
(0.0117147 0 0)
(0.011741 0 0)
(0.0117686 0 0)
(0.0117923 0 0)
(0.0118523 0 0)
(0.0118914 0 0)
(0.0119617 0 0)
(0.0119998 0 0)
(0.0120427 0 0)
(0.012101 0 0)
(0.0121075 0 0)
(0.0121424 0 0)
(0.0121596 0 0)
(0.0121901 0 0)
(0.0122263 0 0)
(0.0122704 0 0)
(0.0123012 0 0)
(0.0123171 0 0)
(0.0123608 0 0)
(0.0123894 0 0)
(0.0124066 0 0)
(0.0124266 0 0)
(0.0124475 0 0)
(0.0124892 0 0)
(0.0125016 0 0)
(0.0125256 0 0)
(0.0125558 0 0)
(0.0125779 0 0)
(0.0125993 0 0)
(0.0126159 0 0)
(0.0126078 0 0)
(0.0125981 0 0)
(0.0126131 0 0)
(0.0125976 0 0)
(0.0126112 0 0)
(0.0126008 0 0)
(0.0126091 0 0)
(0.0126157 0 0)
(0.0126066 0 0)
(0.0126204 0 0)
(0.0126272 0 0)
(0.0126191 0 0)
)
;

boundaryField
{
    inlet
    {
        type            fixedValue;
        value           uniform (0.005 0 0);
    }
    outlet
    {
        type            zeroGradient;
    }
    yzfaces
    {
        type            empty;
    }
}


// ************************************************************************* //
