/*--------------------------------*- C++ -*----------------------------------*\
| =========                 |                                                 |
| \\      /  F ield         | foam-extend: Open Source CFD                    |
|  \\    /   O peration     | Version:     5.0                                |
|   \\  /    A nd           | Web:         http://www.foam-extend.org         |
|    \\/     M anipulation  |                                                 |
\*---------------------------------------------------------------------------*/
FoamFile
{
    version     2.0;
    format      ascii;
    class       volVectorField;
    location    "10";
    object      U.water;
}
// * * * * * * * * * * * * * * * * * * * * * * * * * * * * * * * * * * * * * //

dimensions      [0 1 -1 0 0 0 0];

internalField   nonuniform List<vector> 
100
(
(3.05463e-05 0 0)
(6.94836e-05 0 0)
(0.000103295 0 0)
(0.000132021 0 0)
(0.000145247 0 0)
(0.000163871 0 0)
(0.000192394 0 0)
(0.000226318 0 0)
(0.000253543 0 0)
(0.000266857 0 0)
(0.000269164 0 0)
(0.000277226 0 0)
(0.000298474 0 0)
(0.000330145 0 0)
(0.000359442 0 0)
(0.000388557 0 0)
(0.000417497 0 0)
(0.000441405 0 0)
(0.000468507 0 0)
(0.000493448 0 0)
(0.000517435 0 0)
(0.000542877 0 0)
(0.000559925 0 0)
(0.000580138 0 0)
(0.000607969 0 0)
(0.000629992 0 0)
(0.000653427 0 0)
(0.000679847 0 0)
(0.000703809 0 0)
(0.000725411 0 0)
(0.000741254 0 0)
(0.000747968 0 0)
(0.000752587 0 0)
(0.000760542 0 0)
(0.000766934 0 0)
(0.000775085 0 0)
(0.000791057 0 0)
(0.000808438 0 0)
(0.000827446 0 0)
(0.000849822 0 0)
(0.000873074 0 0)
(0.00089112 0 0)
(0.000910588 0 0)
(0.000936298 0 0)
(0.000958884 0 0)
(0.000979513 0 0)
(0.000999537 0 0)
(0.00101575 0 0)
(0.00103548 0 0)
(0.00105598 0 0)
(0.00107145 0 0)
(0.00108927 0 0)
(0.0011074 0 0)
(0.00112065 0 0)
(0.00113693 0 0)
(0.00115584 0 0)
(0.00117654 0 0)
(0.0011934 0 0)
(0.00120526 0 0)
(0.0012176 0 0)
(0.0012376 0 0)
(0.00125674 0 0)
(0.0012716 0 0)
(0.00128874 0 0)
(0.00131037 0 0)
(0.00133239 0 0)
(0.00135184 0 0)
(0.00136538 0 0)
(0.00137894 0 0)
(0.00139402 0 0)
(0.00140872 0 0)
(0.00142487 0 0)
(0.00143936 0 0)
(0.00145672 0 0)
(0.00147469 0 0)
(0.00149207 0 0)
(0.00150862 0 0)
(0.00152696 0 0)
(0.00154441 0 0)
(0.00156699 0 0)
(0.00158886 0 0)
(0.00160402 0 0)
(0.00162154 0 0)
(0.00164007 0 0)
(0.00165637 0 0)
(0.00167325 0 0)
(0.00168868 0 0)
(0.00170541 0 0)
(0.00171802 0 0)
(0.0017269 0 0)
(0.00173816 0 0)
(0.00175229 0 0)
(0.00176992 0 0)
(0.00178445 0 0)
(0.00179614 0 0)
(0.00181184 0 0)
(0.00182821 0 0)
(0.00183839 0 0)
(0.00184716 0 0)
(0.00186016 0 0)
)
;

boundaryField
{
    inlet
    {
        type            fixedValue;
        value           uniform (0 0 0);
    }
    outlet
    {
        type            zeroGradient;
    }
    yzfaces
    {
        type            empty;
    }
}


// ************************************************************************* //
