/*--------------------------------*- C++ -*----------------------------------*\
| =========                 |                                                 |
| \\      /  F ield         | foam-extend: Open Source CFD                    |
|  \\    /   O peration     | Version:     5.0                                |
|   \\  /    A nd           | Web:         http://www.foam-extend.org         |
|    \\/     M anipulation  |                                                 |
\*---------------------------------------------------------------------------*/
FoamFile
{
    version     2.0;
    format      ascii;
    class       volVectorField;
    location    "10";
    object      U.water;
}
// * * * * * * * * * * * * * * * * * * * * * * * * * * * * * * * * * * * * * //

dimensions      [0 1 -1 0 0 0 0];

internalField   nonuniform List<vector> 
100
(
(3.07275e-05 0 0)
(6.99932e-05 0 0)
(0.000104141 0 0)
(0.000133448 0 0)
(0.000144168 0 0)
(0.000160387 0 0)
(0.000186516 0 0)
(0.000222015 0 0)
(0.000250982 0 0)
(0.000266325 0 0)
(0.000274667 0 0)
(0.000284716 0 0)
(0.000305398 0 0)
(0.000331437 0 0)
(0.000362584 0 0)
(0.000390226 0 0)
(0.000416264 0 0)
(0.00044264 0 0)
(0.000470387 0 0)
(0.000504687 0 0)
(0.000533534 0 0)
(0.000560979 0 0)
(0.000580967 0 0)
(0.000596981 0 0)
(0.000618525 0 0)
(0.000646894 0 0)
(0.000673482 0 0)
(0.000698189 0 0)
(0.000723324 0 0)
(0.000741422 0 0)
(0.000757069 0 0)
(0.000768275 0 0)
(0.000771054 0 0)
(0.000771779 0 0)
(0.000780666 0 0)
(0.000791964 0 0)
(0.000801917 0 0)
(0.00081164 0 0)
(0.000829133 0 0)
(0.00085347 0 0)
(0.000881917 0 0)
(0.000909882 0 0)
(0.000937532 0 0)
(0.000964179 0 0)
(0.000986779 0 0)
(0.00100179 0 0)
(0.0010192 0 0)
(0.00103808 0 0)
(0.00105346 0 0)
(0.00106879 0 0)
(0.00108631 0 0)
(0.00110371 0 0)
(0.00112286 0 0)
(0.00114251 0 0)
(0.00116333 0 0)
(0.00118162 0 0)
(0.00119897 0 0)
(0.00121879 0 0)
(0.00123731 0 0)
(0.0012501 0 0)
(0.00126374 0 0)
(0.00127792 0 0)
(0.00129501 0 0)
(0.00131693 0 0)
(0.00133769 0 0)
(0.0013588 0 0)
(0.00137751 0 0)
(0.00139999 0 0)
(0.00141606 0 0)
(0.00142863 0 0)
(0.00144668 0 0)
(0.00146313 0 0)
(0.00148281 0 0)
(0.00150201 0 0)
(0.00151992 0 0)
(0.00153531 0 0)
(0.00155233 0 0)
(0.00157073 0 0)
(0.00158508 0 0)
(0.00159894 0 0)
(0.00161423 0 0)
(0.00163104 0 0)
(0.00164807 0 0)
(0.00166297 0 0)
(0.00168036 0 0)
(0.00169994 0 0)
(0.00172029 0 0)
(0.00173806 0 0)
(0.00174939 0 0)
(0.00175997 0 0)
(0.00177341 0 0)
(0.00178619 0 0)
(0.00179987 0 0)
(0.00181402 0 0)
(0.00182684 0 0)
(0.00184417 0 0)
(0.00185646 0 0)
(0.00187011 0 0)
(0.00188566 0 0)
(0.00189299 0 0)
)
;

boundaryField
{
    inlet
    {
        type            fixedValue;
        value           uniform (0 0 0);
    }
    outlet
    {
        type            zeroGradient;
    }
    yzfaces
    {
        type            empty;
    }
}


// ************************************************************************* //
