/*--------------------------------*- C++ -*----------------------------------*\
| =========                 |                                                 |
| \\      /  F ield         | foam-extend: Open Source CFD                    |
|  \\    /   O peration     | Version:     5.0                                |
|   \\  /    A nd           | Web:         http://www.foam-extend.org         |
|    \\/     M anipulation  |                                                 |
\*---------------------------------------------------------------------------*/
FoamFile
{
    version     2.0;
    format      ascii;
    class       volScalarField;
    location    "2";
    object      alpha.gas;
}
// * * * * * * * * * * * * * * * * * * * * * * * * * * * * * * * * * * * * * //

dimensions      [0 0 0 0 0 0 0];

internalField   nonuniform List<scalar> 
100
(
0.133627
0.115661
0.105047
0.0971721
0.0906404
0.0855603
0.0809962
0.0768714
0.0733682
0.0700096
0.0667029
0.06366
0.0605428
0.0574512
0.0538261
0.0494408
0.043499
0.0342281
0.015026
0.0263372
0.0253115
0.0251934
0.0254221
0.0257362
0.0259994
0.0261404
0.0261209
0.025927
0.0255572
0.0249939
0.0242421
0.0232715
0.0220863
0.0206943
0.0191194
0.0174342
0.0157456
0.0141815
0.0128599
0.0118499
0.0111393
0.0106807
0.0103933
0.0102281
0.0101322
0.0100759
0.0100431
0.0100256
0.0100159
0.0100104
0.0100065
0.0100047
0.0100034
0.0100032
0.0100034
0.0100004
0.0100002
0.0100003
0.0100019
0.0100012
0.00999983
0.00999921
0.0099972
0.00999683
0.00999781
0.00999853
0.00999696
0.00999806
0.00999882
0.00999894
0.00999981
0.0100019
0.0100012
0.0100025
0.010002
0.0100011
0.0100011
0.00999991
0.00999828
0.0100006
0.0100017
0.0100007
0.0100015
0.0100009
0.0100007
0.00999884
0.00999872
0.00999937
0.0099995
0.00999989
0.0099982
0.0100007
0.0099983
0.0100001
0.0100005
0.0100006
0.0100004
0.0100005
0.0100013
0.0100053
)
;

boundaryField
{
    inlet
    {
        type            fixedValue;
        value           uniform 0.2;
    }
    outlet
    {
        type            zeroGradient;
    }
    yzfaces
    {
        type            empty;
    }
}


// ************************************************************************* //
