/*--------------------------------*- C++ -*----------------------------------*\
| =========                 |                                                 |
| \\      /  F ield         | foam-extend: Open Source CFD                    |
|  \\    /   O peration     | Version:     5.0                                |
|   \\  /    A nd           | Web:         http://www.foam-extend.org         |
|    \\/     M anipulation  |                                                 |
\*---------------------------------------------------------------------------*/
FoamFile
{
    version     2.0;
    format      ascii;
    class       volScalarField;
    location    "2";
    object      CO2.water;
}
// * * * * * * * * * * * * * * * * * * * * * * * * * * * * * * * * * * * * * //

dimensions      [0 0 0 0 0 0 0];

internalField   nonuniform List<scalar> 
100
(
0.00173924
0.00220987
0.00249181
0.00269926
0.00286818
0.00300343
0.00311715
0.0032246
0.00331955
0.00340778
0.00349822
0.00358028
0.00365915
0.0037423
0.00383639
0.00395164
0.00410833
0.00434501
0.00483481
0.00100814
0.000390275
0.000140143
4.79702e-05
1.6088e-05
5.36797e-06
1.79545e-06
6.01764e-07
2.00897e-07
6.65224e-08
2.212e-08
7.36066e-09
2.25458e-09
6.80642e-10
2.07929e-10
6.46739e-11
2.03196e-11
6.49667e-12
2.105e-12
6.90156e-13
2.27817e-13
7.56861e-14
2.52554e-14
8.44922e-15
2.82893e-15
9.46203e-16
3.17031e-16
1.06406e-16
3.56508e-17
1.19359e-17
4.00222e-18
1.34131e-18
4.49167e-19
1.50538e-19
5.03177e-20
6.51506e-19
9.52041e-19
8.60772e-19
6.31502e-19
4.09736e-19
2.4505e-19
1.38525e-19
7.5174e-20
3.95291e-20
2.02804e-20
1.01854e-20
5.02232e-21
2.43597e-21
1.16049e-21
5.43959e-22
2.50896e-22
1.13757e-22
5.08006e-23
2.23178e-23
9.65141e-24
4.11299e-24
1.72826e-24
7.1756e-25
2.94375e-25
1.19065e-25
4.75076e-26
1.86913e-26
7.23833e-27
2.75274e-27
1.05001e-27
3.93375e-28
1.38813e-28
4.62056e-29
1.53799e-29
5.12626e-30
1.70771e-30
5.69274e-31
1.89591e-31
6.31834e-32
2.10311e-32
7.00893e-33
2.33647e-33
7.78029e-34
2.59394e-34
8.63537e-35
3.45302e-35
)
;

boundaryField
{
    inlet
    {
        type            fixedValue;
        value           uniform 0;
    }
    outlet
    {
        type            zeroGradient;
    }
    yzfaces
    {
        type            empty;
    }
}


// ************************************************************************* //
