/*--------------------------------*- C++ -*----------------------------------*\
| =========                 |                                                 |
| \\      /  F ield         | foam-extend: Open Source CFD                    |
|  \\    /   O peration     | Version:     5.0                                |
|   \\  /    A nd           | Web:         http://www.foam-extend.org         |
|    \\/     M anipulation  |                                                 |
\*---------------------------------------------------------------------------*/
FoamFile
{
    version     2.0;
    format      ascii;
    class       volScalarField;
    location    "2";
    object      H2O.gas;
}
// * * * * * * * * * * * * * * * * * * * * * * * * * * * * * * * * * * * * * //

dimensions      [0 0 0 0 0 0 0];

internalField   nonuniform List<scalar> 
100
(
2.51474e-05
0.000122501
0.000118929
0.00018924
0.000148773
0.000157509
0.000147313
0.000138041
0.000130475
0.000123731
0.000122291
0.000123976
0.000116169
0.000111884
0.000104825
9.62846e-05
8.4713e-05
6.66583e-05
2.92628e-05
0.0018582
0.00321965
0.00474175
0.00638075
0.00813394
0.00996105
0.0118057
0.0135828
0.0152406
0.0166892
0.0178745
0.0187231
0.0191777
0.0191943
0.0187759
0.017932
0.0167653
0.0153938
0.0140111
0.0127876
0.011814
0.0111263
0.010672
0.0103927
0.0102293
0.0101327
0.0100772
0.0100502
0.0100254
0.0100176
0.0100044
0.0100055
0.0100047
0.00999468
0.0100017
0.0100033
0.010003
0.0100001
0.00999983
0.0100004
0.00999837
0.00999548
0.00999694
0.00999994
0.0100011
0.00999752
0.00999822
0.010007
0.01
0.0100026
0.0100011
0.00998811
0.00999353
0.00999383
0.0099909
0.0099915
0.00999639
0.00999212
0.00998967
0.00998263
0.00998271
0.009987
0.00999686
0.0100028
0.0100044
0.0100111
0.0100114
0.0100082
0.0100071
0.0100032
0.0100032
0.00999981
0.0100053
0.00999991
0.0100029
0.0100032
0.0100085
0.0100004
0.00999855
0.0100083
0.0100025
)
;

boundaryField
{
    inlet
    {
        type            fixedValue;
        value           uniform 0;
    }
    outlet
    {
        type            zeroGradient;
    }
    yzfaces
    {
        type            empty;
    }
}


// ************************************************************************* //
