/*--------------------------------*- C++ -*----------------------------------*\
| =========                 |                                                 |
| \\      /  F ield         | foam-extend: Open Source CFD                    |
|  \\    /   O peration     | Version:     5.0                                |
|   \\  /    A nd           | Web:         http://www.foam-extend.org         |
|    \\/     M anipulation  |                                                 |
\*---------------------------------------------------------------------------*/
FoamFile
{
    version     2.0;
    format      ascii;
    class       volScalarField;
    location    "2";
    object      Na.water;
}
// * * * * * * * * * * * * * * * * * * * * * * * * * * * * * * * * * * * * * //

dimensions      [0 0 0 0 0 0 0];

internalField   nonuniform List<scalar> 
100
(
0.00760388
0.00965973
0.0108961
0.0118056
0.0125402
0.0131326
0.0136277
0.0140974
0.0145147
0.014897
0.0152953
0.0156535
0.0159989
0.0163602
0.0167755
0.0172812
0.017965
0.0190004
0.0211413
0.0207604
0.0210283
0.0211136
0.0210875
0.0210736
0.021065
0.02106
0.0210513
0.0210721
0.0211103
0.0211869
0.0212813
0.0214016
0.0215417
0.0217157
0.0219018
0.022113
0.0223023
0.0224795
0.0226395
0.0227481
0.0228471
0.0229058
0.0229548
0.0229853
0.0229972
0.0230013
0.0230196
0.0230043
0.0230018
0.0229825
0.0229947
0.022999
0.0229797
0.0230006
0.0230107
0.0230193
0.0230116
0.0230114
0.0230116
0.0230024
0.0229921
0.0229994
0.0230056
0.0230081
0.0230002
0.0229995
0.0230257
0.0230108
0.0230114
0.023005
0.0229752
0.022985
0.0229839
0.0229801
0.0229849
0.0229918
0.0229808
0.0229763
0.0229656
0.0229592
0.0229667
0.0229877
0.0229954
0.0230004
0.0230093
0.0230193
0.023017
0.0230143
0.0230093
0.0230087
0.0229986
0.0230069
0.0230019
0.0229995
0.022999
0.0230198
0.0229976
0.02299
0.0230085
0.022987
)
;

boundaryField
{
    inlet
    {
        type            fixedValue;
        value           uniform 0;
    }
    outlet
    {
        type            zeroGradient;
    }
    yzfaces
    {
        type            empty;
    }
}


// ************************************************************************* //
