/*--------------------------------*- C++ -*----------------------------------*\
| =========                 |                                                 |
| \\      /  F ield         | foam-extend: Open Source CFD                    |
|  \\    /   O peration     | Version:     5.0                                |
|   \\  /    A nd           | Web:         http://www.foam-extend.org         |
|    \\/     M anipulation  |                                                 |
\*---------------------------------------------------------------------------*/
FoamFile
{
    version     2.0;
    format      ascii;
    class       surfaceScalarField;
    location    "2";
    object      phi;
}
// * * * * * * * * * * * * * * * * * * * * * * * * * * * * * * * * * * * * * //

dimensions      [0 3 -1 0 0 0 0];

internalField   nonuniform List<scalar> 
99
(
1.22727e-06
1.2311e-06
1.22775e-06
1.22358e-06
1.22628e-06
1.22729e-06
1.22369e-06
1.23927e-06
1.23461e-06
1.2334e-06
1.23612e-06
1.23377e-06
1.23671e-06
1.23761e-06
1.23513e-06
1.23304e-06
1.23565e-06
1.23423e-06
1.2343e-06
1.23582e-06
1.23803e-06
1.23633e-06
1.23856e-06
1.24059e-06
1.24238e-06
1.23946e-06
1.23799e-06
1.23715e-06
1.23645e-06
1.2376e-06
1.23779e-06
1.23856e-06
1.23968e-06
1.23935e-06
1.24035e-06
1.23915e-06
1.23773e-06
1.23714e-06
1.23722e-06
1.23736e-06
1.23845e-06
1.23818e-06
1.23837e-06
1.23945e-06
1.2394e-06
1.23968e-06
1.24038e-06
1.24199e-06
1.24191e-06
1.24275e-06
1.24306e-06
1.24477e-06
1.24494e-06
1.24393e-06
1.24323e-06
1.24363e-06
1.24339e-06
1.24299e-06
1.24207e-06
1.2418e-06
1.24235e-06
1.24069e-06
1.24042e-06
1.23962e-06
1.24078e-06
1.24203e-06
1.24357e-06
1.24158e-06
1.24147e-06
1.23902e-06
1.23929e-06
1.23822e-06
1.2382e-06
1.23893e-06
1.23858e-06
1.239e-06
1.23873e-06
1.23911e-06
1.23821e-06
1.23806e-06
1.23918e-06
1.24116e-06
1.24161e-06
1.24305e-06
1.24247e-06
1.23978e-06
1.23867e-06
1.23771e-06
1.23945e-06
1.23818e-06
1.23747e-06
1.23542e-06
1.23562e-06
1.23363e-06
1.23553e-06
1.23607e-06
1.23403e-06
1.23436e-06
1.23491e-06
)
;

boundaryField
{
    inlet
    {
        type            calculated;
        value           uniform -1.225e-06;
    }
    outlet
    {
        type            calculated;
        value           uniform 1.23528e-06;
    }
    yzfaces
    {
        type            empty;
    }
}


// ************************************************************************* //
