/*--------------------------------*- C++ -*----------------------------------*\
| =========                 |                                                 |
| \\      /  F ield         | foam-extend: Open Source CFD                    |
|  \\    /   O peration     | Version:     5.0                                |
|   \\  /    A nd           | Web:         http://www.foam-extend.org         |
|    \\/     M anipulation  |                                                 |
\*---------------------------------------------------------------------------*/
FoamFile
{
    version     2.0;
    format      ascii;
    class       volVectorField;
    location    "2";
    object      U.water;
}
// * * * * * * * * * * * * * * * * * * * * * * * * * * * * * * * * * * * * * //

dimensions      [0 1 -1 0 0 0 0];

internalField   nonuniform List<vector> 
100
(
(0.000103942 0 0)
(0.000256322 0 0)
(0.00038895 0 0)
(0.000507352 0 0)
(0.000623516 0 0)
(0.000737696 0 0)
(0.000847539 0 0)
(0.000966153 0 0)
(0.00108412 0 0)
(0.00119576 0 0)
(0.00131911 0 0)
(0.00144663 0 0)
(0.00158323 0 0)
(0.00173881 0 0)
(0.00191104 0 0)
(0.00213738 0 0)
(0.00246589 0 0)
(0.00300487 0 0)
(0.00362202 0 0)
(0.00398941 0 0)
(0.00416727 0 0)
(0.00422464 0 0)
(0.0042255 0 0)
(0.00421203 0 0)
(0.00419492 0 0)
(0.00417563 0 0)
(0.00416152 0 0)
(0.00416395 0 0)
(0.00418174 0 0)
(0.00421717 0 0)
(0.00426852 0 0)
(0.00433345 0 0)
(0.00441446 0 0)
(0.00450543 0 0)
(0.00460447 0 0)
(0.00470458 0 0)
(0.00479494 0 0)
(0.00487393 0 0)
(0.0049388 0 0)
(0.00498715 0 0)
(0.0050218 0 0)
(0.00504387 0 0)
(0.0050559 0 0)
(0.00506586 0 0)
(0.00507212 0 0)
(0.00507491 0 0)
(0.00507826 0 0)
(0.00508381 0 0)
(0.00508735 0 0)
(0.00508912 0 0)
(0.00509161 0 0)
(0.00509584 0 0)
(0.00509975 0 0)
(0.00509805 0 0)
(0.00509453 0 0)
(0.0050939 0 0)
(0.00509433 0 0)
(0.00509301 0 0)
(0.0050903 0 0)
(0.00508784 0 0)
(0.00508841 0 0)
(0.00508614 0 0)
(0.00508219 0 0)
(0.00508005 0 0)
(0.00508081 0 0)
(0.00508572 0 0)
(0.00509146 0 0)
(0.00509061 0 0)
(0.00508625 0 0)
(0.00508096 0 0)
(0.00507648 0 0)
(0.00507482 0 0)
(0.00507255 0 0)
(0.00507402 0 0)
(0.00507473 0 0)
(0.0050749 0 0)
(0.00507525 0 0)
(0.00507546 0 0)
(0.00507443 0 0)
(0.00507236 0 0)
(0.00507434 0 0)
(0.00508065 0 0)
(0.00508561 0 0)
(0.00508946 0 0)
(0.00509123 0 0)
(0.00508451 0 0)
(0.00507682 0 0)
(0.00507256 0 0)
(0.00507412 0 0)
(0.00507514 0 0)
(0.00507107 0 0)
(0.00506543 0 0)
(0.00506154 0 0)
(0.00505791 0 0)
(0.00505772 0 0)
(0.00506272 0 0)
(0.00505962 0 0)
(0.00505612 0 0)
(0.00505793 0 0)
(0.00505984 0 0)
)
;

boundaryField
{
    inlet
    {
        type            fixedValue;
        value           uniform (0 0 0);
    }
    outlet
    {
        type            zeroGradient;
    }
    yzfaces
    {
        type            empty;
    }
}


// ************************************************************************* //
