/*--------------------------------*- C++ -*----------------------------------*\
| =========                 |                                                 |
| \\      /  F ield         | foam-extend: Open Source CFD                    |
|  \\    /   O peration     | Version:     5.0                                |
|   \\  /    A nd           | Web:         http://www.foam-extend.org         |
|    \\/     M anipulation  |                                                 |
\*---------------------------------------------------------------------------*/
FoamFile
{
    version     2.0;
    format      ascii;
    class       volScalarField;
    location    "10";
    object      Cl.water;
}
// * * * * * * * * * * * * * * * * * * * * * * * * * * * * * * * * * * * * * //

dimensions      [0 0 0 0 0 0 0];

internalField   nonuniform List<scalar> 
100
(
0.00570281
0.00834533
0.0102102
0.0122136
0.0132255
0.0138288
0.0146386
0.0154166
0.0163293
0.0168212
0.0167621
0.0170299
0.0172501
0.0177885
0.0181844
0.0185311
0.018887
0.0192853
0.0196274
0.0200387
0.0203896
0.0206764
0.0209525
0.0210901
0.0213851
0.0216736
0.0220515
0.0223814
0.0228025
0.0229335
0.0231188
0.0232239
0.0233668
0.0234734
0.0234129
0.0233964
0.0235287
0.0236116
0.0237662
0.0240012
0.0242452
0.0244775
0.0245974
0.0248312
0.0249819
0.0251145
0.0252472
0.0253345
0.0254
0.0254545
0.025584
0.0257055
0.025881
0.0259914
0.0260538
0.0261434
0.0263255
0.0264417
0.0265722
0.026591
0.0266313
0.026751
0.0268306
0.0269033
0.0269939
0.0271116
0.027256
0.0274026
0.0274629
0.0276102
0.0276669
0.0277829
0.0278851
0.0279712
0.0280065
0.0281123
0.0281983
0.0283139
0.0283453
0.0283911
0.0284537
0.0285156
0.0286125
0.0286932
0.0288012
0.0289179
0.0289997
0.0290818
0.0291642
0.0291605
0.0292275
0.0292538
0.0292943
0.0293687
0.0294802
0.0295197
0.0295971
0.0296923
0.0297501
0.0298504
)
;

boundaryField
{
    inlet
    {
        type            fixedValue;
        value           uniform 0;
    }
    outlet
    {
        type            zeroGradient;
    }
    yzfaces
    {
        type            empty;
    }
}


// ************************************************************************* //
