/*--------------------------------*- C++ -*----------------------------------*\
| =========                 |                                                 |
| \\      /  F ield         | foam-extend: Open Source CFD                    |
|  \\    /   O peration     | Version:     5.0                                |
|   \\  /    A nd           | Web:         http://www.foam-extend.org         |
|    \\/     M anipulation  |                                                 |
\*---------------------------------------------------------------------------*/
FoamFile
{
    version     2.0;
    format      ascii;
    class       volScalarField;
    location    "10";
    object      CO2.gas;
}
// * * * * * * * * * * * * * * * * * * * * * * * * * * * * * * * * * * * * * //

dimensions      [0 0 0 0 0 0 0];

internalField   nonuniform List<scalar> 
100
(
0.168601
0.158034
0.148784
0.146515
0.143238
0.138632
0.132155
0.127195
0.124932
0.12377
0.12291
0.120031
0.116936
0.113326
0.110305
0.108082
0.105704
0.103987
0.101408
0.0994039
0.0976036
0.0961931
0.0951289
0.0939306
0.0922733
0.0908063
0.08964
0.0882672
0.0874406
0.0868693
0.0863633
0.0860418
0.086027
0.0856458
0.0850488
0.084435
0.084186
0.0834439
0.0825243
0.0813849
0.0803581
0.0793519
0.0784827
0.0775605
0.0769574
0.0764177
0.0758258
0.0753062
0.0748099
0.0742271
0.0737103
0.0730875
0.0725358
0.0719249
0.0713016
0.0708136
0.0703465
0.0697909
0.0694511
0.0690993
0.068679
0.0683013
0.0676915
0.0672433
0.0666886
0.0662568
0.0657712
0.0652895
0.0650293
0.0645321
0.0641432
0.0637013
0.063286
0.0628543
0.0624777
0.0621525
0.0617557
0.0614618
0.0611554
0.0608127
0.0604933
0.060094
0.0598167
0.0594842
0.0590848
0.0586669
0.0582911
0.0579906
0.0577103
0.0574484
0.0571102
0.056835
0.0564855
0.056231
0.0558638
0.0555746
0.0553289
0.05502
0.0548142
0.0546598
)
;

boundaryField
{
    inlet
    {
        type            fixedValue;
        value           uniform 0.2;
    }
    outlet
    {
        type            zeroGradient;
    }
    yzfaces
    {
        type            empty;
    }
}


// ************************************************************************* //
