/*--------------------------------*- C++ -*----------------------------------*\
| =========                 |                                                 |
| \\      /  F ield         | foam-extend: Open Source CFD                    |
|  \\    /   O peration     | Version:     5.0                                |
|   \\  /    A nd           | Web:         http://www.foam-extend.org         |
|    \\/     M anipulation  |                                                 |
\*---------------------------------------------------------------------------*/
FoamFile
{
    version     2.0;
    format      ascii;
    class       volScalarField;
    location    "10";
    object      H2O.gas;
}
// * * * * * * * * * * * * * * * * * * * * * * * * * * * * * * * * * * * * * //

dimensions      [0 0 0 0 0 0 0];

internalField   nonuniform List<scalar> 
100
(
0.000329408
0.000308197
0.000290757
0.000284709
0.000277369
0.000267493
0.000256203
0.000247328
0.000242684
0.000241994
0.00024017
0.000235658
0.000227926
0.000221358
0.000215903
0.00020997
0.000205933
0.000201634
0.000197591
0.000194435
0.000190858
0.0001884
0.00018642
0.000183281
0.000180804
0.000178489
0.00017569
0.000173126
0.00017111
0.000169647
0.000168989
0.000168645
0.000167994
0.00016729
0.000166507
0.000165163
0.000163706
0.000162073
0.000160179
0.000158078
0.000156281
0.000154701
0.000152858
0.000151248
0.000149999
0.000148525
0.000147446
0.000146296
0.000145057
0.000144091
0.000143123
0.000141793
0.00014108
0.000140083
0.00013908
0.000137937
0.000137023
0.00013624
0.000135653
0.000134759
0.000133762
0.00013297
0.000132212
0.000131224
0.000130215
0.000129218
0.000128497
0.00012793
0.000127073
0.000126485
0.000125665
0.000124964
0.00012412
0.000123398
0.000122479
0.000121726
0.000120854
0.000120156
0.000119284
0.00011838
0.000117734
0.000117101
0.000116423
0.000115764
0.000115
0.000114353
0.000113681
0.000113018
0.000112568
0.000112071
0.000111525
0.00011097
0.000110358
0.000109778
0.000109227
0.000108627
0.000108107
0.000107653
0.000107105
0.000106637
)
;

boundaryField
{
    inlet
    {
        type            fixedValue;
        value           uniform 0;
    }
    outlet
    {
        type            zeroGradient;
    }
    yzfaces
    {
        type            empty;
    }
}


// ************************************************************************* //
