/*--------------------------------*- C++ -*----------------------------------*\
| =========                 |                                                 |
| \\      /  F ield         | foam-extend: Open Source CFD                    |
|  \\    /   O peration     | Version:     5.0                                |
|   \\  /    A nd           | Web:         http://www.foam-extend.org         |
|    \\/     M anipulation  |                                                 |
\*---------------------------------------------------------------------------*/
FoamFile
{
    version     2.0;
    format      ascii;
    class       volScalarField;
    location    "10";
    object      H2O.water;
}
// * * * * * * * * * * * * * * * * * * * * * * * * * * * * * * * * * * * * * //

dimensions      [0 0 0 0 0 0 0];

internalField   nonuniform List<scalar> 
100
(
0.0188549
0.0238442
0.0290993
0.0275084
0.0286807
0.0313923
0.0365963
0.0395724
0.0405362
0.040894
0.0413247
0.0437219
0.0459741
0.0487467
0.0508798
0.0521309
0.0537964
0.054504
0.0566832
0.0575985
0.0586999
0.0591824
0.0596118
0.0602231
0.0615521
0.0624526
0.0631533
0.0638901
0.0638583
0.0641444
0.0643526
0.0645897
0.0643854
0.0645059
0.0650623
0.0654005
0.0651599
0.06592
0.0665309
0.0674372
0.0681646
0.068634
0.0690864
0.0696689
0.0697835
0.0699801
0.0704747
0.0707681
0.0710963
0.0714822
0.0717687
0.0721797
0.0723014
0.0726664
0.0730941
0.0732501
0.0733593
0.0737208
0.0738842
0.0740171
0.0743271
0.0744772
0.074955
0.0750669
0.07546
0.0756868
0.0760418
0.0762955
0.0762594
0.0766796
0.0768799
0.0770633
0.0773379
0.0775815
0.0777188
0.0777913
0.0780266
0.0781649
0.0783016
0.0784489
0.0786201
0.078939
0.0790524
0.0792818
0.0795725
0.0797627
0.0798891
0.0800444
0.0801874
0.0803825
0.0806643
0.0806893
0.0810333
0.0810821
0.08132
0.081418
0.0815108
0.081696
0.0817459
0.0817949
)
;

boundaryField
{
    inlet
    {
        type            fixedValue;
        value           uniform 0;
    }
    outlet
    {
        type            zeroGradient;
    }
    yzfaces
    {
        type            empty;
    }
}


// ************************************************************************* //
