/*--------------------------------*- C++ -*----------------------------------*\
| =========                 |                                                 |
| \\      /  F ield         | foam-extend: Open Source CFD                    |
|  \\    /   O peration     | Version:     5.0                                |
|   \\  /    A nd           | Web:         http://www.foam-extend.org         |
|    \\/     M anipulation  |                                                 |
\*---------------------------------------------------------------------------*/
FoamFile
{
    version     2.0;
    format      ascii;
    class       volScalarField;
    location    "10";
    object      Na.water;
}
// * * * * * * * * * * * * * * * * * * * * * * * * * * * * * * * * * * * * * //

dimensions      [0 0 0 0 0 0 0];

internalField   nonuniform List<scalar> 
100
(
0.00570319
0.0083497
0.0102194
0.0122278
0.0132304
0.0138272
0.0146402
0.0154155
0.0163278
0.0168225
0.0167673
0.0170337
0.017248
0.0177759
0.0181777
0.0185319
0.0188999
0.0192911
0.0196314
0.0200424
0.0203878
0.020679
0.0209621
0.0211016
0.0213958
0.0216867
0.0220827
0.022397
0.0228195
0.0229513
0.0231315
0.0232415
0.0233788
0.0234699
0.0234203
0.0234125
0.023533
0.0236151
0.0237715
0.0239929
0.0242302
0.0244552
0.0245717
0.0248179
0.0249616
0.0250928
0.0252211
0.0253215
0.0253817
0.0254375
0.0255698
0.0257012
0.0258877
0.0259907
0.0260457
0.0261298
0.0263264
0.0264532
0.0265795
0.0265966
0.0266288
0.0267536
0.0268423
0.0269133
0.0270071
0.0271212
0.02726
0.0273884
0.0274444
0.0275775
0.0276196
0.0277499
0.0278526
0.0279358
0.0279655
0.0280764
0.0281502
0.0282737
0.0283218
0.0283702
0.0284457
0.028519
0.0286012
0.028686
0.0287841
0.0289063
0.0290038
0.0291037
0.029185
0.0291835
0.0292438
0.0292829
0.0293192
0.0293957
0.0294987
0.029536
0.0296091
0.0297042
0.0297643
0.0298641
)
;

boundaryField
{
    inlet
    {
        type            fixedValue;
        value           uniform 0;
    }
    outlet
    {
        type            zeroGradient;
    }
    yzfaces
    {
        type            empty;
    }
}


// ************************************************************************* //
