/*--------------------------------*- C++ -*----------------------------------*\
| =========                 |                                                 |
| \\      /  F ield         | foam-extend: Open Source CFD                    |
|  \\    /   O peration     | Version:     5.0                                |
|   \\  /    A nd           | Web:         http://www.foam-extend.org         |
|    \\/     M anipulation  |                                                 |
\*---------------------------------------------------------------------------*/
FoamFile
{
    version     2.0;
    format      ascii;
    class       surfaceScalarField;
    location    "10";
    object      phi;
}
// * * * * * * * * * * * * * * * * * * * * * * * * * * * * * * * * * * * * * //

dimensions      [0 3 -1 0 0 0 0];

internalField   nonuniform List<scalar> 
99
(
1.21933e-06
1.22633e-06
1.24375e-06
1.24354e-06
1.23355e-06
1.21703e-06
1.20851e-06
1.20927e-06
1.21593e-06
1.21827e-06
1.2152e-06
1.20025e-06
1.18256e-06
1.17658e-06
1.16934e-06
1.16709e-06
1.17242e-06
1.17072e-06
1.18036e-06
1.18062e-06
1.18294e-06
1.18823e-06
1.18333e-06
1.17907e-06
1.17422e-06
1.17847e-06
1.1796e-06
1.18171e-06
1.18324e-06
1.18999e-06
1.19585e-06
1.19483e-06
1.19072e-06
1.18708e-06
1.18745e-06
1.18097e-06
1.18394e-06
1.18081e-06
1.1797e-06
1.18217e-06
1.18283e-06
1.1871e-06
1.19014e-06
1.19245e-06
1.18957e-06
1.18948e-06
1.19195e-06
1.19385e-06
1.19254e-06
1.19205e-06
1.19165e-06
1.19104e-06
1.19172e-06
1.19298e-06
1.19215e-06
1.19084e-06
1.19323e-06
1.19565e-06
1.1969e-06
1.19514e-06
1.19513e-06
1.19394e-06
1.1949e-06
1.1959e-06
1.19879e-06
1.19774e-06
1.19919e-06
1.20188e-06
1.19869e-06
1.19852e-06
1.19717e-06
1.19716e-06
1.19844e-06
1.19904e-06
1.19924e-06
1.19804e-06
1.20114e-06
1.20079e-06
1.20047e-06
1.19939e-06
1.2003e-06
1.20068e-06
1.20058e-06
1.20044e-06
1.20032e-06
1.19923e-06
1.20041e-06
1.19974e-06
1.19573e-06
1.19509e-06
1.19352e-06
1.19009e-06
1.19094e-06
1.18689e-06
1.18686e-06
1.18627e-06
1.18348e-06
1.18483e-06
1.18449e-06
)
;

boundaryField
{
    inlet
    {
        type            calculated;
        value           uniform -1.225e-06;
    }
    outlet
    {
        type            calculated;
        value           uniform 1.18228e-06;
    }
    yzfaces
    {
        type            empty;
    }
}


// ************************************************************************* //
