/*--------------------------------*- C++ -*----------------------------------*\
| =========                 |                                                 |
| \\      /  F ield         | foam-extend: Open Source CFD                    |
|  \\    /   O peration     | Version:     5.0                                |
|   \\  /    A nd           | Web:         http://www.foam-extend.org         |
|    \\/     M anipulation  |                                                 |
\*---------------------------------------------------------------------------*/
FoamFile
{
    version     2.0;
    format      ascii;
    class       surfaceScalarField;
    location    "10";
    object      phi.water;
}
// * * * * * * * * * * * * * * * * * * * * * * * * * * * * * * * * * * * * * //

dimensions      [0 3 -1 0 0 0 0];

internalField   nonuniform List<scalar> 
99
(
6.43121e-08
1.03927e-07
1.57433e-07
1.67556e-07
1.82274e-07
2.05772e-07
2.51464e-07
2.96388e-07
3.20462e-07
3.32703e-07
3.35646e-07
3.59912e-07
3.8524e-07
4.26492e-07
4.62788e-07
4.92215e-07
5.29059e-07
5.53151e-07
6.01377e-07
6.36298e-07
6.72277e-07
7.0308e-07
7.192e-07
7.40901e-07
7.74873e-07
8.11755e-07
8.3805e-07
8.75167e-07
8.9937e-07
9.18804e-07
9.37869e-07
9.45907e-07
9.40572e-07
9.48312e-07
9.63906e-07
9.7796e-07
9.84628e-07
1.00292e-06
1.02749e-06
1.06419e-06
1.09713e-06
1.13364e-06
1.16398e-06
1.20044e-06
1.21767e-06
1.23664e-06
1.26113e-06
1.28205e-06
1.29782e-06
1.32062e-06
1.34031e-06
1.36442e-06
1.38647e-06
1.41285e-06
1.43789e-06
1.45659e-06
1.48035e-06
1.50751e-06
1.52424e-06
1.53807e-06
1.55779e-06
1.57088e-06
1.60243e-06
1.62379e-06
1.65506e-06
1.67421e-06
1.70167e-06
1.7307e-06
1.7373e-06
1.76349e-06
1.78044e-06
1.80448e-06
1.82869e-06
1.85188e-06
1.87203e-06
1.8888e-06
1.91562e-06
1.93298e-06
1.95013e-06
1.96735e-06
1.98728e-06
2.01015e-06
2.02729e-06
2.04595e-06
2.07005e-06
2.09501e-06
2.12049e-06
2.13733e-06
2.14752e-06
2.16245e-06
2.18145e-06
2.19333e-06
2.21674e-06
2.22594e-06
2.24968e-06
2.2681e-06
2.27894e-06
2.30367e-06
2.31632e-06
)
;

boundaryField
{
    inlet
    {
        type            fixedValue;
        value           uniform 0;
    }
    outlet
    {
        type            calculated;
        value           uniform 2.32099e-06;
    }
    yzfaces
    {
        type            empty;
    }
}


// ************************************************************************* //
