/*--------------------------------*- C++ -*----------------------------------*\
| =========                 |                                                 |
| \\      /  F ield         | foam-extend: Open Source CFD                    |
|  \\    /   O peration     | Version:     5.0                                |
|   \\  /    A nd           | Web:         http://www.foam-extend.org         |
|    \\/     M anipulation  |                                                 |
\*---------------------------------------------------------------------------*/
FoamFile
{
    version     2.0;
    format      ascii;
    class       volScalarField;
    location    "4";
    object      alpha.gas;
}
// * * * * * * * * * * * * * * * * * * * * * * * * * * * * * * * * * * * * * //

dimensions      [0 0 0 0 0 0 0];

internalField   nonuniform List<scalar> 
100
(
0.150862
0.135384
0.125053
0.117907
0.112152
0.107391
0.102638
0.0986538
0.0946707
0.0916302
0.0889441
0.0867414
0.0843536
0.0824563
0.0808472
0.0795668
0.0780032
0.0765814
0.0750351
0.0737267
0.0721619
0.0705345
0.0690792
0.0676842
0.0664407
0.0651806
0.0638657
0.0625015
0.0611525
0.0599057
0.0587651
0.0575002
0.0562265
0.0548556
0.0532716
0.0515244
0.04909
0.0460986
0.0431886
0.0406584
0.000768961
0.0372521
0.036309
0.0357648
0.0354904
0.0353939
0.0353797
0.0353879
0.0353548
0.0352852
0.0351751
0.0350509
0.0348354
0.0345777
0.0342526
0.0338538
0.0333857
0.0328648
0.0322688
0.0315653
0.0307574
0.0298597
0.0288281
0.0276458
0.0263123
0.0248306
0.023177
0.0213699
0.0194547
0.0175131
0.0156558
0.0140095
0.0126789
0.011699
0.0110337
0.0106095
0.0103546
0.0102041
0.0101173
0.0100679
0.0100399
0.0100221
0.0100138
0.0100098
0.0100062
0.0100029
0.0100025
0.0100006
0.0100018
0.0100014
0.0100025
0.0100029
0.0100017
0.0100006
0.0100005
0.0100005
0.0100032
0.0100017
0.0100023
0.0100022
)
;

boundaryField
{
    inlet
    {
        type            fixedValue;
        value           uniform 0.2;
    }
    outlet
    {
        type            zeroGradient;
    }
    yzfaces
    {
        type            empty;
    }
}


// ************************************************************************* //
