/*--------------------------------*- C++ -*----------------------------------*\
| =========                 |                                                 |
| \\      /  F ield         | foam-extend: Open Source CFD                    |
|  \\    /   O peration     | Version:     5.0                                |
|   \\  /    A nd           | Web:         http://www.foam-extend.org         |
|    \\/     M anipulation  |                                                 |
\*---------------------------------------------------------------------------*/
FoamFile
{
    version     2.0;
    format      ascii;
    class       volScalarField;
    location    "4";
    object      Cl.water;
}
// * * * * * * * * * * * * * * * * * * * * * * * * * * * * * * * * * * * * * //

dimensions      [0 0 0 0 0 0 0];

internalField   nonuniform List<scalar> 
100
(
1.20173e-15
0.00255292
0.00509564
0.00565862
0.0056794
0.00617049
0.00723276
0.00783205
0.00787906
0.00790687
0.00835904
0.00866241
0.00856554
0.0085068
0.00891725
0.00918492
0.00906837
0.00899292
0.00937259
0.00954712
0.00928329
0.00922709
0.00981819
0.00993084
0.0095639
0.00957079
0.0104263
0.0118645
0.0114361
0.0104759
0.0106801
0.0120595
0.0100186
0.00942125
0.0112123
0.0137233
0.00807662
0.00996807
0.0140032
0.0169453
-4.4964e-15
0.0193522
0.0196959
0.0198615
0.0199185
0.0199363
0.0199401
0.019947
0.0199258
0.0199416
0.0199618
0.0199888
0.0200027
0.0200409
0.0200654
0.0201115
0.0201612
0.0202459
0.0203314
0.0203928
0.0204915
0.020613
0.0207252
0.0208725
0.0210345
0.0212376
0.0214341
0.0216421
0.0218793
0.0221101
0.0223326
0.0225126
0.0226705
0.0227955
0.0228887
0.0229606
0.0230167
0.0230311
0.0230402
0.0230385
0.0230301
0.0230325
0.0230284
0.0230156
0.022984
0.0229938
0.0230014
0.0229991
0.0230023
0.0230012
0.0230184
0.0230217
0.0230251
0.023011
0.0230144
0.023024
0.0230155
0.0229934
0.0229925
0.0229956
)
;

boundaryField
{
    inlet
    {
        type            fixedValue;
        value           uniform 0;
    }
    outlet
    {
        type            zeroGradient;
    }
    yzfaces
    {
        type            empty;
    }
}


// ************************************************************************* //
