/*--------------------------------*- C++ -*----------------------------------*\
| =========                 |                                                 |
| \\      /  F ield         | foam-extend: Open Source CFD                    |
|  \\    /   O peration     | Version:     5.0                                |
|   \\  /    A nd           | Web:         http://www.foam-extend.org         |
|    \\/     M anipulation  |                                                 |
\*---------------------------------------------------------------------------*/
FoamFile
{
    version     2.0;
    format      ascii;
    class       volScalarField;
    location    "4";
    object      CO2.water;
}
// * * * * * * * * * * * * * * * * * * * * * * * * * * * * * * * * * * * * * //

dimensions      [0 0 0 0 0 0 0];

internalField   nonuniform List<scalar> 
100
(
0.00129167
0.00114157
0.000861523
0.000943474
0.00109238
0.00110988
0.000987282
0.000951891
0.00103751
0.00111783
0.00109505
0.00109788
0.00117768
0.00124533
0.00120778
0.00118342
0.00124361
0.00129767
0.00124509
0.00124758
0.00133644
0.00138665
0.00129716
0.00130567
0.00142
0.00144748
0.0012983
0.00102337
0.00115524
0.00140345
0.00139097
0.00111875
0.00159911
0.00176737
0.00141915
0.000918115
0.00220776
0.00187475
0.00107679
0.000503484
0.00522848
7.61097e-05
2.5839e-05
8.16971e-06
2.42614e-06
6.82438e-07
1.83227e-07
4.72119e-08
1.16797e-08
2.78292e-09
6.35195e-10
1.37167e-10
2.71843e-11
4.60282e-12
4.83641e-13
7.70649e-16
0
0
0
0
0
3.05809e-17
3.08111e-16
3.81958e-16
3.09209e-16
2.14151e-16
1.36323e-16
8.24347e-17
4.81081e-17
2.72473e-17
1.50226e-17
8.06914e-18
4.22263e-18
2.1538e-18
1.07095e-18
5.19501e-19
2.46081e-19
1.1376e-19
5.13609e-20
2.26086e-20
9.67145e-21
4.00358e-21
1.59452e-21
6.07307e-22
2.20951e-22
7.68215e-23
2.5529e-23
8.11378e-24
2.4586e-24
7.05313e-25
1.88233e-25
4.46299e-26
8.16391e-27
1.43943e-27
3.73573e-28
1.31143e-28
4.6e-29
1.61544e-29
5.67473e-30
2.41602e-30
)
;

boundaryField
{
    inlet
    {
        type            fixedValue;
        value           uniform 0;
    }
    outlet
    {
        type            zeroGradient;
    }
    yzfaces
    {
        type            empty;
    }
}


// ************************************************************************* //
