/*--------------------------------*- C++ -*----------------------------------*\
| =========                 |                                                 |
| \\      /  F ield         | foam-extend: Open Source CFD                    |
|  \\    /   O peration     | Version:     5.0                                |
|   \\  /    A nd           | Web:         http://www.foam-extend.org         |
|    \\/     M anipulation  |                                                 |
\*---------------------------------------------------------------------------*/
FoamFile
{
    version     2.0;
    format      ascii;
    class       volScalarField;
    location    "4";
    object      H2O.gas;
}
// * * * * * * * * * * * * * * * * * * * * * * * * * * * * * * * * * * * * * //

dimensions      [0 0 0 0 0 0 0];

internalField   nonuniform List<scalar> 
100
(
2.44435e-16
1.1043e-14
1.07758e-13
6.5411e-13
2.95171e-12
1.09797e-11
3.49332e-11
1.00764e-10
2.68105e-10
6.74077e-10
1.5978e-09
3.61612e-09
7.77703e-09
1.61688e-08
3.24474e-08
6.24393e-08
1.15428e-07
2.0733e-07
3.58456e-07
6.07382e-07
9.99686e-07
1.61046e-06
2.55117e-06
3.97152e-06
6.09087e-06
9.14713e-06
1.35654e-05
1.98055e-05
2.86177e-05
4.09709e-05
5.79077e-05
8.08832e-05
0.000111891
0.000152123
0.000204773
0.00027757
0.000353754
0.000457479
0.000638763
0.000939481
1.49753e-06
0.00196626
0.0026851
0.00353529
0.00450606
0.00559212
0.00678963
0.00809609
0.00946963
0.010925
0.0124302
0.0139827
0.0155154
0.0170456
0.0184942
0.019869
0.021131
0.022287
0.0232756
0.0240215
0.0245676
0.0249045
0.02493
0.0246784
0.0241255
0.0233043
0.0221468
0.0207097
0.0190745
0.0173115
0.01556
0.0139643
0.0126603
0.0116946
0.0110371
0.0106207
0.0103735
0.0102197
0.010132
0.0100783
0.0100475
0.0100286
0.0100184
0.0100097
0.00999348
0.00999607
0.00999768
0.00999721
0.0100012
0.0100003
0.0100095
0.0100129
0.010015
0.0100086
0.0100085
0.0100119
0.0100104
0.0100001
0.00999903
0.0100005
)
;

boundaryField
{
    inlet
    {
        type            fixedValue;
        value           uniform 0;
    }
    outlet
    {
        type            zeroGradient;
    }
    yzfaces
    {
        type            empty;
    }
}


// ************************************************************************* //
