/*--------------------------------*- C++ -*----------------------------------*\
| =========                 |                                                 |
| \\      /  F ield         | foam-extend: Open Source CFD                    |
|  \\    /   O peration     | Version:     5.0                                |
|   \\  /    A nd           | Web:         http://www.foam-extend.org         |
|    \\/     M anipulation  |                                                 |
\*---------------------------------------------------------------------------*/
FoamFile
{
    version     2.0;
    format      ascii;
    class       volScalarField;
    location    "4";
    object      Na.water;
}
// * * * * * * * * * * * * * * * * * * * * * * * * * * * * * * * * * * * * * //

dimensions      [0 0 0 0 0 0 0];

internalField   nonuniform List<scalar> 
100
(
1.20168e-15
0.00255272
0.00509361
0.00565709
0.00567454
0.00616812
0.0072336
0.0078338
0.00787668
0.00790687
0.00835979
0.00866315
0.00857327
0.00851994
0.00892932
0.00919523
0.00908101
0.00899695
0.00937578
0.00954592
0.00928609
0.00922168
0.00981416
0.0099307
0.00956459
0.00957847
0.0104369
0.0118695
0.0114446
0.0104807
0.0106851
0.012066
0.0100258
0.00942452
0.0112113
0.013719
0.00807572
0.00996724
0.0139969
0.0169389
-4.4964e-15
0.0193574
0.0197047
0.0198701
0.0199259
0.0199439
0.0199395
0.0199388
0.0199179
0.0199382
0.0199473
0.0199726
0.0199885
0.0200331
0.0200488
0.0200966
0.0201477
0.0202314
0.0203183
0.020387
0.0204868
0.0206141
0.0207292
0.0208754
0.0210319
0.0212297
0.0214248
0.0216324
0.0218771
0.0221131
0.0223401
0.0225164
0.0226784
0.0227992
0.0228882
0.0229566
0.023008
0.0230185
0.0230289
0.0230253
0.0230233
0.0230199
0.0230212
0.0230132
0.0229851
0.0229926
0.023
0.022999
0.0230071
0.0230021
0.0230163
0.0230208
0.0230331
0.023013
0.0230113
0.0230253
0.0230194
0.0229995
0.0229977
0.0229953
)
;

boundaryField
{
    inlet
    {
        type            fixedValue;
        value           uniform 0;
    }
    outlet
    {
        type            zeroGradient;
    }
    yzfaces
    {
        type            empty;
    }
}


// ************************************************************************* //
