/*--------------------------------*- C++ -*----------------------------------*\
| =========                 |                                                 |
| \\      /  F ield         | foam-extend: Open Source CFD                    |
|  \\    /   O peration     | Version:     5.0                                |
|   \\  /    A nd           | Web:         http://www.foam-extend.org         |
|    \\/     M anipulation  |                                                 |
\*---------------------------------------------------------------------------*/
FoamFile
{
    version     2.0;
    format      ascii;
    class       surfaceScalarField;
    location    "4";
    object      phi;
}
// * * * * * * * * * * * * * * * * * * * * * * * * * * * * * * * * * * * * * //

dimensions      [0 3 -1 0 0 0 0];

internalField   nonuniform List<scalar> 
99
(
1.22269e-06
1.22491e-06
1.22008e-06
1.22719e-06
1.2266e-06
1.21862e-06
1.21871e-06
1.21324e-06
1.2134e-06
1.21992e-06
1.22225e-06
1.21615e-06
1.21252e-06
1.21199e-06
1.21508e-06
1.21107e-06
1.20803e-06
1.20931e-06
1.2144e-06
1.2126e-06
1.21203e-06
1.20865e-06
1.20627e-06
1.20657e-06
1.20364e-06
1.20331e-06
1.20034e-06
1.20315e-06
1.20335e-06
1.20636e-06
1.20582e-06
1.20983e-06
1.21001e-06
1.20703e-06
1.20526e-06
1.20554e-06
1.20367e-06
1.20453e-06
1.20417e-06
1.20664e-06
1.20622e-06
1.20638e-06
1.20571e-06
1.20627e-06
1.20711e-06
1.20768e-06
1.20714e-06
1.20518e-06
1.20548e-06
1.20555e-06
1.20694e-06
1.20512e-06
1.20614e-06
1.20519e-06
1.20545e-06
1.20598e-06
1.20779e-06
1.20722e-06
1.20695e-06
1.20722e-06
1.20839e-06
1.20878e-06
1.20837e-06
1.20745e-06
1.20908e-06
1.20733e-06
1.20705e-06
1.20601e-06
1.20624e-06
1.20651e-06
1.20532e-06
1.20552e-06
1.20656e-06
1.20749e-06
1.20786e-06
1.20868e-06
1.20899e-06
1.2087e-06
1.20942e-06
1.20826e-06
1.20758e-06
1.2083e-06
1.20732e-06
1.20861e-06
1.20999e-06
1.21087e-06
1.2123e-06
1.21033e-06
1.21164e-06
1.21218e-06
1.21163e-06
1.21167e-06
1.21223e-06
1.21071e-06
1.21187e-06
1.21055e-06
1.21031e-06
1.21031e-06
1.21082e-06
)
;

boundaryField
{
    inlet
    {
        type            calculated;
        value           uniform -1.225e-06;
    }
    outlet
    {
        type            calculated;
        value           uniform 1.21115e-06;
    }
    yzfaces
    {
        type            empty;
    }
}


// ************************************************************************* //
