/*--------------------------------*- C++ -*----------------------------------*\
| =========                 |                                                 |
| \\      /  F ield         | foam-extend: Open Source CFD                    |
|  \\    /   O peration     | Version:     5.0                                |
|   \\  /    A nd           | Web:         http://www.foam-extend.org         |
|    \\/     M anipulation  |                                                 |
\*---------------------------------------------------------------------------*/
FoamFile
{
    version     2.0;
    format      ascii;
    class       surfaceScalarField;
    location    "4";
    object      phi.water;
}
// * * * * * * * * * * * * * * * * * * * * * * * * * * * * * * * * * * * * * //

dimensions      [0 3 -1 0 0 0 0];

internalField   nonuniform List<scalar> 
99
(
1.28832e-07
2.24631e-07
3.10449e-07
3.83509e-07
4.53839e-07
5.18281e-07
5.9866e-07
6.68543e-07
7.50829e-07
8.20468e-07
8.88673e-07
9.38102e-07
1.00379e-06
1.05688e-06
1.10954e-06
1.147e-06
1.19825e-06
1.2513e-06
1.31689e-06
1.36493e-06
1.42941e-06
1.49593e-06
1.55939e-06
1.62525e-06
1.68181e-06
1.74386e-06
1.8069e-06
1.88427e-06
1.95899e-06
2.03544e-06
2.10334e-06
2.19072e-06
2.27029e-06
2.3547e-06
2.46216e-06
2.58391e-06
2.76279e-06
3.00903e-06
3.26492e-06
3.51023e-06
3.7008e-06
3.84307e-06
3.93782e-06
3.99558e-06
4.02935e-06
4.04327e-06
4.04213e-06
4.03672e-06
4.04321e-06
4.04936e-06
4.0641e-06
4.06914e-06
4.09339e-06
4.11518e-06
4.15056e-06
4.19238e-06
4.2431e-06
4.28876e-06
4.34754e-06
4.41894e-06
4.50083e-06
4.59003e-06
4.6905e-06
4.80174e-06
4.93362e-06
5.06313e-06
5.21219e-06
5.36214e-06
5.51491e-06
5.65807e-06
5.77543e-06
5.87311e-06
5.94507e-06
5.99252e-06
6.01868e-06
6.03497e-06
6.04461e-06
6.04977e-06
6.05794e-06
6.05592e-06
6.05459e-06
6.0597e-06
6.05715e-06
6.06896e-06
6.07801e-06
6.08029e-06
6.08636e-06
6.07526e-06
6.08104e-06
6.08145e-06
6.07532e-06
6.07352e-06
6.07696e-06
6.07105e-06
6.07587e-06
6.06957e-06
6.07211e-06
6.07535e-06
6.078e-06
)
;

boundaryField
{
    inlet
    {
        type            fixedValue;
        value           uniform 0;
    }
    outlet
    {
        type            calculated;
        value           uniform 6.07928e-06;
    }
    yzfaces
    {
        type            empty;
    }
}


// ************************************************************************* //
