/*--------------------------------*- C++ -*----------------------------------*\
| =========                 |                                                 |
| \\      /  F ield         | foam-extend: Open Source CFD                    |
|  \\    /   O peration     | Version:     5.0                                |
|   \\  /    A nd           | Web:         http://www.foam-extend.org         |
|    \\/     M anipulation  |                                                 |
\*---------------------------------------------------------------------------*/
FoamFile
{
    version     2.0;
    format      ascii;
    class       volVectorField;
    location    "4";
    object      U.gas;
}
// * * * * * * * * * * * * * * * * * * * * * * * * * * * * * * * * * * * * * //

dimensions      [0 1 -1 0 0 0 0];

internalField   nonuniform List<vector> 
100
(
(0.00660252 0 0)
(0.0073099 0 0)
(0.00784934 0 0)
(0.00827351 0 0)
(0.00866073 0 0)
(0.00894908 0 0)
(0.00926012 0 0)
(0.00953189 0 0)
(0.00982193 0 0)
(0.0100841 0 0)
(0.0103385 0 0)
(0.0105002 0 0)
(0.0106656 0 0)
(0.0108009 0 0)
(0.0109458 0 0)
(0.0110451 0 0)
(0.0111571 0 0)
(0.0112696 0 0)
(0.0114384 0 0)
(0.0115611 0 0)
(0.0116965 0 0)
(0.011823 0 0)
(0.0119131 0 0)
(0.0120184 0 0)
(0.0121026 0 0)
(0.0121912 0 0)
(0.0122836 0 0)
(0.0123921 0 0)
(0.0125095 0 0)
(0.0126112 0 0)
(0.0126979 0 0)
(0.0128099 0 0)
(0.0129143 0 0)
(0.0129901 0 0)
(0.0130686 0 0)
(0.0131605 0 0)
(0.0133222 0 0)
(0.0134633 0 0)
(0.013477 0 0)
(0.0133793 0 0)
(0.0132006 0 0)
(0.0129862 0 0)
(0.0127951 0 0)
(0.0126471 0 0)
(0.0125612 0 0)
(0.0125159 0 0)
(0.0124972 0 0)
(0.0124801 0 0)
(0.0124746 0 0)
(0.0124762 0 0)
(0.0124805 0 0)
(0.0124673 0 0)
(0.012459 0 0)
(0.0124377 0 0)
(0.0124077 0 0)
(0.0123745 0 0)
(0.0123381 0 0)
(0.0122826 0 0)
(0.012206 0 0)
(0.01212 0 0)
(0.012016 0 0)
(0.0118811 0 0)
(0.011713 0 0)
(0.0114963 0 0)
(0.0112338 0 0)
(0.0109029 0 0)
(0.0104908 0 0)
(0.00998947 0 0)
(0.0093862 0 0)
(0.00869212 0 0)
(0.00792629 0 0)
(0.00714278 0 0)
(0.00642072 0 0)
(0.00582026 0 0)
(0.00536987 0 0)
(0.00506467 0 0)
(0.00487043 0 0)
(0.00475186 0 0)
(0.00468201 0 0)
(0.00464077 0 0)
(0.00461469 0 0)
(0.00460236 0 0)
(0.00459354 0 0)
(0.00458991 0 0)
(0.00459345 0 0)
(0.00459556 0 0)
(0.0045982 0 0)
(0.00459753 0 0)
(0.00459582 0 0)
(0.00460008 0 0)
(0.00459954 0 0)
(0.00459932 0 0)
(0.00460122 0 0)
(0.00459837 0 0)
(0.00459649 0 0)
(0.004596 0 0)
(0.00459337 0 0)
(0.00459472 0 0)
(0.00459485 0 0)
(0.00459528 0 0)
)
;

boundaryField
{
    inlet
    {
        type            fixedValue;
        value           uniform (0.005 0 0);
    }
    outlet
    {
        type            zeroGradient;
    }
    yzfaces
    {
        type            empty;
    }
}


// ************************************************************************* //
