/*--------------------------------*- C++ -*----------------------------------*\
| =========                 |                                                 |
| \\      /  F ield         | foam-extend: Open Source CFD                    |
|  \\    /   O peration     | Version:     5.0                                |
|   \\  /    A nd           | Web:         http://www.foam-extend.org         |
|    \\/     M anipulation  |                                                 |
\*---------------------------------------------------------------------------*/
FoamFile
{
    version     2.0;
    format      ascii;
    class       volVectorField;
    location    "4";
    object      U.water;
}
// * * * * * * * * * * * * * * * * * * * * * * * * * * * * * * * * * * * * * //

dimensions      [0 1 -1 0 0 0 0];

internalField   nonuniform List<vector> 
100
(
(6.08358e-05 0 0)
(0.000145169 0 0)
(0.000218453 0 0)
(0.000284772 0 0)
(0.000344138 0 0)
(0.000399526 0 0)
(0.000455961 0 0)
(0.00051581 0 0)
(0.000575461 0 0)
(0.000638411 0 0)
(0.000695655 0 0)
(0.000745734 0 0)
(0.000792148 0 0)
(0.000842152 0 0)
(0.000887101 0 0)
(0.000925342 0 0)
(0.000959843 0 0)
(0.00100168 0 0)
(0.00104816 0 0)
(0.00109488 0 0)
(0.00113896 0 0)
(0.0011903 0 0)
(0.001243 0 0)
(0.00129523 0 0)
(0.00134511 0 0)
(0.00139297 0 0)
(0.00144404 0 0)
(0.00150176 0 0)
(0.00156472 0 0)
(0.00162801 0 0)
(0.00168777 0 0)
(0.00175021 0 0)
(0.00181926 0 0)
(0.00188759 0 0)
(0.0019657 0 0)
(0.00206036 0 0)
(0.00218254 0 0)
(0.0023541 0 0)
(0.00255778 0 0)
(0.0027615 0 0)
(0.00294029 0 0)
(0.0030782 0 0)
(0.00317639 0 0)
(0.00324023 0 0)
(0.00327792 0 0)
(0.00329661 0 0)
(0.00330152 0 0)
(0.00329852 0 0)
(0.00329743 0 0)
(0.0033019 0 0)
(0.00331071 0 0)
(0.00331935 0 0)
(0.00333106 0 0)
(0.00334989 0 0)
(0.00337223 0 0)
(0.00340263 0 0)
(0.00344086 0 0)
(0.00348252 0 0)
(0.00352648 0 0)
(0.00357886 0 0)
(0.00364201 0 0)
(0.00371361 0 0)
(0.00379108 0 0)
(0.00387704 0 0)
(0.00397697 0 0)
(0.00408498 0 0)
(0.00419807 0 0)
(0.0043187 0 0)
(0.00444203 0 0)
(0.00456235 0 0)
(0.00466695 0 0)
(0.00475265 0 0)
(0.0048212 0 0)
(0.00487111 0 0)
(0.00490358 0 0)
(0.00492428 0 0)
(0.00493751 0 0)
(0.00494387 0 0)
(0.00494843 0 0)
(0.0049496 0 0)
(0.00494697 0 0)
(0.00494767 0 0)
(0.00494757 0 0)
(0.00494841 0 0)
(0.00495395 0 0)
(0.00495869 0 0)
(0.00496352 0 0)
(0.00496238 0 0)
(0.00496105 0 0)
(0.0049648 0 0)
(0.00496482 0 0)
(0.00496374 0 0)
(0.00496492 0 0)
(0.00496301 0 0)
(0.00496233 0 0)
(0.00496202 0 0)
(0.0049588 0 0)
(0.0049582 0 0)
(0.00495931 0 0)
(0.00496109 0 0)
)
;

boundaryField
{
    inlet
    {
        type            fixedValue;
        value           uniform (0 0 0);
    }
    outlet
    {
        type            zeroGradient;
    }
    yzfaces
    {
        type            empty;
    }
}


// ************************************************************************* //
