/*--------------------------------*- C++ -*----------------------------------*\
| =========                 |                                                 |
| \\      /  F ield         | foam-extend: Open Source CFD                    |
|  \\    /   O peration     | Version:     5.0                                |
|   \\  /    A nd           | Web:         http://www.foam-extend.org         |
|    \\/     M anipulation  |                                                 |
\*---------------------------------------------------------------------------*/
FoamFile
{
    version     2.0;
    format      ascii;
    class       volScalarField;
    location    "2";
    object      alpha.gas;
}
// * * * * * * * * * * * * * * * * * * * * * * * * * * * * * * * * * * * * * //

dimensions      [0 0 0 0 0 0 0];

internalField   nonuniform List<scalar> 
100
(
0.134143
0.117263
0.106489
0.0986969
0.0924911
0.0871555
0.0835063
0.0793179
0.0762131
0.0731303
0.070591
0.068318
0.0660022
0.0639217
0.0618465
0.0600702
0.0584025
0.0567142
0.0550036
0.0534673
0.0519446
0.0504158
0.0489744
0.0474527
0.0459819
0.0444348
0.0429533
0.041421
0.0398123
0.0381583
0.0364839
0.0347644
0.0329754
0.0310945
0.0290855
0.0269557
0.0247189
0.0224076
0.0200717
0.0177975
0.015727
0.0139696
0.0125973
0.0116157
0.010963
0.01056
0.0103177
0.010178
0.010098
0.0100552
0.0100293
0.0100135
0.0100078
0.0100023
0.0100026
0.0100008
0.0100027
0.010002
0.0100008
0.0100036
0.0100006
0.0100004
0.0100016
0.0100028
0.0100013
0.0100022
0.0100003
0.0100006
0.0100003
0.0100013
0.00999974
0.00999917
0.00999677
0.00999803
0.00999959
0.010001
0.0100023
0.0100009
0.010001
0.00999832
0.0100006
0.0100005
0.00999984
0.00999877
0.00999739
0.00999718
0.00999865
0.00999684
0.00999758
0.00999984
0.00999795
0.00999705
0.00999815
0.00999928
0.00999948
0.0100013
0.0100017
0.0100012
0.0100003
0.00999862
)
;

boundaryField
{
    inlet
    {
        type            fixedValue;
        value           uniform 0.2;
    }
    outlet
    {
        type            zeroGradient;
    }
    yzfaces
    {
        type            empty;
    }
}


// ************************************************************************* //
