/*--------------------------------*- C++ -*----------------------------------*\
| =========                 |                                                 |
| \\      /  F ield         | foam-extend: Open Source CFD                    |
|  \\    /   O peration     | Version:     5.0                                |
|   \\  /    A nd           | Web:         http://www.foam-extend.org         |
|    \\/     M anipulation  |                                                 |
\*---------------------------------------------------------------------------*/
FoamFile
{
    version     2.0;
    format      ascii;
    class       volScalarField;
    location    "2";
    object      Cl.water;
}
// * * * * * * * * * * * * * * * * * * * * * * * * * * * * * * * * * * * * * //

dimensions      [0 0 0 0 0 0 0];

internalField   nonuniform List<scalar> 
100
(
0.0133288
0.0169499
0.0190371
0.0206489
0.0219766
0.0229353
0.0239744
0.0244959
0.0252341
0.0257905
0.0264092
0.0269833
0.027377
0.0277381
0.028171
0.0286015
0.0290295
0.0293368
0.0296865
0.0299981
0.030308
0.0305855
0.0309184
0.0312149
0.0315043
0.0317443
0.0321113
0.032385
0.0326667
0.0339679
0.0344093
0.0347592
0.0351427
0.0355398
0.0359537
0.036389
0.0368847
0.0373492
0.0378584
0.0383571
0.0387904
0.0391585
0.0394429
0.0396626
0.0397905
0.0398685
0.0399426
0.0399413
0.0399604
0.0399675
0.0400282
0.0400329
0.0400153
0.0400358
0.0400058
0.0400492
0.0399948
0.0400061
0.040005
0.0399915
0.0400075
0.0400137
0.0400373
0.0400315
0.0400216
0.0400115
0.0400247
0.0400184
0.0400339
0.0399869
0.0399944
0.0400097
0.0400178
0.0400032
0.0400351
0.0400257
0.0400176
0.0400319
0.0399862
0.0399931
0.0399736
0.0399926
0.039977
0.0399685
0.0399764
0.0399793
0.0399706
0.0399852
0.0400016
0.0400102
0.0399992
0.0400107
0.0400312
0.0400472
0.0400251
0.0400286
0.0400027
0.0400418
0.0400031
0.040031
)
;

boundaryField
{
    inlet
    {
        type            fixedValue;
        value           uniform 0;
    }
    outlet
    {
        type            zeroGradient;
    }
    yzfaces
    {
        type            empty;
    }
}


// ************************************************************************* //
