/*--------------------------------*- C++ -*----------------------------------*\
| =========                 |                                                 |
| \\      /  F ield         | foam-extend: Open Source CFD                    |
|  \\    /   O peration     | Version:     5.0                                |
|   \\  /    A nd           | Web:         http://www.foam-extend.org         |
|    \\/     M anipulation  |                                                 |
\*---------------------------------------------------------------------------*/
FoamFile
{
    version     2.0;
    format      ascii;
    class       volScalarField;
    location    "2";
    object      H2O.gas;
}
// * * * * * * * * * * * * * * * * * * * * * * * * * * * * * * * * * * * * * //

dimensions      [0 0 0 0 0 0 0];

internalField   nonuniform List<scalar> 
100
(
0.00026124
0.000228366
0.000207383
0.000192209
0.000180124
0.000169733
0.000162626
0.000154469
0.000148423
0.000142419
0.000137474
0.000133047
0.000128537
0.000124486
0.000120444
0.000116985
0.000113737
0.000110449
0.000107118
0.000104126
0.000101161
9.81833e-05
9.53762e-05
9.24127e-05
8.95484e-05
8.65356e-05
8.36504e-05
8.06662e-05
7.75334e-05
0.00735375
0.0105055
0.0132369
0.0155372
0.0173395
0.0185797
0.0192384
0.0193279
0.018834
0.0178793
0.0165655
0.0150959
0.0136769
0.012471
0.0115693
0.010946
0.0105527
0.0103186
0.0101724
0.010095
0.0100522
0.0100374
0.0100201
0.0100071
0.0100052
0.00999874
0.0100065
0.00999716
0.0100017
0.0100026
0.0100024
0.0100034
0.0100055
0.0100107
0.0100103
0.0100087
0.0100056
0.010007
0.0100072
0.0100125
0.0100001
0.0100016
0.0100033
0.0100033
0.0099988
0.0100075
0.0100051
0.0100025
0.0100065
0.00999552
0.00999273
0.00999444
0.00999823
0.00999484
0.00999204
0.00999169
0.00999104
0.00999025
0.00999005
0.00999315
0.00999825
0.00999633
0.00999705
0.0100003
0.0100065
0.010003
0.0100049
0.0100009
0.0100105
0.0100013
0.0100034
)
;

boundaryField
{
    inlet
    {
        type            fixedValue;
        value           uniform 0;
    }
    outlet
    {
        type            zeroGradient;
    }
    yzfaces
    {
        type            empty;
    }
}


// ************************************************************************* //
