/*--------------------------------*- C++ -*----------------------------------*\
| =========                 |                                                 |
| \\      /  F ield         | foam-extend: Open Source CFD                    |
|  \\    /   O peration     | Version:     5.0                                |
|   \\  /    A nd           | Web:         http://www.foam-extend.org         |
|    \\/     M anipulation  |                                                 |
\*---------------------------------------------------------------------------*/
FoamFile
{
    version     2.0;
    format      ascii;
    class       volScalarField;
    location    "2";
    object      Na.water;
}
// * * * * * * * * * * * * * * * * * * * * * * * * * * * * * * * * * * * * * //

dimensions      [0 0 0 0 0 0 0];

internalField   nonuniform List<scalar> 
100
(
0.0133293
0.0169592
0.0190415
0.0206611
0.021983
0.0229269
0.0239623
0.0244918
0.0252376
0.0257911
0.0264114
0.0269756
0.027367
0.0277347
0.0281646
0.0285901
0.0290185
0.0293262
0.0296828
0.03
0.0303082
0.0305997
0.030916
0.0312058
0.0315198
0.0317513
0.0321073
0.0323729
0.0326526
0.0339594
0.0343966
0.03476
0.0351513
0.0355407
0.0359374
0.0363697
0.0368602
0.037324
0.0378452
0.0383433
0.0387916
0.0391683
0.039451
0.0396803
0.0398131
0.0398966
0.0399589
0.0399589
0.0399709
0.0399543
0.0400081
0.0400058
0.0399887
0.0400057
0.0399799
0.040023
0.0399797
0.039995
0.0400103
0.039993
0.0400099
0.0400173
0.0400347
0.0400369
0.0400391
0.040027
0.0400415
0.0400255
0.0400461
0.0399892
0.0400108
0.0400284
0.0400441
0.0400257
0.040054
0.0400319
0.0400081
0.0400361
0.0399978
0.0399921
0.0399909
0.0400076
0.0399983
0.0399804
0.039975
0.0399819
0.0399688
0.0399667
0.0399748
0.0399886
0.0399862
0.0399976
0.040007
0.0400276
0.0400211
0.0400258
0.0400235
0.0400638
0.0400315
0.0400269
)
;

boundaryField
{
    inlet
    {
        type            fixedValue;
        value           uniform 0;
    }
    outlet
    {
        type            zeroGradient;
    }
    yzfaces
    {
        type            empty;
    }
}


// ************************************************************************* //
