/*--------------------------------*- C++ -*----------------------------------*\
| =========                 |                                                 |
| \\      /  F ield         | foam-extend: Open Source CFD                    |
|  \\    /   O peration     | Version:     5.0                                |
|   \\  /    A nd           | Web:         http://www.foam-extend.org         |
|    \\/     M anipulation  |                                                 |
\*---------------------------------------------------------------------------*/
FoamFile
{
    version     2.0;
    format      ascii;
    class       surfaceScalarField;
    location    "2";
    object      phi;
}
// * * * * * * * * * * * * * * * * * * * * * * * * * * * * * * * * * * * * * //

dimensions      [0 3 -1 0 0 0 0];

internalField   nonuniform List<scalar> 
99
(
1.2291e-06
1.219e-06
1.21476e-06
1.20797e-06
1.21134e-06
1.21512e-06
1.20193e-06
1.20746e-06
1.20794e-06
1.20965e-06
1.21029e-06
1.2078e-06
1.21095e-06
1.20835e-06
1.21308e-06
1.21335e-06
1.20984e-06
1.20774e-06
1.21155e-06
1.20879e-06
1.20834e-06
1.2073e-06
1.20177e-06
1.20079e-06
1.19789e-06
1.20008e-06
1.19879e-06
1.1975e-06
1.19782e-06
1.19975e-06
1.20059e-06
1.20169e-06
1.20084e-06
1.19921e-06
1.19962e-06
1.20025e-06
1.20097e-06
1.20011e-06
1.2009e-06
1.20433e-06
1.20384e-06
1.2037e-06
1.20225e-06
1.20092e-06
1.20149e-06
1.20089e-06
1.19989e-06
1.20021e-06
1.20112e-06
1.20358e-06
1.20252e-06
1.20109e-06
1.20148e-06
1.20021e-06
1.20181e-06
1.20124e-06
1.20132e-06
1.2033e-06
1.20292e-06
1.20452e-06
1.2063e-06
1.20446e-06
1.20359e-06
1.20485e-06
1.2043e-06
1.20356e-06
1.20368e-06
1.20633e-06
1.20312e-06
1.20364e-06
1.20489e-06
1.20696e-06
1.20608e-06
1.20628e-06
1.20508e-06
1.20548e-06
1.20518e-06
1.20574e-06
1.20753e-06
1.20549e-06
1.2066e-06
1.20684e-06
1.20701e-06
1.20635e-06
1.20824e-06
1.20887e-06
1.21112e-06
1.21004e-06
1.21036e-06
1.209e-06
1.20976e-06
1.2108e-06
1.21176e-06
1.21144e-06
1.21159e-06
1.21234e-06
1.21194e-06
1.21152e-06
1.20963e-06
)
;

boundaryField
{
    inlet
    {
        type            calculated;
        value           uniform -1.225e-06;
    }
    outlet
    {
        type            calculated;
        value           uniform 1.20863e-06;
    }
    yzfaces
    {
        type            empty;
    }
}


// ************************************************************************* //
