/*--------------------------------*- C++ -*----------------------------------*\
| =========                 |                                                 |
| \\      /  F ield         | foam-extend: Open Source CFD                    |
|  \\    /   O peration     | Version:     5.0                                |
|   \\  /    A nd           | Web:         http://www.foam-extend.org         |
|    \\/     M anipulation  |                                                 |
\*---------------------------------------------------------------------------*/
FoamFile
{
    version     2.0;
    format      ascii;
    class       surfaceScalarField;
    location    "2";
    object      phi.water;
}
// * * * * * * * * * * * * * * * * * * * * * * * * * * * * * * * * * * * * * //

dimensions      [0 3 -1 0 0 0 0];

internalField   nonuniform List<scalar> 
99
(
2.23171e-07
3.79647e-07
5.22828e-07
6.53226e-07
7.83471e-07
9.19987e-07
1.00848e-06
1.15012e-06
1.2571e-06
1.37787e-06
1.48544e-06
1.58556e-06
1.70261e-06
1.80594e-06
1.92971e-06
2.02995e-06
2.12565e-06
2.231e-06
2.35281e-06
2.45312e-06
2.56295e-06
2.67533e-06
2.77542e-06
2.89768e-06
3.01338e-06
3.15156e-06
3.27693e-06
3.41578e-06
3.56967e-06
3.73216e-06
3.89386e-06
4.06698e-06
4.24168e-06
4.42424e-06
4.62641e-06
4.83532e-06
5.04741e-06
5.24983e-06
5.44351e-06
5.62811e-06
5.76313e-06
5.86546e-06
5.92753e-06
5.96428e-06
5.99453e-06
6.00604e-06
6.01099e-06
6.01925e-06
6.02608e-06
6.0366e-06
6.02931e-06
6.02534e-06
6.0286e-06
6.02352e-06
6.03068e-06
6.0284e-06
6.03048e-06
6.03825e-06
6.03672e-06
6.04415e-06
6.05131e-06
6.04027e-06
6.03511e-06
6.04194e-06
6.0405e-06
6.03695e-06
6.03668e-06
6.0483e-06
6.03454e-06
6.04013e-06
6.04485e-06
6.05382e-06
6.05062e-06
6.05112e-06
6.04415e-06
6.04841e-06
6.04635e-06
6.05085e-06
6.06325e-06
6.05338e-06
6.05785e-06
6.0587e-06
6.06096e-06
6.05781e-06
6.06718e-06
6.0712e-06
6.08262e-06
6.07613e-06
6.0762e-06
6.06834e-06
6.07169e-06
6.07586e-06
6.07839e-06
6.0764e-06
6.07828e-06
6.08326e-06
6.07952e-06
6.07675e-06
6.06862e-06
)
;

boundaryField
{
    inlet
    {
        type            fixedValue;
        value           uniform 0;
    }
    outlet
    {
        type            calculated;
        value           uniform 6.0625e-06;
    }
    yzfaces
    {
        type            empty;
    }
}


// ************************************************************************* //
