/*--------------------------------*- C++ -*----------------------------------*\
| =========                 |                                                 |
| \\      /  F ield         | foam-extend: Open Source CFD                    |
|  \\    /   O peration     | Version:     5.0                                |
|   \\  /    A nd           | Web:         http://www.foam-extend.org         |
|    \\/     M anipulation  |                                                 |
\*---------------------------------------------------------------------------*/
FoamFile
{
    version     2.0;
    format      ascii;
    class       volVectorField;
    location    "2";
    object      U.gas;
}
// * * * * * * * * * * * * * * * * * * * * * * * * * * * * * * * * * * * * * //

dimensions      [0 1 -1 0 0 0 0];

internalField   nonuniform List<vector> 
100
(
(0.00741672 0 0)
(0.00834691 0 0)
(0.00900459 0 0)
(0.00952623 0 0)
(0.00999471 0 0)
(0.0104651 0 0)
(0.0107134 0 0)
(0.0110604 0 0)
(0.0113403 0 0)
(0.011629 0 0)
(0.0118497 0 0)
(0.0120299 0 0)
(0.0122349 0 0)
(0.0124006 0 0)
(0.0125781 0 0)
(0.0127232 0 0)
(0.0128202 0 0)
(0.012905 0 0)
(0.0130225 0 0)
(0.013099 0 0)
(0.0131543 0 0)
(0.0132098 0 0)
(0.0132097 0 0)
(0.0132172 0 0)
(0.0132073 0 0)
(0.0132163 0 0)
(0.0131967 0 0)
(0.0131527 0 0)
(0.0130958 0 0)
(0.0130194 0 0)
(0.0129092 0 0)
(0.012762 0 0)
(0.012562 0 0)
(0.0122955 0 0)
(0.0119714 0 0)
(0.0115699 0 0)
(0.0110713 0 0)
(0.0104571 0 0)
(0.00972781 0 0)
(0.0089168 0 0)
(0.00804263 0 0)
(0.00717134 0 0)
(0.00639057 0 0)
(0.00575865 0 0)
(0.00530295 0 0)
(0.00500093 0 0)
(0.00481244 0 0)
(0.00469967 0 0)
(0.00463789 0 0)
(0.00460796 0 0)
(0.00459132 0 0)
(0.00457483 0 0)
(0.00456557 0 0)
(0.00456048 0 0)
(0.00455784 0 0)
(0.00456035 0 0)
(0.00455919 0 0)
(0.00456375 0 0)
(0.00456612 0 0)
(0.00456876 0 0)
(0.00457701 0 0)
(0.004575 0 0)
(0.00456997 0 0)
(0.0045711 0 0)
(0.0045725 0 0)
(0.00456929 0 0)
(0.00456808 0 0)
(0.00457219 0 0)
(0.00457158 0 0)
(0.00456741 0 0)
(0.00457177 0 0)
(0.00457709 0 0)
(0.00457849 0 0)
(0.00457611 0 0)
(0.00457438 0 0)
(0.00457264 0 0)
(0.00457356 0 0)
(0.00457574 0 0)
(0.00458006 0 0)
(0.00457907 0 0)
(0.00457592 0 0)
(0.00457961 0 0)
(0.00458013 0 0)
(0.004579 0 0)
(0.00458107 0 0)
(0.00458525 0 0)
(0.00459051 0 0)
(0.00459285 0 0)
(0.00458996 0 0)
(0.00458846 0 0)
(0.00458925 0 0)
(0.00459186 0 0)
(0.00459541 0 0)
(0.00459687 0 0)
(0.00459633 0 0)
(0.00459861 0 0)
(0.00460037 0 0)
(0.00459961 0 0)
(0.00459555 0 0)
(0.0045899 0 0)
)
;

boundaryField
{
    inlet
    {
        type            fixedValue;
        value           uniform (0.005 0 0);
    }
    outlet
    {
        type            zeroGradient;
    }
    yzfaces
    {
        type            empty;
    }
}


// ************************************************************************* //
