/*--------------------------------*- C++ -*----------------------------------*\
| =========                 |                                                 |
| \\      /  F ield         | foam-extend: Open Source CFD                    |
|  \\    /   O peration     | Version:     5.0                                |
|   \\  /    A nd           | Web:         http://www.foam-extend.org         |
|    \\/     M anipulation  |                                                 |
\*---------------------------------------------------------------------------*/
FoamFile
{
    version     2.0;
    format      ascii;
    class       volVectorField;
    location    "2";
    object      U.water;
}
// * * * * * * * * * * * * * * * * * * * * * * * * * * * * * * * * * * * * * //

dimensions      [0 1 -1 0 0 0 0];

internalField   nonuniform List<vector> 
100
(
(0.000102089 0 0)
(0.000248281 0 0)
(0.00037182 0 0)
(0.000484567 0 0)
(0.000590748 0 0)
(0.00068622 0 0)
(0.000785221 0 0)
(0.000886161 0 0)
(0.000982951 0 0)
(0.00107945 0 0)
(0.00116716 0 0)
(0.00125039 0 0)
(0.00133926 0 0)
(0.00142833 0 0)
(0.00151938 0 0)
(0.00160199 0 0)
(0.00168584 0 0)
(0.00177746 0 0)
(0.0018672 0 0)
(0.00195356 0 0)
(0.00204564 0 0)
(0.00214004 0 0)
(0.00223292 0 0)
(0.00232532 0 0)
(0.0024236 0 0)
(0.00252762 0 0)
(0.00263447 0 0)
(0.00274417 0 0)
(0.00285889 0 0)
(0.00298122 0 0)
(0.00310639 0 0)
(0.00324095 0 0)
(0.00338307 0 0)
(0.00353168 0 0)
(0.00368766 0 0)
(0.00385526 0 0)
(0.00402622 0 0)
(0.00419159 0 0)
(0.00435855 0 0)
(0.00451304 0 0)
(0.0046314 0 0)
(0.00472229 0 0)
(0.00479161 0 0)
(0.0048368 0 0)
(0.00486612 0 0)
(0.00488492 0 0)
(0.00489925 0 0)
(0.00490787 0 0)
(0.00491274 0 0)
(0.00491501 0 0)
(0.00491703 0 0)
(0.00491536 0 0)
(0.00491016 0 0)
(0.00491078 0 0)
(0.0049135 0 0)
(0.00491735 0 0)
(0.00492205 0 0)
(0.00492605 0 0)
(0.00493022 0 0)
(0.00493332 0 0)
(0.00493633 0 0)
(0.00493314 0 0)
(0.00493074 0 0)
(0.00493584 0 0)
(0.00493875 0 0)
(0.00494102 0 0)
(0.00494452 0 0)
(0.0049436 0 0)
(0.00494105 0 0)
(0.00493871 0 0)
(0.00494263 0 0)
(0.00494422 0 0)
(0.00493936 0 0)
(0.00493976 0 0)
(0.0049427 0 0)
(0.00494184 0 0)
(0.00494307 0 0)
(0.00494326 0 0)
(0.00494042 0 0)
(0.00493959 0 0)
(0.00494082 0 0)
(0.00494597 0 0)
(0.00494936 0 0)
(0.00494908 0 0)
(0.00494801 0 0)
(0.00494986 0 0)
(0.00495243 0 0)
(0.00494727 0 0)
(0.00493699 0 0)
(0.00492893 0 0)
(0.00492603 0 0)
(0.00492448 0 0)
(0.00492073 0 0)
(0.00491895 0 0)
(0.00491766 0 0)
(0.00491772 0 0)
(0.00492253 0 0)
(0.00492206 0 0)
(0.00492049 0 0)
(0.00491832 0 0)
)
;

boundaryField
{
    inlet
    {
        type            fixedValue;
        value           uniform (0 0 0);
    }
    outlet
    {
        type            zeroGradient;
    }
    yzfaces
    {
        type            empty;
    }
}


// ************************************************************************* //
