/*--------------------------------*- C++ -*----------------------------------*\
| =========                 |                                                 |
| \\      /  F ield         | foam-extend: Open Source CFD                    |
|  \\    /   O peration     | Version:     5.0                                |
|   \\  /    A nd           | Web:         http://www.foam-extend.org         |
|    \\/     M anipulation  |                                                 |
\*---------------------------------------------------------------------------*/
FoamFile
{
    version     2.0;
    format      ascii;
    class       volVectorField;
    location    "2";
    object      U.water;
}
// * * * * * * * * * * * * * * * * * * * * * * * * * * * * * * * * * * * * * //

dimensions      [0 1 -1 0 0 0 0];

internalField   nonuniform List<vector> 
100
(
(0.000102797 0 0)
(0.000247051 0 0)
(0.000368776 0 0)
(0.000480365 0 0)
(0.000586509 0 0)
(0.000693873 0 0)
(0.000789016 0 0)
(0.00087947 0 0)
(0.000982324 0 0)
(0.00107462 0 0)
(0.00116873 0 0)
(0.00125391 0 0)
(0.00134118 0 0)
(0.00143151 0 0)
(0.00152315 0 0)
(0.00161578 0 0)
(0.00169726 0 0)
(0.00177876 0 0)
(0.00187027 0 0)
(0.00196221 0 0)
(0.00204852 0 0)
(0.00213921 0 0)
(0.00222712 0 0)
(0.00231694 0 0)
(0.00241369 0 0)
(0.0025166 0 0)
(0.00262527 0 0)
(0.00273229 0 0)
(0.00284861 0 0)
(0.00297701 0 0)
(0.00311132 0 0)
(0.00324905 0 0)
(0.00339106 0 0)
(0.00353622 0 0)
(0.00369142 0 0)
(0.00385833 0 0)
(0.00403019 0 0)
(0.004199 0 0)
(0.00436145 0 0)
(0.0045171 0 0)
(0.00464766 0 0)
(0.00474379 0 0)
(0.00481058 0 0)
(0.00485176 0 0)
(0.00487969 0 0)
(0.00489736 0 0)
(0.0049043 0 0)
(0.0049088 0 0)
(0.00491464 0 0)
(0.00492341 0 0)
(0.00492726 0 0)
(0.00492275 0 0)
(0.004921 0 0)
(0.00491937 0 0)
(0.0049202 0 0)
(0.00492229 0 0)
(0.0049213 0 0)
(0.00492547 0 0)
(0.00492878 0 0)
(0.00493128 0 0)
(0.00493809 0 0)
(0.00493806 0 0)
(0.00493252 0 0)
(0.00493331 0 0)
(0.00493475 0 0)
(0.00493215 0 0)
(0.00493087 0 0)
(0.0049366 0 0)
(0.00493544 0 0)
(0.0049299 0 0)
(0.00493346 0 0)
(0.0049403 0 0)
(0.00494279 0 0)
(0.00494145 0 0)
(0.0049394 0 0)
(0.00493776 0 0)
(0.00493792 0 0)
(0.00493837 0 0)
(0.0049432 0 0)
(0.0049427 0 0)
(0.00494087 0 0)
(0.00494359 0 0)
(0.00494445 0 0)
(0.00494345 0 0)
(0.00494597 0 0)
(0.00495116 0 0)
(0.00495707 0 0)
(0.00495946 0 0)
(0.00495799 0 0)
(0.00495584 0 0)
(0.00495451 0 0)
(0.00495824 0 0)
(0.00496235 0 0)
(0.00496364 0 0)
(0.00496329 0 0)
(0.00496512 0 0)
(0.00496579 0 0)
(0.00496407 0 0)
(0.00495931 0 0)
(0.00495339 0 0)
)
;

boundaryField
{
    inlet
    {
        type            fixedValue;
        value           uniform (0 0 0);
    }
    outlet
    {
        type            zeroGradient;
    }
    yzfaces
    {
        type            empty;
    }
}


// ************************************************************************* //
