/*--------------------------------*- C++ -*----------------------------------*\
| =========                 |                                                 |
| \\      /  F ield         | foam-extend: Open Source CFD                    |
|  \\    /   O peration     | Version:     5.0                                |
|   \\  /    A nd           | Web:         http://www.foam-extend.org         |
|    \\/     M anipulation  |                                                 |
\*---------------------------------------------------------------------------*/
FoamFile
{
    version     2.0;
    format      ascii;
    class       volScalarField;
    location    "2";
    object      alpha.gas;
}
// * * * * * * * * * * * * * * * * * * * * * * * * * * * * * * * * * * * * * //

dimensions      [0 0 0 0 0 0 0];

internalField   nonuniform List<scalar> 
100
(
0.134138
0.117595
0.106474
0.0985618
0.0923775
0.0875481
0.0834443
0.0796912
0.0762975
0.0733582
0.070796
0.0683075
0.0661091
0.0639521
0.0620548
0.0601522
0.0583712
0.0566736
0.0550744
0.0534453
0.0518849
0.0504539
0.0489537
0.047427
0.0458798
0.044335
0.0428169
0.0412781
0.0397558
0.0381505
0.0364843
0.0347632
0.0329498
0.0310422
0.0290393
0.0269084
0.0246765
0.0223709
0.0200308
0.0177713
0.0157017
0.0139483
0.0125857
0.0116077
0.0109598
0.010557
0.0103186
0.0101776
0.0100977
0.0100496
0.010027
0.0100123
0.0100073
0.0100027
0.0100023
0.00999934
0.00999612
0.00999676
0.00999766
0.00999884
0.00999948
0.00999874
0.00999723
0.00999699
0.00999605
0.00999657
0.00999459
0.009998
0.0099983
0.00999713
0.00999641
0.0100009
0.00999904
0.00999949
0.01
0.0099992
0.010003
0.010003
0.0100035
0.0100012
0.0100027
0.0100037
0.010002
0.0100014
0.00999965
0.0100004
0.0100006
0.0100023
0.0100007
0.00999748
0.00999572
0.00999535
0.0099966
0.00999915
0.00999826
0.00999954
0.0100015
0.0100021
0.0100019
0.0100053
)
;

boundaryField
{
    inlet
    {
        type            fixedValue;
        value           uniform 0.2;
    }
    outlet
    {
        type            zeroGradient;
    }
    yzfaces
    {
        type            empty;
    }
}


// ************************************************************************* //
