/*--------------------------------*- C++ -*----------------------------------*\
| =========                 |                                                 |
| \\      /  F ield         | foam-extend: Open Source CFD                    |
|  \\    /   O peration     | Version:     5.0                                |
|   \\  /    A nd           | Web:         http://www.foam-extend.org         |
|    \\/     M anipulation  |                                                 |
\*---------------------------------------------------------------------------*/
FoamFile
{
    version     2.0;
    format      ascii;
    class       volScalarField;
    location    "2";
    object      H2O.gas;
}
// * * * * * * * * * * * * * * * * * * * * * * * * * * * * * * * * * * * * * //

dimensions      [0 0 0 0 0 0 0];

internalField   nonuniform List<scalar> 
100
(
0.000261231
0.000229013
0.000207354
0.000191946
0.000179903
0.000170497
0.000162505
0.000155196
0.000148587
0.000142863
0.000137873
0.000133027
0.000128746
0.000124545
0.00012085
0.000117145
0.000113676
0.00011037
0.000107256
0.000104083
0.000101044
9.82574e-05
9.53359e-05
9.23628e-05
8.93496e-05
8.63412e-05
8.33848e-05
8.03879e-05
7.74233e-05
0.00731518
0.0104493
0.0132026
0.0155166
0.0173219
0.0185656
0.0192435
0.0193346
0.0188421
0.0178642
0.0165626
0.0150901
0.0136641
0.0124703
0.0115598
0.0109387
0.0105528
0.0103121
0.010176
0.0100966
0.0100488
0.0100275
0.0100086
0.0100068
0.00999551
0.00999585
0.00999212
0.00998578
0.00999104
0.00999172
0.00998992
0.0100092
0.010009
0.0100045
0.0100038
0.0100183
0.0100055
0.0100091
0.0100016
0.00999644
0.00999995
0.00999152
0.00999261
0.00999143
0.00999863
0.00998891
0.00999499
0.0100042
0.0100008
0.0100021
0.010002
0.00999832
0.0100013
0.0100036
0.0100023
0.0100094
0.010002
0.0100012
0.0099967
0.01001
0.0100019
0.0100043
0.0100018
0.00999374
0.00999253
0.00999196
0.0099965
0.00999159
0.00999069
0.0100031
0.00999783
)
;

boundaryField
{
    inlet
    {
        type            fixedValue;
        value           uniform 0;
    }
    outlet
    {
        type            zeroGradient;
    }
    yzfaces
    {
        type            empty;
    }
}


// ************************************************************************* //
