/*--------------------------------*- C++ -*----------------------------------*\
| =========                 |                                                 |
| \\      /  F ield         | foam-extend: Open Source CFD                    |
|  \\    /   O peration     | Version:     5.0                                |
|   \\  /    A nd           | Web:         http://www.foam-extend.org         |
|    \\/     M anipulation  |                                                 |
\*---------------------------------------------------------------------------*/
FoamFile
{
    version     2.0;
    format      ascii;
    class       surfaceScalarField;
    location    "2";
    object      phi;
}
// * * * * * * * * * * * * * * * * * * * * * * * * * * * * * * * * * * * * * //

dimensions      [0 3 -1 0 0 0 0];

internalField   nonuniform List<scalar> 
99
(
1.22706e-06
1.22084e-06
1.21901e-06
1.21699e-06
1.2193e-06
1.22006e-06
1.22224e-06
1.22212e-06
1.22887e-06
1.22995e-06
1.23066e-06
1.23e-06
1.229e-06
1.23045e-06
1.22615e-06
1.22631e-06
1.22556e-06
1.22421e-06
1.22398e-06
1.2246e-06
1.22657e-06
1.22169e-06
1.22091e-06
1.22055e-06
1.22064e-06
1.22117e-06
1.22266e-06
1.22306e-06
1.2224e-06
1.22305e-06
1.22455e-06
1.22549e-06
1.22515e-06
1.22554e-06
1.22539e-06
1.22617e-06
1.22603e-06
1.22582e-06
1.2263e-06
1.22629e-06
1.22689e-06
1.22685e-06
1.22495e-06
1.22421e-06
1.2252e-06
1.22483e-06
1.22591e-06
1.22661e-06
1.22781e-06
1.22792e-06
1.22676e-06
1.22812e-06
1.22763e-06
1.22671e-06
1.22943e-06
1.22753e-06
1.22833e-06
1.22909e-06
1.22667e-06
1.22824e-06
1.22766e-06
1.22695e-06
1.2272e-06
1.22692e-06
1.22725e-06
1.22666e-06
1.22498e-06
1.22549e-06
1.22666e-06
1.22635e-06
1.22563e-06
1.22466e-06
1.22387e-06
1.22545e-06
1.22494e-06
1.22442e-06
1.22323e-06
1.2244e-06
1.22337e-06
1.22264e-06
1.22273e-06
1.22273e-06
1.22274e-06
1.22286e-06
1.22188e-06
1.22225e-06
1.22091e-06
1.22154e-06
1.22279e-06
1.22282e-06
1.22192e-06
1.21959e-06
1.22105e-06
1.22156e-06
1.22142e-06
1.21989e-06
1.22066e-06
1.22048e-06
1.21985e-06
)
;

boundaryField
{
    inlet
    {
        type            calculated;
        value           uniform -1.225e-06;
    }
    outlet
    {
        type            calculated;
        value           uniform 1.21836e-06;
    }
    yzfaces
    {
        type            empty;
    }
}


// ************************************************************************* //
