/*--------------------------------*- C++ -*----------------------------------*\
| =========                 |                                                 |
| \\      /  F ield         | foam-extend: Open Source CFD                    |
|  \\    /   O peration     | Version:     5.0                                |
|   \\  /    A nd           | Web:         http://www.foam-extend.org         |
|    \\/     M anipulation  |                                                 |
\*---------------------------------------------------------------------------*/
FoamFile
{
    version     2.0;
    format      ascii;
    class       volVectorField;
    location    "2";
    object      U.gas;
}
// * * * * * * * * * * * * * * * * * * * * * * * * * * * * * * * * * * * * * //

dimensions      [0 1 -1 0 0 0 0];

internalField   nonuniform List<vector> 
100
(
(0.00741089 0 0)
(0.00832399 0 0)
(0.00902949 0 0)
(0.0095896 0 0)
(0.0100736 0 0)
(0.0104783 0 0)
(0.0108385 0 0)
(0.0111773 0 0)
(0.0115081 0 0)
(0.0118015 0 0)
(0.0120301 0 0)
(0.0122505 0 0)
(0.0124225 0 0)
(0.0126093 0 0)
(0.0127375 0 0)
(0.0128637 0 0)
(0.0129834 0 0)
(0.013081 0 0)
(0.0131635 0 0)
(0.0132606 0 0)
(0.0133448 0 0)
(0.0133758 0 0)
(0.013401 0 0)
(0.0134321 0 0)
(0.0134534 0 0)
(0.0134586 0 0)
(0.013449 0 0)
(0.0134211 0 0)
(0.0133506 0 0)
(0.0132709 0 0)
(0.0131629 0 0)
(0.0130159 0 0)
(0.0128179 0 0)
(0.012555 0 0)
(0.0122203 0 0)
(0.0118095 0 0)
(0.0112951 0 0)
(0.010663 0 0)
(0.00992313 0 0)
(0.00908243 0 0)
(0.00818519 0 0)
(0.00729801 0 0)
(0.0065016 0 0)
(0.00586329 0 0)
(0.00540346 0 0)
(0.00509868 0 0)
(0.00491139 0 0)
(0.00480234 0 0)
(0.00474012 0 0)
(0.00470505 0 0)
(0.0046798 0 0)
(0.00467019 0 0)
(0.00466566 0 0)
(0.00466081 0 0)
(0.00466203 0 0)
(0.00466339 0 0)
(0.00465978 0 0)
(0.00466004 0 0)
(0.00465762 0 0)
(0.00465702 0 0)
(0.00465889 0 0)
(0.00465724 0 0)
(0.0046565 0 0)
(0.00465499 0 0)
(0.00465424 0 0)
(0.00465447 0 0)
(0.00465075 0 0)
(0.0046472 0 0)
(0.00465244 0 0)
(0.00465422 0 0)
(0.00465172 0 0)
(0.00464772 0 0)
(0.0046466 0 0)
(0.00464798 0 0)
(0.00464952 0 0)
(0.00464725 0 0)
(0.00464383 0 0)
(0.00464547 0 0)
(0.0046459 0 0)
(0.00464319 0 0)
(0.00464108 0 0)
(0.00464193 0 0)
(0.00464289 0 0)
(0.00464199 0 0)
(0.00463899 0 0)
(0.00463745 0 0)
(0.00463569 0 0)
(0.00463433 0 0)
(0.00463835 0 0)
(0.00463969 0 0)
(0.00463681 0 0)
(0.00462983 0 0)
(0.00462753 0 0)
(0.00463241 0 0)
(0.00463446 0 0)
(0.00463018 0 0)
(0.00462953 0 0)
(0.00463201 0 0)
(0.00463092 0 0)
(0.00462539 0 0)
)
;

boundaryField
{
    inlet
    {
        type            fixedValue;
        value           uniform (0.005 0 0);
    }
    outlet
    {
        type            zeroGradient;
    }
    yzfaces
    {
        type            empty;
    }
}


// ************************************************************************* //
