/*--------------------------------*- C++ -*----------------------------------*\
| =========                 |                                                 |
| \\      /  F ield         | foam-extend: Open Source CFD                    |
|  \\    /   O peration     | Version:     5.0                                |
|   \\  /    A nd           | Web:         http://www.foam-extend.org         |
|    \\/     M anipulation  |                                                 |
\*---------------------------------------------------------------------------*/
FoamFile
{
    version     2.0;
    format      ascii;
    class       volVectorField;
    location    "2";
    object      U.water;
}
// * * * * * * * * * * * * * * * * * * * * * * * * * * * * * * * * * * * * * //

dimensions      [0 1 -1 0 0 0 0];

internalField   nonuniform List<vector> 
100
(
(0.000102593 0 0)
(0.000246137 0 0)
(0.000368399 0 0)
(0.000484228 0 0)
(0.000593095 0 0)
(0.000696287 0 0)
(0.000793149 0 0)
(0.000889136 0 0)
(0.000989178 0 0)
(0.00108862 0 0)
(0.00118143 0 0)
(0.00127226 0 0)
(0.00136254 0 0)
(0.00145145 0 0)
(0.00153884 0 0)
(0.00162478 0 0)
(0.00171508 0 0)
(0.00180397 0 0)
(0.00189264 0 0)
(0.00198359 0 0)
(0.00208003 0 0)
(0.00216943 0 0)
(0.00225724 0 0)
(0.00235606 0 0)
(0.00246019 0 0)
(0.00256942 0 0)
(0.00268245 0 0)
(0.00279895 0 0)
(0.00291669 0 0)
(0.00303896 0 0)
(0.00317268 0 0)
(0.00331367 0 0)
(0.00345951 0 0)
(0.0036136 0 0)
(0.00377578 0 0)
(0.00394507 0 0)
(0.00411909 0 0)
(0.00429104 0 0)
(0.00445685 0 0)
(0.00460768 0 0)
(0.00473568 0 0)
(0.00483593 0 0)
(0.00490307 0 0)
(0.00494498 0 0)
(0.00497533 0 0)
(0.00499457 0 0)
(0.00500641 0 0)
(0.00501601 0 0)
(0.00502333 0 0)
(0.00502793 0 0)
(0.00502697 0 0)
(0.00502788 0 0)
(0.00502996 0 0)
(0.00502717 0 0)
(0.00503098 0 0)
(0.00503267 0 0)
(0.0050305 0 0)
(0.00503384 0 0)
(0.0050304 0 0)
(0.0050286 0 0)
(0.00503062 0 0)
(0.00502793 0 0)
(0.00502699 0 0)
(0.005027 0 0)
(0.00502715 0 0)
(0.0050266 0 0)
(0.00502191 0 0)
(0.00501958 0 0)
(0.0050229 0 0)
(0.00502464 0 0)
(0.00502257 0 0)
(0.00501917 0 0)
(0.00501545 0 0)
(0.00501706 0 0)
(0.00501928 0 0)
(0.0050172 0 0)
(0.00501369 0 0)
(0.00501356 0 0)
(0.00501386 0 0)
(0.00501022 0 0)
(0.00500896 0 0)
(0.0050091 0 0)
(0.00500907 0 0)
(0.0050094 0 0)
(0.0050077 0 0)
(0.00500647 0 0)
(0.00500449 0 0)
(0.00500305 0 0)
(0.00500687 0 0)
(0.00500955 0 0)
(0.00500781 0 0)
(0.00500122 0 0)
(0.00499949 0 0)
(0.00500346 0 0)
(0.00500414 0 0)
(0.0050008 0 0)
(0.0049992 0 0)
(0.00500033 0 0)
(0.00499866 0 0)
(0.00499439 0 0)
)
;

boundaryField
{
    inlet
    {
        type            fixedValue;
        value           uniform (0 0 0);
    }
    outlet
    {
        type            zeroGradient;
    }
    yzfaces
    {
        type            empty;
    }
}


// ************************************************************************* //
