/*--------------------------------*- C++ -*----------------------------------*\
| =========                 |                                                 |
| \\      /  F ield         | foam-extend: Open Source CFD                    |
|  \\    /   O peration     | Version:     5.0                                |
|   \\  /    A nd           | Web:         http://www.foam-extend.org         |
|    \\/     M anipulation  |                                                 |
\*---------------------------------------------------------------------------*/
FoamFile
{
    version     2.0;
    format      ascii;
    class       volScalarField;
    location    "9";
    object      Cl.water;
}
// * * * * * * * * * * * * * * * * * * * * * * * * * * * * * * * * * * * * * //

dimensions      [0 0 0 0 0 0 0];

internalField   nonuniform List<scalar> 
100
(
0.00345542
0.00486452
0.00588311
0.0065742
0.00717427
0.00773143
0.00816512
0.00852699
0.008965
0.00934959
0.00978142
0.0101174
0.0104088
0.010663
0.0109111
0.0111047
0.011248
0.0114271
0.0116377
0.0118681
0.011967
0.0121018
0.0122476
0.0123706
0.0124865
0.0126562
0.0128612
0.0130167
0.0131187
0.0132742
0.0133615
0.0133371
0.0133789
0.0135211
0.0136134
0.0137408
0.0138162
0.013911
0.0140029
0.0141127
0.0141967
0.0142775
0.0143427
0.0143991
0.0144437
0.0145468
0.0146119
0.0146963
0.0148099
0.0149027
0.0149522
0.015002
0.015062
0.0151052
0.0151431
0.0151971
0.0152866
0.0153885
0.0154438
0.015522
0.0156019
0.0156623
0.0157471
0.015831
0.0158963
0.0159612
0.0160179
0.0161
0.0161756
0.0162312
0.0163213
0.0164075
0.0165302
0.016606
0.01672
0.016835
0.0169911
0.0172281
0.0175011
0.0178863
0.0185624
0.0199164
0.020829
0.0211955
0.0213064
0.0213384
0.0213294
0.0213309
0.0213241
0.0213099
0.0213137
0.0213182
0.0213271
0.0213172
0.0213216
0.0213154
0.021305
0.0213078
0.0213069
0.0213001
)
;

boundaryField
{
    inlet
    {
        type            fixedValue;
        value           uniform 0;
    }
    outlet
    {
        type            zeroGradient;
    }
    yzfaces
    {
        type            empty;
    }
}


// ************************************************************************* //
