/*--------------------------------*- C++ -*----------------------------------*\
| =========                 |                                                 |
| \\      /  F ield         | foam-extend: Open Source CFD                    |
|  \\    /   O peration     | Version:     5.0                                |
|   \\  /    A nd           | Web:         http://www.foam-extend.org         |
|    \\/     M anipulation  |                                                 |
\*---------------------------------------------------------------------------*/
FoamFile
{
    version     2.0;
    format      ascii;
    class       volScalarField;
    location    "9";
    object      H2O.water;
}
// * * * * * * * * * * * * * * * * * * * * * * * * * * * * * * * * * * * * * //

dimensions      [0 0 0 0 0 0 0];

internalField   nonuniform List<scalar> 
100
(
0.0223878
0.0315117
0.0381006
0.0425953
0.0464838
0.0500976
0.0529019
0.0552539
0.0580739
0.0605681
0.0633608
0.065556
0.0674302
0.0690584
0.0706836
0.0719357
0.0728751
0.0740262
0.075403
0.0768803
0.0775265
0.0784056
0.0793684
0.0801706
0.0808705
0.081982
0.0833407
0.0843525
0.0850425
0.0860035
0.0865579
0.0864313
0.0867036
0.0876218
0.0882538
0.0890543
0.0895565
0.0901972
0.0907829
0.0915007
0.0920557
0.0925434
0.0929784
0.0933098
0.0936341
0.094281
0.0947074
0.0952807
0.0959869
0.0966218
0.0969262
0.0972705
0.0976276
0.0978677
0.0981179
0.0985159
0.099092
0.0996955
0.10005
0.100532
0.101033
0.101416
0.102002
0.102558
0.103028
0.103399
0.103721
0.104219
0.104712
0.105085
0.105679
0.106293
0.107119
0.107608
0.108352
0.109117
0.110074
0.111616
0.11338
0.115906
0.120297
0.129077
0.132331
0.133496
0.133734
0.133787
0.133668
0.133636
0.133559
0.133466
0.133479
0.133504
0.133557
0.133519
0.133525
0.133496
0.133434
0.133434
0.133424
0.133326
)
;

boundaryField
{
    inlet
    {
        type            fixedValue;
        value           uniform 0;
    }
    outlet
    {
        type            zeroGradient;
    }
    yzfaces
    {
        type            empty;
    }
}


// ************************************************************************* //
