/*--------------------------------*- C++ -*----------------------------------*\
| =========                 |                                                 |
| \\      /  F ield         | foam-extend: Open Source CFD                    |
|  \\    /   O peration     | Version:     5.0                                |
|   \\  /    A nd           | Web:         http://www.foam-extend.org         |
|    \\/     M anipulation  |                                                 |
\*---------------------------------------------------------------------------*/
FoamFile
{
    version     2.0;
    format      ascii;
    class       volScalarField;
    location    "9";
    object      Na.water;
}
// * * * * * * * * * * * * * * * * * * * * * * * * * * * * * * * * * * * * * //

dimensions      [0 0 0 0 0 0 0];

internalField   nonuniform List<scalar> 
100
(
0.0034549
0.00486202
0.0058804
0.00657314
0.0071781
0.00773034
0.00815969
0.00852461
0.00896033
0.00934577
0.00977584
0.0101149
0.0104045
0.0106556
0.0109064
0.0110994
0.0112459
0.0114275
0.0116356
0.0118618
0.0119627
0.012098
0.0122486
0.0123772
0.0124918
0.0126663
0.0128714
0.0130244
0.0131299
0.0132746
0.0133559
0.0133399
0.0133835
0.0135247
0.0136202
0.0137463
0.0138205
0.0139235
0.0140112
0.0141227
0.0142053
0.0142855
0.0143478
0.0143976
0.0144445
0.0145455
0.0146116
0.0147038
0.0148242
0.0149211
0.0149655
0.0150096
0.0150691
0.0151115
0.0151609
0.0152141
0.0152959
0.0153812
0.0154266
0.0155067
0.0155924
0.0156522
0.0157452
0.0158225
0.0158952
0.0159525
0.0160032
0.0160797
0.0161538
0.0162117
0.0163084
0.016406
0.0165336
0.0166073
0.0167239
0.0168389
0.0169898
0.0172237
0.0174953
0.0178897
0.018569
0.0199253
0.0208378
0.0212101
0.0213232
0.0213556
0.0213497
0.0213409
0.0213249
0.0213095
0.0213131
0.0213181
0.021329
0.0213219
0.0213199
0.0213155
0.0213016
0.0212986
0.0213007
0.0213009
)
;

boundaryField
{
    inlet
    {
        type            fixedValue;
        value           uniform 0;
    }
    outlet
    {
        type            zeroGradient;
    }
    yzfaces
    {
        type            empty;
    }
}


// ************************************************************************* //
