/*--------------------------------*- C++ -*----------------------------------*\
| =========                 |                                                 |
| \\      /  F ield         | foam-extend: Open Source CFD                    |
|  \\    /   O peration     | Version:     5.0                                |
|   \\  /    A nd           | Web:         http://www.foam-extend.org         |
|    \\/     M anipulation  |                                                 |
\*---------------------------------------------------------------------------*/
FoamFile
{
    version     2.0;
    format      ascii;
    class       surfaceScalarField;
    location    "9";
    object      phi;
}
// * * * * * * * * * * * * * * * * * * * * * * * * * * * * * * * * * * * * * //

dimensions      [0 3 -1 0 0 0 0];

internalField   nonuniform List<scalar> 
99
(
1.23689e-06
1.20662e-06
1.20217e-06
1.20647e-06
1.22154e-06
1.22282e-06
1.2255e-06
1.23185e-06
1.23973e-06
1.26793e-06
1.26849e-06
1.2761e-06
1.26951e-06
1.2703e-06
1.27181e-06
1.27704e-06
1.27801e-06
1.27067e-06
1.27385e-06
1.27149e-06
1.26528e-06
1.26579e-06
1.26186e-06
1.26173e-06
1.25883e-06
1.26184e-06
1.26056e-06
1.25783e-06
1.25296e-06
1.25735e-06
1.26169e-06
1.26727e-06
1.25803e-06
1.25299e-06
1.25476e-06
1.2542e-06
1.24786e-06
1.24596e-06
1.25048e-06
1.24648e-06
1.24649e-06
1.24606e-06
1.2496e-06
1.2448e-06
1.24809e-06
1.24817e-06
1.25074e-06
1.2548e-06
1.25932e-06
1.26188e-06
1.25827e-06
1.26199e-06
1.26138e-06
1.26141e-06
1.26188e-06
1.26245e-06
1.26289e-06
1.26151e-06
1.25874e-06
1.25813e-06
1.26027e-06
1.2622e-06
1.26171e-06
1.26271e-06
1.26255e-06
1.26106e-06
1.26043e-06
1.25989e-06
1.26177e-06
1.25922e-06
1.26322e-06
1.26557e-06
1.26558e-06
1.26213e-06
1.26449e-06
1.26551e-06
1.26708e-06
1.26633e-06
1.26432e-06
1.26351e-06
1.26349e-06
1.26213e-06
1.26294e-06
1.26362e-06
1.26378e-06
1.26487e-06
1.26553e-06
1.26443e-06
1.26416e-06
1.2666e-06
1.268e-06
1.26745e-06
1.2669e-06
1.26595e-06
1.26535e-06
1.26633e-06
1.26699e-06
1.2679e-06
1.26461e-06
)
;

boundaryField
{
    inlet
    {
        type            calculated;
        value           uniform -1.225e-06;
    }
    outlet
    {
        type            calculated;
        value           uniform 1.26251e-06;
    }
    yzfaces
    {
        type            empty;
    }
}


// ************************************************************************* //
