/*--------------------------------*- C++ -*----------------------------------*\
| =========                 |                                                 |
| \\      /  F ield         | foam-extend: Open Source CFD                    |
|  \\    /   O peration     | Version:     5.0                                |
|   \\  /    A nd           | Web:         http://www.foam-extend.org         |
|    \\/     M anipulation  |                                                 |
\*---------------------------------------------------------------------------*/
FoamFile
{
    version     2.0;
    format      ascii;
    class       volVectorField;
    location    "9";
    object      U.gas;
}
// * * * * * * * * * * * * * * * * * * * * * * * * * * * * * * * * * * * * * //

dimensions      [0 1 -1 0 0 0 0];

internalField   nonuniform List<vector> 
100
(
(0.00589982 0 0)
(0.00631635 0 0)
(0.00658858 0 0)
(0.00689972 0 0)
(0.00722976 0 0)
(0.00748988 0 0)
(0.00768844 0 0)
(0.00788052 0 0)
(0.00814566 0 0)
(0.00843614 0 0)
(0.00874212 0 0)
(0.00900364 0 0)
(0.00916179 0 0)
(0.00930561 0 0)
(0.00945607 0 0)
(0.00956568 0 0)
(0.00972585 0 0)
(0.00984968 0 0)
(0.00998907 0 0)
(0.0101268 0 0)
(0.0101418 0 0)
(0.0102714 0 0)
(0.0103572 0 0)
(0.0104264 0 0)
(0.010534 0 0)
(0.0106944 0 0)
(0.0108017 0 0)
(0.0108493 0 0)
(0.0109266 0 0)
(0.0109993 0 0)
(0.0110621 0 0)
(0.0111306 0 0)
(0.0111457 0 0)
(0.011178 0 0)
(0.0112864 0 0)
(0.0113609 0 0)
(0.0113794 0 0)
(0.011427 0 0)
(0.0115359 0 0)
(0.0116016 0 0)
(0.01165 0 0)
(0.0116959 0 0)
(0.0117616 0 0)
(0.0117896 0 0)
(0.0118685 0 0)
(0.0119316 0 0)
(0.0120175 0 0)
(0.0121149 0 0)
(0.0122161 0 0)
(0.0122932 0 0)
(0.0123281 0 0)
(0.0123771 0 0)
(0.0124372 0 0)
(0.012473 0 0)
(0.012522 0 0)
(0.0126058 0 0)
(0.0126676 0 0)
(0.0126837 0 0)
(0.0127264 0 0)
(0.0127616 0 0)
(0.0128154 0 0)
(0.0128856 0 0)
(0.0129513 0 0)
(0.0130091 0 0)
(0.0130562 0 0)
(0.0130861 0 0)
(0.0131123 0 0)
(0.0131568 0 0)
(0.0132161 0 0)
(0.0132598 0 0)
(0.0133319 0 0)
(0.0134084 0 0)
(0.013477 0 0)
(0.0135085 0 0)
(0.0135748 0 0)
(0.0136585 0 0)
(0.0137711 0 0)
(0.0138999 0 0)
(0.0140287 0 0)
(0.014221 0 0)
(0.0145751 0 0)
(0.0153445 0 0)
(0.0115672 0 0)
(0.0105039 0 0)
(0.0102917 0 0)
(0.010309 0 0)
(0.0103638 0 0)
(0.0104138 0 0)
(0.0104512 0 0)
(0.0104904 0 0)
(0.0105282 0 0)
(0.0105494 0 0)
(0.0105595 0 0)
(0.0105622 0 0)
(0.0105631 0 0)
(0.0105756 0 0)
(0.0105913 0 0)
(0.0106068 0 0)
(0.0106072 0 0)
(0.0105948 0 0)
)
;

boundaryField
{
    inlet
    {
        type            fixedValue;
        value           uniform (0.005 0 0);
    }
    outlet
    {
        type            zeroGradient;
    }
    yzfaces
    {
        type            empty;
    }
}


// ************************************************************************* //
