/*--------------------------------*- C++ -*----------------------------------*\
| =========                 |                                                 |
| \\      /  F ield         | foam-extend: Open Source CFD                    |
|  \\    /   O peration     | Version:     5.0                                |
|   \\  /    A nd           | Web:         http://www.foam-extend.org         |
|    \\/     M anipulation  |                                                 |
\*---------------------------------------------------------------------------*/
FoamFile
{
    version     2.0;
    format      ascii;
    class       volVectorField;
    location    "9";
    object      U.water;
}
// * * * * * * * * * * * * * * * * * * * * * * * * * * * * * * * * * * * * * //

dimensions      [0 1 -1 0 0 0 0];

internalField   nonuniform List<vector> 
100
(
(2.94429e-05 0 0)
(6.84818e-05 0 0)
(0.000104438 0 0)
(0.000138692 0 0)
(0.000172551 0 0)
(0.000203423 0 0)
(0.000229509 0 0)
(0.000253907 0 0)
(0.000280019 0 0)
(0.000313203 0 0)
(0.000343619 0 0)
(0.000378255 0 0)
(0.000412167 0 0)
(0.000438499 0 0)
(0.000466704 0 0)
(0.000491099 0 0)
(0.000511983 0 0)
(0.000537436 0 0)
(0.000565859 0 0)
(0.00059604 0 0)
(0.000618027 0 0)
(0.000635946 0 0)
(0.000663577 0 0)
(0.000685444 0 0)
(0.000707634 0 0)
(0.000738184 0 0)
(0.000772337 0 0)
(0.000796289 0 0)
(0.000816604 0 0)
(0.000842792 0 0)
(0.000863488 0 0)
(0.000875386 0 0)
(0.000882677 0 0)
(0.000891965 0 0)
(0.000917791 0 0)
(0.000948158 0 0)
(0.000966935 0 0)
(0.00098437 0 0)
(0.0010121 0 0)
(0.00103958 0 0)
(0.00106136 0 0)
(0.00108299 0 0)
(0.00110285 0 0)
(0.0011188 0 0)
(0.00113733 0 0)
(0.00116427 0 0)
(0.00118821 0 0)
(0.00121707 0 0)
(0.00124691 0 0)
(0.00127362 0 0)
(0.00129332 0 0)
(0.00131266 0 0)
(0.00133457 0 0)
(0.00135449 0 0)
(0.00137335 0 0)
(0.00139806 0 0)
(0.00142959 0 0)
(0.00145424 0 0)
(0.00147315 0 0)
(0.00149878 0 0)
(0.00152633 0 0)
(0.00155462 0 0)
(0.00158433 0 0)
(0.00161651 0 0)
(0.00164826 0 0)
(0.00167654 0 0)
(0.00170308 0 0)
(0.00173017 0 0)
(0.00176216 0 0)
(0.00179541 0 0)
(0.00183477 0 0)
(0.00188145 0 0)
(0.00192528 0 0)
(0.00196865 0 0)
(0.00201945 0 0)
(0.00208332 0 0)
(0.00215943 0 0)
(0.0022592 0 0)
(0.00239225 0 0)
(0.00258671 0 0)
(0.00292219 0 0)
(0.0035995 0 0)
(0.00429446 0 0)
(0.00445908 0 0)
(0.00448704 0 0)
(0.0044828 0 0)
(0.00447444 0 0)
(0.00446264 0 0)
(0.00445157 0 0)
(0.00444916 0 0)
(0.00445123 0 0)
(0.00444886 0 0)
(0.00444389 0 0)
(0.0044392 0 0)
(0.00443437 0 0)
(0.0044325 0 0)
(0.00443318 0 0)
(0.00443354 0 0)
(0.00442645 0 0)
(0.00441387 0 0)
)
;

boundaryField
{
    inlet
    {
        type            fixedValue;
        value           uniform (0 0 0);
    }
    outlet
    {
        type            zeroGradient;
    }
    yzfaces
    {
        type            empty;
    }
}


// ************************************************************************* //
