/*--------------------------------*- C++ -*----------------------------------*\
| =========                 |                                                 |
| \\      /  F ield         | foam-extend: Open Source CFD                    |
|  \\    /   O peration     | Version:     5.0                                |
|   \\  /    A nd           | Web:         http://www.foam-extend.org         |
|    \\/     M anipulation  |                                                 |
\*---------------------------------------------------------------------------*/
FoamFile
{
    version     2.0;
    format      ascii;
    class       volScalarField;
    location    "7.63887";
    object      CO2.water;
}
// * * * * * * * * * * * * * * * * * * * * * * * * * * * * * * * * * * * * * //

dimensions      [0 0 0 0 0 0 0];

internalField   nonuniform List<scalar> 
100
(
6.82917e-05
8.389e-06
8.35492e-07
7.49298e-08
6.29423e-09
5.05109e-10
3.91534e-11
2.95296e-12
2.1778e-13
1.57613e-14
1.12225e-15
7.87693e-17
5.45898e-18
3.74053e-19
2.53652e-20
1.7037e-21
1.13439e-22
7.49186e-24
4.9099e-25
3.19516e-26
2.06546e-27
1.32659e-28
8.47016e-30
5.37711e-31
3.39503e-32
2.1328e-33
1.33324e-34
8.29464e-36
5.13652e-37
3.16665e-38
1.94408e-39
1.18864e-40
7.23808e-42
4.39093e-43
2.65373e-44
1.59832e-45
9.59226e-47
5.73803e-48
3.42102e-49
2.03311e-50
1.20456e-51
7.11507e-53
4.19009e-54
2.46058e-55
1.44073e-56
8.41188e-58
4.89887e-59
2.84503e-60
1.64835e-61
9.52526e-63
5.49133e-64
3.15804e-65
1.81201e-66
1.03726e-67
5.92485e-69
3.37618e-70
1.92004e-71
1.08946e-72
6.16952e-74
3.48615e-75
1.96581e-76
1.10622e-77
6.2125e-79
3.48267e-80
1.94844e-81
1.08828e-82
6.06579e-84
3.37557e-85
1.87471e-86
1.03953e-87
5.75418e-89
3.18e-90
1.75437e-91
9.6639e-93
5.31535e-94
2.91881e-95
1.60013e-96
8.75802e-98
4.78521e-99
2.61063e-100
1.42242e-101
7.73835e-103
4.20491e-104
2.28168e-105
1.23664e-106
6.69175e-108
3.61581e-109
1.95076e-110
1.0508e-111
5.65346e-113
3.03733e-114
1.63029e-115
8.74064e-117
4.68138e-118
2.50382e-119
1.33698e-120
7.13074e-122
3.79846e-123
2.02142e-124
1.07461e-125
)
;

boundaryField
{
    inlet
    {
        type            fixedValue;
        value           uniform 0;
    }
    outlet
    {
        type            zeroGradient;
    }
    yzfaces
    {
        type            empty;
    }
}


// ************************************************************************* //
