/*--------------------------------*- C++ -*----------------------------------*\
| =========                 |                                                 |
| \\      /  F ield         | foam-extend: Open Source CFD                    |
|  \\    /   O peration     | Version:     5.0                                |
|   \\  /    A nd           | Web:         http://www.foam-extend.org         |
|    \\/     M anipulation  |                                                 |
\*---------------------------------------------------------------------------*/
FoamFile
{
    version     2.0;
    format      ascii;
    class       volScalarField;
    location    "2";
    object      alpha.gas;
}
// * * * * * * * * * * * * * * * * * * * * * * * * * * * * * * * * * * * * * //

dimensions      [0 0 0 0 0 0 0];

internalField   nonuniform List<scalar> 
100
(
0.133798
0.116094
0.105387
0.0977454
0.0917548
0.0865675
0.0823857
0.0789213
0.0753537
0.072255
0.0693904
0.06678
0.0639402
0.0613229
0.058837
0.0560916
0.0531369
0.0501055
0.0472609
0.0347034
0.032991
0.0337387
0.0346369
0.0351722
0.035275
0.0350441
0.0345758
0.0339084
0.0330781
0.0320764
0.0309252
0.0295873
0.0280467
0.0263284
0.0244147
0.0223301
0.0201351
0.0179228
0.0158336
0.0140169
0.0125906
0.0115784
0.0109194
0.0105217
0.0102882
0.0101592
0.0100853
0.0100459
0.0100255
0.0100145
0.0100094
0.0100067
0.0100039
0.0100052
0.0100025
0.0100005
0.0100005
0.00999988
0.00999859
0.0100022
0.0100011
0.0100015
0.00999946
0.0100009
0.00999998
0.0100004
0.00999957
0.0100013
0.0100007
0.010003
0.0100031
0.0100018
0.00999983
0.00999904
0.00999713
0.00999795
0.00999773
0.0099998
0.00999987
0.00999951
0.00999896
0.00999659
0.00999533
0.00999647
0.00999724
0.00999783
0.00999779
0.00999923
0.0100012
0.0100009
0.0100014
0.0100022
0.0100035
0.0100005
0.0100014
0.0100023
0.0100034
0.0100012
0.0100013
0.0100005
)
;

boundaryField
{
    inlet
    {
        type            fixedValue;
        value           uniform 0.2;
    }
    outlet
    {
        type            zeroGradient;
    }
    yzfaces
    {
        type            empty;
    }
}


// ************************************************************************* //
