/*--------------------------------*- C++ -*----------------------------------*\
| =========                 |                                                 |
| \\      /  F ield         | foam-extend: Open Source CFD                    |
|  \\    /   O peration     | Version:     5.0                                |
|   \\  /    A nd           | Web:         http://www.foam-extend.org         |
|    \\/     M anipulation  |                                                 |
\*---------------------------------------------------------------------------*/
FoamFile
{
    version     2.0;
    format      ascii;
    class       volScalarField;
    location    "2";
    object      Cl.water;
}
// * * * * * * * * * * * * * * * * * * * * * * * * * * * * * * * * * * * * * //

dimensions      [0 0 0 0 0 0 0];

internalField   nonuniform List<scalar> 
100
(
1.62074e-15
0.00417359
0.00763727
0.00657818
0.00653643
0.00809964
0.0102394
0.00917358
0.00841985
0.0093934
0.0112979
0.0091987
0.00872653
0.0105794
0.0130683
0.00856674
0.00937716
0.01272
0.015649
0.00343404
0.0140067
0.0183661
0.0195641
0.0198518
0.0199064
0.0199439
0.0200197
0.020094
0.0201972
0.0203196
0.0204639
0.020636
0.0208225
0.0210445
0.0212543
0.0215104
0.0217649
0.0220335
0.0222863
0.0225021
0.0226713
0.0228199
0.0229099
0.0229358
0.0229881
0.023007
0.0230104
0.0229993
0.0229825
0.0229899
0.0230114
0.0230125
0.0230173
0.0230128
0.0230221
0.0230308
0.0230235
0.0229931
0.0230028
0.0229954
0.0230087
0.0230023
0.0230031
0.0230135
0.0230183
0.0230303
0.0230324
0.0230432
0.0230278
0.0230321
0.0230226
0.0230118
0.0229999
0.0230005
0.02302
0.0230078
0.0230012
0.0229971
0.0229864
0.0229829
0.0229996
0.0230162
0.0230121
0.0230122
0.0229966
0.0230001
0.0230186
0.0230021
0.0229892
0.0229998
0.0229743
0.0229759
0.022975
0.0229934
0.0229994
0.0229976
0.0229981
0.0229808
0.0229682
0.0229736
)
;

boundaryField
{
    inlet
    {
        type            fixedValue;
        value           uniform 0;
    }
    outlet
    {
        type            zeroGradient;
    }
    yzfaces
    {
        type            empty;
    }
}


// ************************************************************************* //
