/*--------------------------------*- C++ -*----------------------------------*\
| =========                 |                                                 |
| \\      /  F ield         | foam-extend: Open Source CFD                    |
|  \\    /   O peration     | Version:     5.0                                |
|   \\  /    A nd           | Web:         http://www.foam-extend.org         |
|    \\/     M anipulation  |                                                 |
\*---------------------------------------------------------------------------*/
FoamFile
{
    version     2.0;
    format      ascii;
    class       volScalarField;
    location    "2";
    object      CO2.water;
}
// * * * * * * * * * * * * * * * * * * * * * * * * * * * * * * * * * * * * * //

dimensions      [0 0 0 0 0 0 0];

internalField   nonuniform List<scalar> 
100
(
0.00174211
0.001295
0.000823937
0.0012594
0.00142867
0.00121926
0.000876748
0.00119909
0.00144601
0.00131437
0.00097336
0.00149681
0.00166534
0.00133349
0.000866566
0.00190841
0.00181348
0.00116799
0.000612071
0.00359198
0.00134212
0.000379066
9.37466e-05
2.19361e-05
5.07658e-06
1.19762e-06
2.90154e-07
7.11198e-08
1.72077e-08
3.99382e-09
8.80361e-10
1.91858e-10
3.53261e-11
2.76541e-12
0
0
0
0
0
0
0
0
0
0
0
0
0
0
0
0
3.62633e-18
3.91854e-18
2.12473e-18
9.25444e-19
3.68323e-19
1.48755e-19
6.28299e-20
2.76816e-20
1.343e-20
6.19372e-21
2.73891e-21
1.17526e-21
4.94733e-22
2.05009e-22
8.40867e-23
3.40846e-23
1.36943e-23
5.46889e-24
2.16996e-24
8.56645e-25
3.35877e-25
1.31386e-25
5.12513e-26
1.9892e-26
7.69905e-27
2.9729e-27
1.14469e-27
4.39837e-28
1.68958e-28
6.46593e-29
2.47545e-29
9.45337e-30
3.60429e-30
1.37104e-30
5.21648e-31
1.98612e-31
7.54928e-32
2.86522e-32
1.08712e-32
4.11606e-33
1.55913e-33
5.89615e-34
2.23063e-34
8.43513e-35
3.18588e-35
1.20126e-35
4.53313e-36
1.70559e-36
6.421e-37
2.97498e-37
)
;

boundaryField
{
    inlet
    {
        type            fixedValue;
        value           uniform 0;
    }
    outlet
    {
        type            zeroGradient;
    }
    yzfaces
    {
        type            empty;
    }
}


// ************************************************************************* //
