/*--------------------------------*- C++ -*----------------------------------*\
| =========                 |                                                 |
| \\      /  F ield         | foam-extend: Open Source CFD                    |
|  \\    /   O peration     | Version:     5.0                                |
|   \\  /    A nd           | Web:         http://www.foam-extend.org         |
|    \\/     M anipulation  |                                                 |
\*---------------------------------------------------------------------------*/
FoamFile
{
    version     2.0;
    format      ascii;
    class       volScalarField;
    location    "2";
    object      H2O.gas;
}
// * * * * * * * * * * * * * * * * * * * * * * * * * * * * * * * * * * * * * //

dimensions      [0 0 0 0 0 0 0];

internalField   nonuniform List<scalar> 
100
(
1.79733e-11
2.24449e-09
1.72958e-08
7.74087e-08
2.56763e-07
7.06151e-07
1.73613e-06
3.85604e-06
7.86059e-06
1.50998e-05
2.76055e-05
4.79956e-05
7.90835e-05
0.000126709
0.000200791
0.000297479
0.000431821
0.000644795
0.00100032
0.000799665
0.00173906
0.00301899
0.00448315
0.00612103
0.00789857
0.00978119
0.0117348
0.013664
0.0155192
0.0172025
0.018668
0.0197994
0.0205185
0.0207919
0.0205243
0.0197851
0.018585
0.0170681
0.015412
0.0138266
0.0125116
0.0115564
0.0109197
0.0105154
0.0102962
0.0101669
0.0100923
0.0100487
0.0100191
0.0100087
0.0100131
0.0100095
0.0100115
0.01001
0.010011
0.0100099
0.0100061
0.00999362
0.00999682
0.00999338
0.00999864
0.00999773
0.0100003
0.0100081
0.0100079
0.0100151
0.0100159
0.0100213
0.0100119
0.0100133
0.0100116
0.0100066
0.00999969
0.00999909
0.0100052
0.0100002
0.00999442
0.00999427
0.00999134
0.00999202
0.00999895
0.0100028
0.00999983
0.00999875
0.00999174
0.00999477
0.010004
0.00999757
0.009992
0.00999767
0.00998831
0.00999299
0.00999515
0.0100006
0.0100039
0.00999975
0.00999641
0.00998823
0.00998392
0.0099869
)
;

boundaryField
{
    inlet
    {
        type            fixedValue;
        value           uniform 0;
    }
    outlet
    {
        type            zeroGradient;
    }
    yzfaces
    {
        type            empty;
    }
}


// ************************************************************************* //
