/*--------------------------------*- C++ -*----------------------------------*\
| =========                 |                                                 |
| \\      /  F ield         | foam-extend: Open Source CFD                    |
|  \\    /   O peration     | Version:     5.0                                |
|   \\  /    A nd           | Web:         http://www.foam-extend.org         |
|    \\/     M anipulation  |                                                 |
\*---------------------------------------------------------------------------*/
FoamFile
{
    version     2.0;
    format      ascii;
    class       volScalarField;
    location    "2";
    object      Na.water;
}
// * * * * * * * * * * * * * * * * * * * * * * * * * * * * * * * * * * * * * //

dimensions      [0 0 0 0 0 0 0];

internalField   nonuniform List<scalar> 
100
(
1.62084e-15
0.00417169
0.00763175
0.0065755
0.00653467
0.00809723
0.0102388
0.00917454
0.00842549
0.00940173
0.0113063
0.00920597
0.00873009
0.0105839
0.0130763
0.00857297
0.00937752
0.0127216
0.0156527
0.00343417
0.0140042
0.0183632
0.0195662
0.0198517
0.0199163
0.0199531
0.0200299
0.0201044
0.0202023
0.0203193
0.0204658
0.020635
0.0208215
0.0210448
0.0212563
0.0215181
0.0217736
0.0220414
0.0222889
0.0224971
0.0226692
0.0228175
0.0229103
0.0229361
0.022987
0.0229962
0.0230048
0.023004
0.0229787
0.0229845
0.0230039
0.0230013
0.023018
0.0230147
0.0230218
0.0230295
0.0230268
0.0229979
0.0230083
0.0229958
0.0230037
0.022997
0.0230067
0.0230239
0.0230208
0.0230342
0.0230403
0.0230462
0.0230243
0.0230244
0.0230207
0.0230095
0.0229968
0.0230052
0.0230238
0.0230122
0.0230021
0.0230012
0.0229884
0.0229854
0.022999
0.0230137
0.0230087
0.0230003
0.022985
0.0229887
0.0230097
0.022999
0.0229808
0.0229956
0.0229717
0.0229779
0.0229845
0.0230068
0.0230106
0.022995
0.0229835
0.0229724
0.0229555
0.0229638
)
;

boundaryField
{
    inlet
    {
        type            fixedValue;
        value           uniform 0;
    }
    outlet
    {
        type            zeroGradient;
    }
    yzfaces
    {
        type            empty;
    }
}


// ************************************************************************* //
