/*--------------------------------*- C++ -*----------------------------------*\
| =========                 |                                                 |
| \\      /  F ield         | foam-extend: Open Source CFD                    |
|  \\    /   O peration     | Version:     5.0                                |
|   \\  /    A nd           | Web:         http://www.foam-extend.org         |
|    \\/     M anipulation  |                                                 |
\*---------------------------------------------------------------------------*/
FoamFile
{
    version     2.0;
    format      ascii;
    class       surfaceScalarField;
    location    "2";
    object      phi;
}
// * * * * * * * * * * * * * * * * * * * * * * * * * * * * * * * * * * * * * //

dimensions      [0 3 -1 0 0 0 0];

internalField   nonuniform List<scalar> 
99
(
1.22434e-06
1.23138e-06
1.23388e-06
1.23652e-06
1.23869e-06
1.23819e-06
1.24097e-06
1.23482e-06
1.2375e-06
1.23212e-06
1.23797e-06
1.23131e-06
1.23655e-06
1.2348e-06
1.23674e-06
1.23446e-06
1.23596e-06
1.23732e-06
1.24064e-06
1.23858e-06
1.23708e-06
1.23695e-06
1.23871e-06
1.23859e-06
1.23889e-06
1.23658e-06
1.23634e-06
1.23736e-06
1.23507e-06
1.23661e-06
1.23563e-06
1.23601e-06
1.23634e-06
1.23363e-06
1.23186e-06
1.23344e-06
1.23238e-06
1.2331e-06
1.23022e-06
1.23102e-06
1.23313e-06
1.23369e-06
1.23292e-06
1.23285e-06
1.23302e-06
1.23409e-06
1.23384e-06
1.23294e-06
1.23267e-06
1.23313e-06
1.23121e-06
1.23209e-06
1.23216e-06
1.23303e-06
1.23385e-06
1.23346e-06
1.23234e-06
1.23441e-06
1.235e-06
1.23565e-06
1.23684e-06
1.23615e-06
1.2382e-06
1.23908e-06
1.23895e-06
1.23937e-06
1.23748e-06
1.2366e-06
1.23728e-06
1.23767e-06
1.23675e-06
1.23642e-06
1.23703e-06
1.23674e-06
1.23701e-06
1.23609e-06
1.23779e-06
1.23652e-06
1.23805e-06
1.23721e-06
1.23862e-06
1.23847e-06
1.23911e-06
1.23827e-06
1.23745e-06
1.23862e-06
1.23729e-06
1.23526e-06
1.23574e-06
1.23475e-06
1.23524e-06
1.23466e-06
1.23575e-06
1.23769e-06
1.23737e-06
1.23436e-06
1.23526e-06
1.23649e-06
1.2375e-06
)
;

boundaryField
{
    inlet
    {
        type            calculated;
        value           uniform -1.225e-06;
    }
    outlet
    {
        type            calculated;
        value           uniform 1.2377e-06;
    }
    yzfaces
    {
        type            empty;
    }
}


// ************************************************************************* //
