/*--------------------------------*- C++ -*----------------------------------*\
| =========                 |                                                 |
| \\      /  F ield         | foam-extend: Open Source CFD                    |
|  \\    /   O peration     | Version:     5.0                                |
|   \\  /    A nd           | Web:         http://www.foam-extend.org         |
|    \\/     M anipulation  |                                                 |
\*---------------------------------------------------------------------------*/
FoamFile
{
    version     2.0;
    format      ascii;
    class       surfaceScalarField;
    location    "2";
    object      phi.water;
}
// * * * * * * * * * * * * * * * * * * * * * * * * * * * * * * * * * * * * * //

dimensions      [0 3 -1 0 0 0 0];

internalField   nonuniform List<scalar> 
99
(
2.23863e-07
3.98658e-07
5.48514e-07
6.86448e-07
8.19175e-07
9.51344e-07
1.07544e-06
1.1835e-06
1.31895e-06
1.44082e-06
1.57578e-06
1.69198e-06
1.85011e-06
1.99241e-06
2.14344e-06
2.31773e-06
2.5262e-06
2.76018e-06
2.90746e-06
4.20161e-06
4.40396e-06
4.32615e-06
4.23445e-06
4.17208e-06
4.15925e-06
4.17212e-06
4.2156e-06
4.28693e-06
4.36315e-06
4.46976e-06
4.57958e-06
4.71455e-06
4.86749e-06
5.02584e-06
5.20152e-06
5.39686e-06
5.57851e-06
5.75178e-06
5.8829e-06
5.99769e-06
6.08076e-06
6.12624e-06
6.15183e-06
6.16653e-06
6.17262e-06
6.18297e-06
6.18588e-06
6.18692e-06
6.18911e-06
6.18859e-06
6.17654e-06
6.17978e-06
6.17968e-06
6.18356e-06
6.18636e-06
6.18548e-06
6.1847e-06
6.19742e-06
6.20123e-06
6.20454e-06
6.20899e-06
6.20443e-06
6.21146e-06
6.2136e-06
6.21066e-06
6.21011e-06
6.19907e-06
6.19607e-06
6.20262e-06
6.20526e-06
6.20237e-06
6.20346e-06
6.20796e-06
6.20405e-06
6.2048e-06
6.20368e-06
6.21469e-06
6.20989e-06
6.21818e-06
6.21129e-06
6.214e-06
6.21198e-06
6.21653e-06
6.21537e-06
6.2129e-06
6.2151e-06
6.20805e-06
6.20255e-06
6.2054e-06
6.20168e-06
6.20586e-06
6.20159e-06
6.20401e-06
6.21052e-06
6.20967e-06
6.19754e-06
6.20521e-06
6.21465e-06
6.21995e-06
)
;

boundaryField
{
    inlet
    {
        type            fixedValue;
        value           uniform 0;
    }
    outlet
    {
        type            calculated;
        value           uniform 6.2199e-06;
    }
    yzfaces
    {
        type            empty;
    }
}


// ************************************************************************* //
