/*--------------------------------*- C++ -*----------------------------------*\
| =========                 |                                                 |
| \\      /  F ield         | foam-extend: Open Source CFD                    |
|  \\    /   O peration     | Version:     5.0                                |
|   \\  /    A nd           | Web:         http://www.foam-extend.org         |
|    \\/     M anipulation  |                                                 |
\*---------------------------------------------------------------------------*/
FoamFile
{
    version     2.0;
    format      ascii;
    class       volScalarField;
    location    "2";
    object      S.gas;
}
// * * * * * * * * * * * * * * * * * * * * * * * * * * * * * * * * * * * * * //

dimensions      [0 0 0 0 0 0 0];

internalField   nonuniform List<scalar> 
100
(
0.668988
0.580471
0.526934
0.488727
0.458774
0.432838
0.411928
0.394606
0.376768
0.361275
0.346952
0.3339
0.319701
0.306614
0.294185
0.280458
0.265685
0.250527
0.236304
0.173517
0.164955
0.168693
0.173184
0.175861
0.176375
0.175221
0.172879
0.169542
0.165391
0.160382
0.154626
0.147937
0.140234
0.131642
0.122074
0.111651
0.100676
0.0896139
0.079168
0.0700845
0.0629532
0.0578918
0.0545969
0.0526085
0.0514409
0.0507961
0.0504265
0.0502296
0.0501277
0.0500723
0.0500469
0.0500335
0.0500196
0.0500261
0.0500124
0.0500023
0.0500024
0.0499994
0.0499929
0.0500109
0.0500054
0.0500075
0.0499973
0.0500046
0.0499999
0.0500019
0.0499978
0.0500064
0.0500034
0.0500151
0.0500155
0.0500091
0.0499991
0.0499952
0.0499856
0.0499897
0.0499886
0.049999
0.0499994
0.0499975
0.0499948
0.0499829
0.0499766
0.0499824
0.0499862
0.0499891
0.049989
0.0499962
0.0500062
0.0500045
0.0500072
0.0500108
0.0500175
0.0500024
0.050007
0.0500115
0.0500169
0.050006
0.0500064
0.0500027
)
;

boundaryField
{
    inlet
    {
        type            calculated;
        value           uniform 1;
    }
    outlet
    {
        type            calculated;
        value           uniform 0.0500027;
    }
    yzfaces
    {
        type            empty;
    }
}


// ************************************************************************* //
