/*--------------------------------*- C++ -*----------------------------------*\
| =========                 |                                                 |
| \\      /  F ield         | foam-extend: Open Source CFD                    |
|  \\    /   O peration     | Version:     5.0                                |
|   \\  /    A nd           | Web:         http://www.foam-extend.org         |
|    \\/     M anipulation  |                                                 |
\*---------------------------------------------------------------------------*/
FoamFile
{
    version     2.0;
    format      ascii;
    class       volVectorField;
    location    "2";
    object      U.gas;
}
// * * * * * * * * * * * * * * * * * * * * * * * * * * * * * * * * * * * * * //

dimensions      [0 1 -1 0 0 0 0];

internalField   nonuniform List<vector> 
100
(
(0.00742072 0 0)
(0.00844985 0 0)
(0.00920141 0 0)
(0.00978859 0 0)
(0.0102851 0 0)
(0.0107315 0 0)
(0.0110995 0 0)
(0.0113851 0 0)
(0.0117013 0 0)
(0.0119606 0 0)
(0.0122155 0 0)
(0.0124362 0 0)
(0.0126877 0 0)
(0.0129127 0 0)
(0.0131013 0 0)
(0.013319 0 0)
(0.0135226 0 0)
(0.0137039 0 0)
(0.0138094 0 0)
(0.0155225 0 0)
(0.0129251 0 0)
(0.0123822 0 0)
(0.0124864 0 0)
(0.0126573 0 0)
(0.0127784 0 0)
(0.0128205 0 0)
(0.0128059 0 0)
(0.0127713 0 0)
(0.0126877 0 0)
(0.012574 0 0)
(0.0124261 0 0)
(0.0122287 0 0)
(0.0119735 0 0)
(0.0116209 0 0)
(0.0111688 0 0)
(0.0106217 0 0)
(0.0099532 0 0)
(0.00916236 0 0)
(0.00828107 0 0)
(0.00738059 0 0)
(0.00656817 0 0)
(0.00590818 0 0)
(0.00542775 0 0)
(0.00511336 0 0)
(0.00492501 0 0)
(0.00481696 0 0)
(0.00475831 0 0)
(0.00472164 0 0)
(0.00469988 0 0)
(0.00469018 0 0)
(0.0046826 0 0)
(0.00467795 0 0)
(0.0046786 0 0)
(0.0046798 0 0)
(0.00468386 0 0)
(0.00468252 0 0)
(0.00467834 0 0)
(0.0046801 0 0)
(0.00468481 0 0)
(0.00468658 0 0)
(0.00469196 0 0)
(0.00469296 0 0)
(0.00469565 0 0)
(0.00470017 0 0)
(0.00470251 0 0)
(0.00470255 0 0)
(0.00469991 0 0)
(0.00469473 0 0)
(0.00469513 0 0)
(0.00469673 0 0)
(0.00469679 0 0)
(0.0046939 0 0)
(0.00469457 0 0)
(0.00469425 0 0)
(0.00469342 0 0)
(0.00469171 0 0)
(0.00469313 0 0)
(0.00469326 0 0)
(0.00469453 0 0)
(0.004696 0 0)
(0.00469752 0 0)
(0.00470003 0 0)
(0.00469945 0 0)
(0.00469835 0 0)
(0.00469579 0 0)
(0.00469648 0 0)
(0.00469615 0 0)
(0.00469021 0 0)
(0.00468814 0 0)
(0.00468748 0 0)
(0.00468707 0 0)
(0.00468707 0 0)
(0.00468788 0 0)
(0.00469487 0 0)
(0.00469698 0 0)
(0.00469089 0 0)
(0.00468666 0 0)
(0.00469163 0 0)
(0.00469516 0 0)
(0.00469705 0 0)
)
;

boundaryField
{
    inlet
    {
        type            fixedValue;
        value           uniform (0.005 0 0);
    }
    outlet
    {
        type            zeroGradient;
    }
    yzfaces
    {
        type            empty;
    }
}


// ************************************************************************* //
