/*--------------------------------*- C++ -*----------------------------------*\
| =========                 |                                                 |
| \\      /  F ield         | foam-extend: Open Source CFD                    |
|  \\    /   O peration     | Version:     5.0                                |
|   \\  /    A nd           | Web:         http://www.foam-extend.org         |
|    \\/     M anipulation  |                                                 |
\*---------------------------------------------------------------------------*/
FoamFile
{
    version     2.0;
    format      ascii;
    class       volVectorField;
    location    "2";
    object      U.water;
}
// * * * * * * * * * * * * * * * * * * * * * * * * * * * * * * * * * * * * * //

dimensions      [0 1 -1 0 0 0 0];

internalField   nonuniform List<vector> 
100
(
(0.00010357 0 0)
(0.00025451 0 0)
(0.000386008 0 0)
(0.000504019 0 0)
(0.000615105 0 0)
(0.00072268 0 0)
(0.000828652 0 0)
(0.000925051 0 0)
(0.00102186 0 0)
(0.00112566 0 0)
(0.00122934 0 0)
(0.00133148 0 0)
(0.00144082 0 0)
(0.00156386 0 0)
(0.00168563 0 0)
(0.00181759 0 0)
(0.00197318 0 0)
(0.00215393 0 0)
(0.0023489 0 0)
(0.00286299 0 0)
(0.00349718 0 0)
(0.00356095 0 0)
(0.00349525 0 0)
(0.00343364 0 0)
(0.00340239 0 0)
(0.00340159 0 0)
(0.00342502 0 0)
(0.00347171 0 0)
(0.00353142 0 0)
(0.00360592 0 0)
(0.00369539 0 0)
(0.00379679 0 0)
(0.00391562 0 0)
(0.00404319 0 0)
(0.00417825 0 0)
(0.0043286 0 0)
(0.00448142 0 0)
(0.00462497 0 0)
(0.00474743 0 0)
(0.00484525 0 0)
(0.00492546 0 0)
(0.00498064 0 0)
(0.00501116 0 0)
(0.00502767 0 0)
(0.0050382 0 0)
(0.00504657 0 0)
(0.00505136 0 0)
(0.00505077 0 0)
(0.00504938 0 0)
(0.00505029 0 0)
(0.00504754 0 0)
(0.00504553 0 0)
(0.00504753 0 0)
(0.0050495 0 0)
(0.0050529 0 0)
(0.00505389 0 0)
(0.00505088 0 0)
(0.00505283 0 0)
(0.00505828 0 0)
(0.00506085 0 0)
(0.00506452 0 0)
(0.00506556 0 0)
(0.00506833 0 0)
(0.00507439 0 0)
(0.00507589 0 0)
(0.0050765 0 0)
(0.00507348 0 0)
(0.0050678 0 0)
(0.00506735 0 0)
(0.00506956 0 0)
(0.00506841 0 0)
(0.00506588 0 0)
(0.00506646 0 0)
(0.00506715 0 0)
(0.00506716 0 0)
(0.00506586 0 0)
(0.00506745 0 0)
(0.00506837 0 0)
(0.00506887 0 0)
(0.00507027 0 0)
(0.0050714 0 0)
(0.00507397 0 0)
(0.00507507 0 0)
(0.0050747 0 0)
(0.00507127 0 0)
(0.00507198 0 0)
(0.00507165 0 0)
(0.00506475 0 0)
(0.00506153 0 0)
(0.00506046 0 0)
(0.00505941 0 0)
(0.00505922 0 0)
(0.00506028 0 0)
(0.00506643 0 0)
(0.0050698 0 0)
(0.00506296 0 0)
(0.00505864 0 0)
(0.00506294 0 0)
(0.00506757 0 0)
(0.00507009 0 0)
)
;

boundaryField
{
    inlet
    {
        type            fixedValue;
        value           uniform (0 0 0);
    }
    outlet
    {
        type            zeroGradient;
    }
    yzfaces
    {
        type            empty;
    }
}


// ************************************************************************* //
