/*--------------------------------*- C++ -*----------------------------------*\
| =========                 |                                                 |
| \\      /  F ield         | foam-extend: Open Source CFD                    |
|  \\    /   O peration     | Version:     5.0                                |
|   \\  /    A nd           | Web:         http://www.foam-extend.org         |
|    \\/     M anipulation  |                                                 |
\*---------------------------------------------------------------------------*/
FoamFile
{
    version     2.0;
    format      ascii;
    class       volScalarField;
    location    "6";
    object      Cl.water;
}
// * * * * * * * * * * * * * * * * * * * * * * * * * * * * * * * * * * * * * //

dimensions      [0 0 0 0 0 0 0];

internalField   nonuniform List<scalar> 
100
(
0.00805249
0.0110353
0.0130467
0.0144156
0.0157575
0.0167929
0.017421
0.0179773
0.0183749
0.019013
0.0195673
0.0203506
0.0209108
0.0212294
0.0216304
0.0221078
0.0226312
0.0230594
0.0233398
0.0234986
0.023588
0.0238436
0.0240905
0.0242629
0.0244467
0.0246737
0.0249703
0.0252276
0.0253987
0.0255483
0.0257281
0.0259329
0.0262087
0.0263971
0.0265667
0.026668
0.0267829
0.0269886
0.0271847
0.0273664
0.0274142
0.0276498
0.0277837
0.0279139
0.0280757
0.0282713
0.0283428
0.0284603
0.0286016
0.0286914
0.0288158
0.0288796
0.0290427
0.0292674
0.0293599
0.0294583
0.029563
0.0296977
0.0297843
0.0298326
0.0299268
0.0300395
0.0301596
0.0302818
0.0303643
0.0304673
0.030611
0.0306281
0.0306909
0.0307646
0.0309138
0.0310048
0.0310963
0.0312007
0.0312517
0.0313945
0.031467
0.0316004
0.0316875
0.0318212
0.0319503
0.0320753
0.0322009
0.032338
0.0324244
0.0325278
0.0335797
0.0338015
0.0339836
0.0341171
0.0342447
0.0344184
0.0345693
0.0347606
0.0349511
0.0351519
0.035373
0.0356003
0.0358413
0.0360916
)
;

boundaryField
{
    inlet
    {
        type            fixedValue;
        value           uniform 0;
    }
    outlet
    {
        type            zeroGradient;
    }
    yzfaces
    {
        type            empty;
    }
}


// ************************************************************************* //
