/*--------------------------------*- C++ -*----------------------------------*\
| =========                 |                                                 |
| \\      /  F ield         | foam-extend: Open Source CFD                    |
|  \\    /   O peration     | Version:     5.0                                |
|   \\  /    A nd           | Web:         http://www.foam-extend.org         |
|    \\/     M anipulation  |                                                 |
\*---------------------------------------------------------------------------*/
FoamFile
{
    version     2.0;
    format      ascii;
    class       volScalarField;
    location    "6";
    object      CO2.gas;
}
// * * * * * * * * * * * * * * * * * * * * * * * * * * * * * * * * * * * * * //

dimensions      [0 0 0 0 0 0 0];

internalField   nonuniform List<scalar> 
100
(
0.159962
0.147339
0.137447
0.129719
0.125309
0.120997
0.117306
0.11264
0.108636
0.105243
0.102127
0.0990285
0.0968109
0.0949055
0.0930079
0.09096
0.0890921
0.0874848
0.0865958
0.0854463
0.0843265
0.0830888
0.0815819
0.0803334
0.0791418
0.0778844
0.0768112
0.0757973
0.0748449
0.0739228
0.0728919
0.0720014
0.0711019
0.0702717
0.0695408
0.0685743
0.0678458
0.0672435
0.0664441
0.0659144
0.0652304
0.064515
0.0638373
0.0632196
0.0626537
0.0620566
0.0614589
0.0607863
0.0601597
0.059513
0.0589639
0.0583629
0.0578467
0.0571996
0.0566057
0.0561122
0.055666
0.0551589
0.0546269
0.0540945
0.0535941
0.0530972
0.0526349
0.0522678
0.0518205
0.051378
0.0509548
0.0505385
0.0500377
0.0495833
0.0490783
0.0484913
0.0479924
0.0474918
0.046922
0.046398
0.0458759
0.0453086
0.0446867
0.0441282
0.0435544
0.0429787
0.0423848
0.0418019
0.0411932
0.0405477
0.0331296
0.0278662
0.0237897
0.0203589
0.0174007
0.0148261
0.0125305
0.0104974
0.00868707
0.00710001
0.00571609
0.00451267
0.00348898
0.00263269
)
;

boundaryField
{
    inlet
    {
        type            fixedValue;
        value           uniform 0.2;
    }
    outlet
    {
        type            zeroGradient;
    }
    yzfaces
    {
        type            empty;
    }
}


// ************************************************************************* //
