/*--------------------------------*- C++ -*----------------------------------*\
| =========                 |                                                 |
| \\      /  F ield         | foam-extend: Open Source CFD                    |
|  \\    /   O peration     | Version:     5.0                                |
|   \\  /    A nd           | Web:         http://www.foam-extend.org         |
|    \\/     M anipulation  |                                                 |
\*---------------------------------------------------------------------------*/
FoamFile
{
    version     2.0;
    format      ascii;
    class       volScalarField;
    location    "6";
    object      H2O.gas;
}
// * * * * * * * * * * * * * * * * * * * * * * * * * * * * * * * * * * * * * //

dimensions      [0 0 0 0 0 0 0];

internalField   nonuniform List<scalar> 
100
(
0.000312129
0.000287499
0.000268196
0.000253116
0.000244513
0.000236097
0.000228895
0.000219792
0.000211978
0.000205357
0.000199278
0.000193231
0.000188904
0.000185186
0.000181484
0.000177488
0.000173843
0.000170707
0.000168972
0.000166729
0.000164544
0.000162129
0.000159188
0.000156752
0.000154427
0.000151974
0.000149879
0.000147901
0.000146043
0.000144243
0.000142232
0.000140494
0.000138739
0.000137119
0.000135693
0.000133807
0.000132386
0.00013121
0.00012965
0.000128617
0.000127282
0.000125886
0.000124564
0.000123359
0.000122254
0.000121089
0.000119923
0.000118611
0.000117388
0.000116126
0.000115054
0.000113882
0.000112875
0.000111612
0.000110453
0.00010949
0.000108619
0.00010763
0.000106592
0.000105553
0.000104577
0.000103607
0.000102705
0.000101989
0.000101116
0.000100252
9.94266e-05
9.86143e-05
9.76371e-05
9.67505e-05
9.57651e-05
9.46197e-05
9.36461e-05
9.26694e-05
9.15576e-05
9.0535e-05
8.95164e-05
8.84093e-05
8.7196e-05
8.61061e-05
8.49865e-05
8.38631e-05
8.27042e-05
8.15669e-05
8.03791e-05
7.91196e-05
0.0069045
0.0115067
0.0149646
0.0176733
0.0198877
0.0217438
0.0232659
0.0244809
0.0254036
0.0260644
0.0264665
0.0265745
0.0264233
0.0260371
)
;

boundaryField
{
    inlet
    {
        type            fixedValue;
        value           uniform 0;
    }
    outlet
    {
        type            zeroGradient;
    }
    yzfaces
    {
        type            empty;
    }
}


// ************************************************************************* //
