/*--------------------------------*- C++ -*----------------------------------*\
| =========                 |                                                 |
| \\      /  F ield         | foam-extend: Open Source CFD                    |
|  \\    /   O peration     | Version:     5.0                                |
|   \\  /    A nd           | Web:         http://www.foam-extend.org         |
|    \\/     M anipulation  |                                                 |
\*---------------------------------------------------------------------------*/
FoamFile
{
    version     2.0;
    format      ascii;
    class       volScalarField;
    location    "6";
    object      Na.water;
}
// * * * * * * * * * * * * * * * * * * * * * * * * * * * * * * * * * * * * * //

dimensions      [0 0 0 0 0 0 0];

internalField   nonuniform List<scalar> 
100
(
0.00805261
0.0110399
0.0130462
0.014423
0.0157687
0.0168062
0.0174252
0.0179698
0.0183734
0.0190071
0.0195656
0.0203502
0.0208957
0.0212162
0.0216165
0.0221015
0.0226095
0.0230365
0.0233127
0.0234808
0.0235711
0.0238343
0.024095
0.0242656
0.0244667
0.0247023
0.0249921
0.0252477
0.0254109
0.0255618
0.0257521
0.0259585
0.0262279
0.0264162
0.0265789
0.0266747
0.026802
0.027007
0.0271969
0.0273781
0.0274243
0.0276632
0.0277889
0.0279184
0.0280986
0.0283041
0.0283702
0.0284707
0.0286082
0.0287029
0.0288175
0.0288893
0.0290293
0.0292417
0.029339
0.0294516
0.0295657
0.0296996
0.0297775
0.0298378
0.029923
0.0300357
0.0301567
0.0302812
0.0303493
0.0304455
0.0305672
0.0305869
0.0306714
0.0307636
0.0308938
0.0309859
0.0310692
0.0311836
0.0312402
0.0313794
0.0314627
0.0316049
0.0316759
0.0318134
0.0319424
0.032057
0.0321793
0.0323186
0.0324167
0.0325377
0.0335836
0.0338039
0.0339842
0.0341073
0.0342457
0.0344222
0.0345709
0.0347641
0.0349545
0.0351618
0.0353876
0.035612
0.0358523
0.0360709
)
;

boundaryField
{
    inlet
    {
        type            fixedValue;
        value           uniform 0;
    }
    outlet
    {
        type            zeroGradient;
    }
    yzfaces
    {
        type            empty;
    }
}


// ************************************************************************* //
