/*--------------------------------*- C++ -*----------------------------------*\
| =========                 |                                                 |
| \\      /  F ield         | foam-extend: Open Source CFD                    |
|  \\    /   O peration     | Version:     5.0                                |
|   \\  /    A nd           | Web:         http://www.foam-extend.org         |
|    \\/     M anipulation  |                                                 |
\*---------------------------------------------------------------------------*/
FoamFile
{
    version     2.0;
    format      ascii;
    class       volVectorField;
    location    "6";
    object      U.gas;
}
// * * * * * * * * * * * * * * * * * * * * * * * * * * * * * * * * * * * * * //

dimensions      [0 1 -1 0 0 0 0];

internalField   nonuniform List<vector> 
100
(
(0.00623888 0 0)
(0.00679784 0 0)
(0.00724952 0 0)
(0.00766026 0 0)
(0.00793159 0 0)
(0.00813841 0 0)
(0.00835477 0 0)
(0.00860623 0 0)
(0.00886313 0 0)
(0.00903936 0 0)
(0.00925778 0 0)
(0.0094596 0 0)
(0.00965031 0 0)
(0.00978736 0 0)
(0.00991542 0 0)
(0.0100997 0 0)
(0.0102063 0 0)
(0.0103272 0 0)
(0.0104231 0 0)
(0.0104847 0 0)
(0.0105441 0 0)
(0.0106631 0 0)
(0.0107337 0 0)
(0.0108136 0 0)
(0.0109644 0 0)
(0.0110541 0 0)
(0.0111225 0 0)
(0.0112027 0 0)
(0.0112881 0 0)
(0.0114036 0 0)
(0.0115047 0 0)
(0.0115921 0 0)
(0.011688 0 0)
(0.0117565 0 0)
(0.0117755 0 0)
(0.0118301 0 0)
(0.0119035 0 0)
(0.0119707 0 0)
(0.0120567 0 0)
(0.0121243 0 0)
(0.0122131 0 0)
(0.0122656 0 0)
(0.0123303 0 0)
(0.0124032 0 0)
(0.0124309 0 0)
(0.0124314 0 0)
(0.0124756 0 0)
(0.0125504 0 0)
(0.0126027 0 0)
(0.0126874 0 0)
(0.0127693 0 0)
(0.0127954 0 0)
(0.0128339 0 0)
(0.0128793 0 0)
(0.0129226 0 0)
(0.0129347 0 0)
(0.0129598 0 0)
(0.0129675 0 0)
(0.0129608 0 0)
(0.0129897 0 0)
(0.01304 0 0)
(0.0130811 0 0)
(0.0130806 0 0)
(0.0130543 0 0)
(0.0130493 0 0)
(0.0130687 0 0)
(0.0131037 0 0)
(0.0131469 0 0)
(0.0131505 0 0)
(0.0131502 0 0)
(0.0131301 0 0)
(0.0131341 0 0)
(0.0131336 0 0)
(0.0131118 0 0)
(0.0131304 0 0)
(0.0131331 0 0)
(0.0131264 0 0)
(0.0130982 0 0)
(0.0130871 0 0)
(0.0130766 0 0)
(0.0130637 0 0)
(0.013037 0 0)
(0.0130287 0 0)
(0.0130072 0 0)
(0.0129794 0 0)
(0.012957 0 0)
(0.0129148 0 0)
(0.0128733 0 0)
(0.0128319 0 0)
(0.0127817 0 0)
(0.012732 0 0)
(0.0126737 0 0)
(0.0126039 0 0)
(0.012521 0 0)
(0.0124212 0 0)
(0.0123117 0 0)
(0.0121866 0 0)
(0.0120355 0 0)
(0.0118445 0 0)
(0.011642 0 0)
)
;

boundaryField
{
    inlet
    {
        type            fixedValue;
        value           uniform (0.005 0 0);
    }
    outlet
    {
        type            zeroGradient;
    }
    yzfaces
    {
        type            empty;
    }
}


// ************************************************************************* //
