/*--------------------------------*- C++ -*----------------------------------*\
| =========                 |                                                 |
| \\      /  F ield         | foam-extend: Open Source CFD                    |
|  \\    /   O peration     | Version:     5.0                                |
|   \\  /    A nd           | Web:         http://www.foam-extend.org         |
|    \\/     M anipulation  |                                                 |
\*---------------------------------------------------------------------------*/
FoamFile
{
    version     2.0;
    format      ascii;
    class       volScalarField;
    location    "9";
    object      Cl.water;
}
// * * * * * * * * * * * * * * * * * * * * * * * * * * * * * * * * * * * * * //

dimensions      [0 0 0 0 0 0 0];

internalField   nonuniform List<scalar> 
100
(
0.0061584
0.00886768
0.0110253
0.0125403
0.0134718
0.0145269
0.0153402
0.0162848
0.01665
0.0167554
0.0170472
0.0175233
0.0180575
0.0185047
0.0188949
0.0192526
0.0196739
0.020143
0.020513
0.0209638
0.0212275
0.0215964
0.0218641
0.0222063
0.0224089
0.0225596
0.0229127
0.0231674
0.0232517
0.023317
0.023317
0.0234403
0.0235963
0.0236911
0.0238305
0.0240454
0.0242733
0.0244794
0.0246706
0.0248115
0.0249375
0.0251133
0.0253127
0.0254576
0.0255907
0.0256022
0.0257055
0.0258379
0.0259486
0.0261076
0.026267
0.0264288
0.0265592
0.0266228
0.026731
0.0268817
0.0269822
0.0271156
0.0272133
0.0273119
0.0274192
0.0275238
0.0275979
0.0276979
0.0277814
0.0278915
0.0279683
0.028127
0.0281842
0.0282887
0.02836
0.0284306
0.0285304
0.0285832
0.0287055
0.0288081
0.0289007
0.0289999
0.0291382
0.0291895
0.0292208
0.0292537
0.029291
0.0293963
0.0294857
0.0296045
0.0296614
0.0296595
0.029713
0.029783
0.0298564
0.0299001
0.0299449
0.0299951
0.0300675
0.0301367
0.0301734
0.0302266
0.0303009
0.0303327
)
;

boundaryField
{
    inlet
    {
        type            fixedValue;
        value           uniform 0;
    }
    outlet
    {
        type            zeroGradient;
    }
    yzfaces
    {
        type            empty;
    }
}


// ************************************************************************* //
