/*--------------------------------*- C++ -*----------------------------------*\
| =========                 |                                                 |
| \\      /  F ield         | foam-extend: Open Source CFD                    |
|  \\    /   O peration     | Version:     5.0                                |
|   \\  /    A nd           | Web:         http://www.foam-extend.org         |
|    \\/     M anipulation  |                                                 |
\*---------------------------------------------------------------------------*/
FoamFile
{
    version     2.0;
    format      ascii;
    class       volScalarField;
    location    "9";
    object      CO2.gas;
}
// * * * * * * * * * * * * * * * * * * * * * * * * * * * * * * * * * * * * * //

dimensions      [0 0 0 0 0 0 0];

internalField   nonuniform List<scalar> 
100
(
0.166949
0.155533
0.147976
0.143907
0.138769
0.13284
0.127373
0.124117
0.124141
0.122411
0.118295
0.114809
0.111416
0.108366
0.106135
0.103776
0.101628
0.099577
0.0974904
0.0964125
0.0949589
0.0935917
0.09198
0.0906499
0.089153
0.0881586
0.0873292
0.0867345
0.0862001
0.0856043
0.0850716
0.0843935
0.083795
0.0830379
0.0820665
0.0810007
0.0798884
0.078796
0.0780411
0.0772287
0.0765426
0.0758404
0.0750878
0.0746099
0.0739531
0.07324
0.0726807
0.0720907
0.0715817
0.0709703
0.0704917
0.0699706
0.0694146
0.0689954
0.0686142
0.0679788
0.0674926
0.0670013
0.0665234
0.0659893
0.0655288
0.0650431
0.064597
0.0641563
0.0637918
0.0634476
0.0629146
0.0624417
0.0619297
0.0615608
0.061187
0.060889
0.0604668
0.06002
0.0595893
0.0591466
0.0587888
0.0584309
0.0581635
0.0577251
0.0573181
0.0569438
0.056624
0.0563029
0.0560489
0.0556727
0.0553815
0.05504
0.0547331
0.0544726
0.0542086
0.053908
0.0535931
0.0532895
0.0530632
0.0527652
0.0524468
0.0521866
0.0519269
0.0515544
)
;

boundaryField
{
    inlet
    {
        type            fixedValue;
        value           uniform 0.2;
    }
    outlet
    {
        type            zeroGradient;
    }
    yzfaces
    {
        type            empty;
    }
}


// ************************************************************************* //
