/*--------------------------------*- C++ -*----------------------------------*\
| =========                 |                                                 |
| \\      /  F ield         | foam-extend: Open Source CFD                    |
|  \\    /   O peration     | Version:     5.0                                |
|   \\  /    A nd           | Web:         http://www.foam-extend.org         |
|    \\/     M anipulation  |                                                 |
\*---------------------------------------------------------------------------*/
FoamFile
{
    version     2.0;
    format      ascii;
    class       volScalarField;
    location    "9";
    object      Na.water;
}
// * * * * * * * * * * * * * * * * * * * * * * * * * * * * * * * * * * * * * //

dimensions      [0 0 0 0 0 0 0];

internalField   nonuniform List<scalar> 
100
(
0.00615845
0.00887041
0.0110233
0.0125405
0.0134789
0.0145338
0.0153469
0.0162854
0.0166469
0.0167518
0.0170485
0.0175214
0.0180594
0.0184959
0.018885
0.0192365
0.0196583
0.0201199
0.0204924
0.0209385
0.0212039
0.0215648
0.0218494
0.02221
0.022427
0.0225854
0.0229453
0.0231841
0.0232547
0.0233183
0.0233295
0.0234554
0.0236176
0.0237127
0.0238235
0.0240505
0.0242899
0.0244984
0.0246868
0.0248294
0.0249462
0.0251135
0.0253157
0.0254592
0.0255897
0.025599
0.0257041
0.0258429
0.0259604
0.0261163
0.0262872
0.0264405
0.0265625
0.0266196
0.0267255
0.0268788
0.0269728
0.0271018
0.0271933
0.0272885
0.0274004
0.0275108
0.0275937
0.0276867
0.0277857
0.0278781
0.0279684
0.0281138
0.0281701
0.0282739
0.0283445
0.0284266
0.0285158
0.0285664
0.0286902
0.0287919
0.0288812
0.0289747
0.0291092
0.0291564
0.0291985
0.029233
0.0292795
0.0293888
0.0294766
0.0295944
0.0296452
0.0296443
0.0296863
0.0297696
0.0298496
0.0298945
0.0299369
0.0299969
0.0300655
0.0301523
0.0301916
0.0302411
0.0303107
0.0303608
)
;

boundaryField
{
    inlet
    {
        type            fixedValue;
        value           uniform 0;
    }
    outlet
    {
        type            zeroGradient;
    }
    yzfaces
    {
        type            empty;
    }
}


// ************************************************************************* //
