/*--------------------------------*- C++ -*----------------------------------*\
| =========                 |                                                 |
| \\      /  F ield         | foam-extend: Open Source CFD                    |
|  \\    /   O peration     | Version:     5.0                                |
|   \\  /    A nd           | Web:         http://www.foam-extend.org         |
|    \\/     M anipulation  |                                                 |
\*---------------------------------------------------------------------------*/
FoamFile
{
    version     2.0;
    format      ascii;
    class       surfaceScalarField;
    location    "9";
    object      phi.water;
}
// * * * * * * * * * * * * * * * * * * * * * * * * * * * * * * * * * * * * * //

dimensions      [0 3 -1 0 0 0 0];

internalField   nonuniform List<scalar> 
99
(
6.90261e-08
1.15879e-07
1.56912e-07
1.74949e-07
2.04192e-07
2.43422e-07
2.92873e-07
3.26088e-07
3.16215e-07
3.24399e-07
3.63003e-07
3.98155e-07
4.41618e-07
4.82412e-07
5.16677e-07
5.48594e-07
5.83751e-07
6.17423e-07
6.59808e-07
6.77874e-07
7.067e-07
7.29249e-07
7.65405e-07
7.88959e-07
8.27138e-07
8.46249e-07
8.68442e-07
8.86572e-07
8.98158e-07
9.0949e-07
9.21066e-07
9.37508e-07
9.51934e-07
9.69236e-07
9.92267e-07
1.01388e-06
1.0531e-06
1.08603e-06
1.11456e-06
1.14066e-06
1.16159e-06
1.18392e-06
1.21498e-06
1.23166e-06
1.25547e-06
1.2812e-06
1.30145e-06
1.32634e-06
1.34748e-06
1.37077e-06
1.38969e-06
1.41165e-06
1.44145e-06
1.46279e-06
1.47007e-06
1.50002e-06
1.5182e-06
1.54089e-06
1.55897e-06
1.58893e-06
1.61212e-06
1.63674e-06
1.66125e-06
1.68447e-06
1.70308e-06
1.71649e-06
1.74369e-06
1.76441e-06
1.7961e-06
1.81488e-06
1.83621e-06
1.84507e-06
1.86494e-06
1.88514e-06
1.90773e-06
1.93133e-06
1.95263e-06
1.97305e-06
1.9879e-06
2.01254e-06
2.04226e-06
2.06953e-06
2.08763e-06
2.10502e-06
2.11745e-06
2.14158e-06
2.14931e-06
2.17535e-06
2.19657e-06
2.21225e-06
2.23253e-06
2.25136e-06
2.27483e-06
2.29447e-06
2.30118e-06
2.31558e-06
2.33096e-06
2.34434e-06
2.35421e-06
)
;

boundaryField
{
    inlet
    {
        type            fixedValue;
        value           uniform 0;
    }
    outlet
    {
        type            calculated;
        value           uniform 2.38276e-06;
    }
    yzfaces
    {
        type            empty;
    }
}


// ************************************************************************* //
