/*--------------------------------*- C++ -*----------------------------------*\
| =========                 |                                                 |
| \\      /  F ield         | foam-extend: Open Source CFD                    |
|  \\    /   O peration     | Version:     5.0                                |
|   \\  /    A nd           | Web:         http://www.foam-extend.org         |
|    \\/     M anipulation  |                                                 |
\*---------------------------------------------------------------------------*/
FoamFile
{
    version     2.0;
    format      ascii;
    class       volVectorField;
    location    "9";
    object      U.gas;
}
// * * * * * * * * * * * * * * * * * * * * * * * * * * * * * * * * * * * * * //

dimensions      [0 1 -1 0 0 0 0];

internalField   nonuniform List<vector> 
100
(
(0.00596066 0 0)
(0.00640034 0 0)
(0.00676475 0 0)
(0.00697246 0 0)
(0.0072288 0 0)
(0.0074618 0 0)
(0.00773906 0 0)
(0.00791529 0 0)
(0.00799906 0 0)
(0.00814597 0 0)
(0.00829606 0 0)
(0.00848054 0 0)
(0.00864199 0 0)
(0.00884046 0 0)
(0.0090453 0 0)
(0.00921662 0 0)
(0.00940414 0 0)
(0.0095824 0 0)
(0.00976463 0 0)
(0.00993362 0 0)
(0.0100307 0 0)
(0.0101237 0 0)
(0.0102724 0 0)
(0.0104082 0 0)
(0.0105137 0 0)
(0.0106162 0 0)
(0.0107126 0 0)
(0.0107592 0 0)
(0.0107645 0 0)
(0.0107444 0 0)
(0.0108001 0 0)
(0.0108912 0 0)
(0.0109639 0 0)
(0.0110276 0 0)
(0.0111423 0 0)
(0.0112601 0 0)
(0.0113215 0 0)
(0.0113837 0 0)
(0.0114238 0 0)
(0.0115008 0 0)
(0.0115676 0 0)
(0.0116195 0 0)
(0.011657 0 0)
(0.011678 0 0)
(0.0117221 0 0)
(0.011773 0 0)
(0.0118109 0 0)
(0.0118487 0 0)
(0.0118832 0 0)
(0.0119291 0 0)
(0.0119701 0 0)
(0.0120087 0 0)
(0.0120424 0 0)
(0.0120881 0 0)
(0.0121397 0 0)
(0.0121733 0 0)
(0.0122211 0 0)
(0.0122714 0 0)
(0.0123277 0 0)
(0.0123802 0 0)
(0.0124386 0 0)
(0.0124793 0 0)
(0.0125217 0 0)
(0.0125612 0 0)
(0.0125989 0 0)
(0.0126468 0 0)
(0.012705 0 0)
(0.0127536 0 0)
(0.0128022 0 0)
(0.0128376 0 0)
(0.0128599 0 0)
(0.0128614 0 0)
(0.0128461 0 0)
(0.0128709 0 0)
(0.0128888 0 0)
(0.0129138 0 0)
(0.0129384 0 0)
(0.0129871 0 0)
(0.0130314 0 0)
(0.0130247 0 0)
(0.0130145 0 0)
(0.0130255 0 0)
(0.0130643 0 0)
(0.0130976 0 0)
(0.013117 0 0)
(0.0131149 0 0)
(0.0131253 0 0)
(0.0131655 0 0)
(0.0132069 0 0)
(0.0132058 0 0)
(0.0131819 0 0)
(0.0131566 0 0)
(0.013162 0 0)
(0.0131961 0 0)
(0.0132051 0 0)
(0.0131961 0 0)
(0.013196 0 0)
(0.0132075 0 0)
(0.0131964 0 0)
(0.0132359 0 0)
)
;

boundaryField
{
    inlet
    {
        type            fixedValue;
        value           uniform (0.005 0 0);
    }
    outlet
    {
        type            zeroGradient;
    }
    yzfaces
    {
        type            empty;
    }
}


// ************************************************************************* //
