/*--------------------------------*- C++ -*----------------------------------*\
| =========                 |                                                 |
| \\      /  F ield         | foam-extend: Open Source CFD                    |
|  \\    /   O peration     | Version:     5.0                                |
|   \\  /    A nd           | Web:         http://www.foam-extend.org         |
|    \\/     M anipulation  |                                                 |
\*---------------------------------------------------------------------------*/
FoamFile
{
    version     2.0;
    format      ascii;
    class       volScalarField;
    location    "9";
    object      alpha.gas;
}
// * * * * * * * * * * * * * * * * * * * * * * * * * * * * * * * * * * * * * //

dimensions      [0 0 0 0 0 0 0];

internalField   nonuniform List<scalar> 
100
(
0.167679
0.154694
0.146616
0.139441
0.136046
0.134553
0.132856
0.129658
0.125497
0.120537
0.116308
0.113436
0.111683
0.109295
0.10652
0.104333
0.102197
0.100036
0.09785
0.0967228
0.0954351
0.093801
0.0921679
0.0908342
0.0894719
0.0879391
0.0869561
0.0864866
0.0862593
0.0860312
0.0857857
0.0848772
0.0840411
0.0831497
0.0822437
0.0811048
0.079859
0.0791563
0.0783375
0.0775635
0.0766984
0.075918
0.0754335
0.0748279
0.0742106
0.0734957
0.0729755
0.0722909
0.0717874
0.0711432
0.0707617
0.0704204
0.0699514
0.0694568
0.0690646
0.0685546
0.0680113
0.0674724
0.0668695
0.0663743
0.0658296
0.0654234
0.06494
0.0645664
0.0641414
0.0636495
0.0631613
0.0626989
0.0622948
0.0617726
0.061526
0.0611273
0.0608344
0.0604376
0.0600255
0.0595605
0.0591435
0.0586771
0.0583038
0.0579935
0.0576897
0.0572837
0.0570181
0.0566688
0.0563004
0.0560079
0.0556499
0.0553452
0.0550626
0.0548255
0.054497
0.0541764
0.0539937
0.053721
0.0534253
0.053016
0.0527336
0.0524324
0.0521066
0.0517702
)
;

boundaryField
{
    inlet
    {
        type            fixedValue;
        value           uniform 0.2;
    }
    outlet
    {
        type            zeroGradient;
    }
    yzfaces
    {
        type            empty;
    }
}


// ************************************************************************* //
