/*--------------------------------*- C++ -*----------------------------------*\
| =========                 |                                                 |
| \\      /  F ield         | foam-extend: Open Source CFD                    |
|  \\    /   O peration     | Version:     5.0                                |
|   \\  /    A nd           | Web:         http://www.foam-extend.org         |
|    \\/     M anipulation  |                                                 |
\*---------------------------------------------------------------------------*/
FoamFile
{
    version     2.0;
    format      ascii;
    class       volScalarField;
    location    "9";
    object      Cl.water;
}
// * * * * * * * * * * * * * * * * * * * * * * * * * * * * * * * * * * * * * //

dimensions      [0 0 0 0 0 0 0];

internalField   nonuniform List<scalar> 
100
(
0.00371127
0.00520236
0.00612929
0.00695368
0.00734492
0.00751729
0.00771108
0.00807802
0.00855635
0.00912596
0.00960976
0.00993959
0.0101405
0.0104152
0.0107343
0.0109903
0.0112316
0.0114826
0.0117326
0.0118614
0.0120121
0.0121998
0.0123867
0.0125434
0.0126938
0.0128679
0.0129792
0.0130303
0.013055
0.0130831
0.013111
0.0132164
0.0133153
0.0134166
0.0135186
0.013651
0.0137914
0.0138741
0.0139684
0.0140584
0.0141583
0.0142495
0.014308
0.0143793
0.0144487
0.014529
0.0145895
0.0146699
0.0147258
0.0148013
0.0148473
0.0148847
0.0149362
0.0149932
0.0150376
0.0150973
0.0151596
0.0152223
0.0152917
0.0153513
0.0154091
0.0154535
0.015511
0.0155565
0.0156068
0.0156613
0.0157175
0.0157658
0.015808
0.0158696
0.0159003
0.0159497
0.0159821
0.0160241
0.0160683
0.0161227
0.0161702
0.0162287
0.0162733
0.0163085
0.0163432
0.0163898
0.0164221
0.0164647
0.0165038
0.0165342
0.0165742
0.0166152
0.016644
0.0166686
0.0167082
0.0167434
0.0167592
0.0167955
0.016833
0.0168791
0.0169101
0.0169457
0.016983
0.01702
)
;

boundaryField
{
    inlet
    {
        type            fixedValue;
        value           uniform 0;
    }
    outlet
    {
        type            zeroGradient;
    }
    yzfaces
    {
        type            empty;
    }
}


// ************************************************************************* //
