/*--------------------------------*- C++ -*----------------------------------*\
| =========                 |                                                 |
| \\      /  F ield         | foam-extend: Open Source CFD                    |
|  \\    /   O peration     | Version:     5.0                                |
|   \\  /    A nd           | Web:         http://www.foam-extend.org         |
|    \\/     M anipulation  |                                                 |
\*---------------------------------------------------------------------------*/
FoamFile
{
    version     2.0;
    format      ascii;
    class       volScalarField;
    location    "9";
    object      Cl.water;
}
// * * * * * * * * * * * * * * * * * * * * * * * * * * * * * * * * * * * * * //

dimensions      [0 0 0 0 0 0 0];

internalField   nonuniform List<scalar> 
100
(
0.00367091
0.00519292
0.00613317
0.00701822
0.00741523
0.00747397
0.00769099
0.00801067
0.00852663
0.00905672
0.00953601
0.00991536
0.0101984
0.0104829
0.0108041
0.0110453
0.0112968
0.0115343
0.0117416
0.011893
0.0120531
0.0122423
0.0124186
0.0125639
0.0127237
0.0128826
0.0130038
0.0130129
0.0130502
0.013074
0.0131328
0.0132298
0.0133442
0.0134605
0.0135655
0.0136933
0.0138199
0.0139146
0.013999
0.0141012
0.0141745
0.0142534
0.0143044
0.0143684
0.014452
0.0145235
0.0145954
0.0146587
0.0147217
0.0147919
0.0148632
0.014906
0.0149505
0.0150061
0.0150626
0.0151228
0.0151911
0.0152481
0.0153088
0.0153642
0.0154162
0.0154495
0.0155025
0.0155533
0.0156103
0.0156522
0.0157084
0.0157547
0.0158123
0.0158614
0.0159006
0.015936
0.0159815
0.0160388
0.0160834
0.0161326
0.0161803
0.0162185
0.0162552
0.0162898
0.0163296
0.0163732
0.0164158
0.0164612
0.0165034
0.0165438
0.0165859
0.0166141
0.0166553
0.0166779
0.0167092
0.0167525
0.0167913
0.0168263
0.016857
0.0168874
0.0169186
0.0169503
0.0169889
0.0170254
)
;

boundaryField
{
    inlet
    {
        type            fixedValue;
        value           uniform 0;
    }
    outlet
    {
        type            zeroGradient;
    }
    yzfaces
    {
        type            empty;
    }
}


// ************************************************************************* //
