/*--------------------------------*- C++ -*----------------------------------*\
| =========                 |                                                 |
| \\      /  F ield         | foam-extend: Open Source CFD                    |
|  \\    /   O peration     | Version:     5.0                                |
|   \\  /    A nd           | Web:         http://www.foam-extend.org         |
|    \\/     M anipulation  |                                                 |
\*---------------------------------------------------------------------------*/
FoamFile
{
    version     2.0;
    format      ascii;
    class       volScalarField;
    location    "9";
    object      CO2.gas;
}
// * * * * * * * * * * * * * * * * * * * * * * * * * * * * * * * * * * * * * //

dimensions      [0 0 0 0 0 0 0];

internalField   nonuniform List<scalar> 
100
(
0.167703
0.154496
0.146331
0.13866
0.135198
0.134691
0.132788
0.130014
0.125522
0.120913
0.116752
0.113465
0.111007
0.108542
0.105762
0.103647
0.101413
0.0993684
0.0975506
0.0962695
0.0948895
0.093241
0.0917202
0.0904623
0.0890607
0.087715
0.0866466
0.0865569
0.0862232
0.0860084
0.0854831
0.0846523
0.0836537
0.0826519
0.081756
0.0806374
0.079518
0.0786871
0.0779817
0.0770899
0.076464
0.0757552
0.0753098
0.0747575
0.0740437
0.073435
0.0727948
0.0721847
0.0716456
0.0710451
0.0704329
0.0700574
0.0696455
0.0691856
0.0687179
0.0682005
0.0676431
0.0671667
0.0666436
0.0661507
0.0656919
0.0654078
0.0649188
0.0644547
0.0639612
0.0635836
0.0630833
0.0626751
0.0621831
0.0617732
0.0614417
0.0611214
0.0607027
0.0602104
0.0598024
0.0593753
0.0589704
0.0586146
0.0582715
0.0579402
0.0576145
0.0572348
0.056913
0.05653
0.0561664
0.0558222
0.0554871
0.0552208
0.0548779
0.0546548
0.0543889
0.0540405
0.0537142
0.0534156
0.0531323
0.0528395
0.0525972
0.0522854
0.0519611
0.0516311
)
;

boundaryField
{
    inlet
    {
        type            fixedValue;
        value           uniform 0.2;
    }
    outlet
    {
        type            zeroGradient;
    }
    yzfaces
    {
        type            empty;
    }
}


// ************************************************************************* //
