/*--------------------------------*- C++ -*----------------------------------*\
| =========                 |                                                 |
| \\      /  F ield         | foam-extend: Open Source CFD                    |
|  \\    /   O peration     | Version:     5.0                                |
|   \\  /    A nd           | Web:         http://www.foam-extend.org         |
|    \\/     M anipulation  |                                                 |
\*---------------------------------------------------------------------------*/
FoamFile
{
    version     2.0;
    format      ascii;
    class       volScalarField;
    location    "9";
    object      H2O.water;
}
// * * * * * * * * * * * * * * * * * * * * * * * * * * * * * * * * * * * * * //

dimensions      [0 0 0 0 0 0 0];

internalField   nonuniform List<scalar> 
100
(
0.023788
0.033634
0.0397212
0.0454399
0.0480207
0.0483988
0.0498175
0.0518859
0.0552347
0.0586708
0.0617729
0.0642232
0.0660556
0.067893
0.0699658
0.0715426
0.0732078
0.0747324
0.0760877
0.0770427
0.0780716
0.0793006
0.0804343
0.0813721
0.0824171
0.0834203
0.0842168
0.0842837
0.0845325
0.0846926
0.0850842
0.0857036
0.0864481
0.087195
0.0878629
0.0886968
0.0895313
0.0901508
0.0906767
0.0913416
0.0918081
0.0923366
0.0926687
0.0930804
0.0936126
0.0940663
0.0945436
0.0949985
0.0954004
0.095848
0.0963045
0.0965844
0.0968915
0.0972343
0.097583
0.0979688
0.0983843
0.0987395
0.0991294
0.0994969
0.099839
0.100051
0.100415
0.100761
0.101129
0.101411
0.101784
0.102088
0.102455
0.10276
0.103008
0.103246
0.103559
0.103926
0.10423
0.104548
0.10485
0.105115
0.105371
0.105618
0.105861
0.106144
0.106384
0.106669
0.10694
0.107197
0.107447
0.107645
0.107901
0.108067
0.108266
0.108525
0.108769
0.108991
0.109202
0.109421
0.109601
0.109834
0.110076
0.110322
)
;

boundaryField
{
    inlet
    {
        type            fixedValue;
        value           uniform 0;
    }
    outlet
    {
        type            zeroGradient;
    }
    yzfaces
    {
        type            empty;
    }
}


// ************************************************************************* //
