/*--------------------------------*- C++ -*----------------------------------*\
| =========                 |                                                 |
| \\      /  F ield         | foam-extend: Open Source CFD                    |
|  \\    /   O peration     | Version:     5.0                                |
|   \\  /    A nd           | Web:         http://www.foam-extend.org         |
|    \\/     M anipulation  |                                                 |
\*---------------------------------------------------------------------------*/
FoamFile
{
    version     2.0;
    format      ascii;
    class       volScalarField;
    location    "9";
    object      H2O.water;
}
// * * * * * * * * * * * * * * * * * * * * * * * * * * * * * * * * * * * * * //

dimensions      [0 0 0 0 0 0 0];

internalField   nonuniform List<scalar> 
100
(
0.0240492
0.0337106
0.0397215
0.0450603
0.0475864
0.0486969
0.04996
0.052339
0.0554355
0.059126
0.0622722
0.0644097
0.0657135
0.0674906
0.0695558
0.0711828
0.0727722
0.0743801
0.0760066
0.0768453
0.0778034
0.0790193
0.0802344
0.0812268
0.0822404
0.0833809
0.0841123
0.0844617
0.0846308
0.0848005
0.0849832
0.0856592
0.0862813
0.0869446
0.0876187
0.0884661
0.0893931
0.0899159
0.0905252
0.0911011
0.0917448
0.0923254
0.0926859
0.0931366
0.0935958
0.0941278
0.0945149
0.0950242
0.0953989
0.0958782
0.0961621
0.096416
0.096765
0.097133
0.0974248
0.0978043
0.0982085
0.0986095
0.0990581
0.0994266
0.0998319
0.100134
0.100494
0.100772
0.101088
0.101454
0.101817
0.102161
0.102462
0.102851
0.103034
0.103331
0.103549
0.103844
0.104151
0.104496
0.104807
0.105154
0.105432
0.105662
0.105889
0.106191
0.106388
0.106648
0.106922
0.10714
0.107406
0.107633
0.107843
0.10802
0.108264
0.108503
0.108639
0.108841
0.109062
0.109366
0.109576
0.1098
0.110043
0.110293
)
;

boundaryField
{
    inlet
    {
        type            fixedValue;
        value           uniform 0;
    }
    outlet
    {
        type            zeroGradient;
    }
    yzfaces
    {
        type            empty;
    }
}


// ************************************************************************* //
