/*--------------------------------*- C++ -*----------------------------------*\
| =========                 |                                                 |
| \\      /  F ield         | foam-extend: Open Source CFD                    |
|  \\    /   O peration     | Version:     5.0                                |
|   \\  /    A nd           | Web:         http://www.foam-extend.org         |
|    \\/     M anipulation  |                                                 |
\*---------------------------------------------------------------------------*/
FoamFile
{
    version     2.0;
    format      ascii;
    class       volScalarField;
    location    "9";
    object      H2O.gas;
}
// * * * * * * * * * * * * * * * * * * * * * * * * * * * * * * * * * * * * * //

dimensions      [0 0 0 0 0 0 0];

internalField   nonuniform List<scalar> 
100
(
0.000327233
0.000301463
0.000285531
0.000270563
0.000263808
0.000262819
0.000259105
0.000253692
0.000244927
0.000235933
0.000227814
0.000221401
0.000216605
0.000211796
0.000206371
0.000202244
0.000197885
0.000193895
0.000190348
0.000187848
0.000185155
0.000181938
0.000178971
0.000176516
0.000173781
0.000171156
0.000169071
0.000168896
0.000168245
0.000167826
0.000166801
0.00016518
0.000163231
0.000161276
0.000159528
0.000157345
0.000155161
0.00015354
0.000152163
0.000150423
0.000149202
0.000147819
0.00014695
0.000145872
0.000144479
0.000143292
0.000142042
0.000140852
0.0001398
0.000138628
0.000137434
0.000136701
0.000135897
0.000135
0.000134087
0.000133078
0.00013199
0.00013106
0.00013004
0.000129078
0.000128183
0.000127628
0.000126674
0.000125769
0.000124806
0.000124069
0.000123093
0.000122296
0.000121336
0.000120536
0.000119889
0.000119264
0.000118447
0.000117487
0.000116691
0.000115857
0.000115067
0.000114373
0.000113703
0.000113057
0.000112421
0.000111681
0.000111053
0.000110305
0.000109596
0.000108924
0.00010827
0.000107751
0.000107082
0.000106646
0.000106127
0.000105448
0.000104811
0.000104228
0.000103676
0.000103104
0.000102631
0.000102023
0.00010139
0.000100746
)
;

boundaryField
{
    inlet
    {
        type            fixedValue;
        value           uniform 0;
    }
    outlet
    {
        type            zeroGradient;
    }
    yzfaces
    {
        type            empty;
    }
}


// ************************************************************************* //
