/*--------------------------------*- C++ -*----------------------------------*\
| =========                 |                                                 |
| \\      /  F ield         | foam-extend: Open Source CFD                    |
|  \\    /   O peration     | Version:     5.0                                |
|   \\  /    A nd           | Web:         http://www.foam-extend.org         |
|    \\/     M anipulation  |                                                 |
\*---------------------------------------------------------------------------*/
FoamFile
{
    version     2.0;
    format      ascii;
    class       volScalarField;
    location    "9";
    object      H2O.gas;
}
// * * * * * * * * * * * * * * * * * * * * * * * * * * * * * * * * * * * * * //

dimensions      [0 0 0 0 0 0 0];

internalField   nonuniform List<scalar> 
100
(
0.000326549
0.000301262
0.00028553
0.000271557
0.000264945
0.000262038
0.000258732
0.000252506
0.000244401
0.000234742
0.000226507
0.000220913
0.0002175
0.000212849
0.000207444
0.000203185
0.000199025
0.000194817
0.00019056
0.000188365
0.000185857
0.000182675
0.000179494
0.000176897
0.000174244
0.000171259
0.000169345
0.00016843
0.000167988
0.000167543
0.000167065
0.000165296
0.000163668
0.000161932
0.000160167
0.000157949
0.000155523
0.000154155
0.00015256
0.000151053
0.000149368
0.000147848
0.000146905
0.000145725
0.000144523
0.000143131
0.000142118
0.000140784
0.000139804
0.000138549
0.000137806
0.000137142
0.000136228
0.000135265
0.000134501
0.000133508
0.00013245
0.000131401
0.000130226
0.000129262
0.000128201
0.00012741
0.000126469
0.000125741
0.000124914
0.000123956
0.000123005
0.000122104
0.000121317
0.0001203
0.00011982
0.000119044
0.000118473
0.0001177
0.000116898
0.000115992
0.00011518
0.000114272
0.000113545
0.000112941
0.000112349
0.000111558
0.000111041
0.000110361
0.000109643
0.000109074
0.000108376
0.000107783
0.000107233
0.000106771
0.000106131
0.000105507
0.000105151
0.00010462
0.000104044
0.000103247
0.000102697
0.00010211
0.000101476
0.000100821
)
;

boundaryField
{
    inlet
    {
        type            fixedValue;
        value           uniform 0;
    }
    outlet
    {
        type            zeroGradient;
    }
    yzfaces
    {
        type            empty;
    }
}


// ************************************************************************* //
