/*--------------------------------*- C++ -*----------------------------------*\
| =========                 |                                                 |
| \\      /  F ield         | foam-extend: Open Source CFD                    |
|  \\    /   O peration     | Version:     5.0                                |
|   \\  /    A nd           | Web:         http://www.foam-extend.org         |
|    \\/     M anipulation  |                                                 |
\*---------------------------------------------------------------------------*/
FoamFile
{
    version     2.0;
    format      ascii;
    class       volScalarField;
    location    "9";
    object      Ns;
}
// * * * * * * * * * * * * * * * * * * * * * * * * * * * * * * * * * * * * * //

dimensions      [0 -3 0 0 1 0 0];

internalField   nonuniform List<scalar> 
100
(
28.6176
66.395
25.7427
151.828
146.472
217.92
221.963
204.106
114.561
67.0704
96.9081
72.1082
89.7374
57.5647
56.5087
34.9627
16.4623
71.9494
7.77409
35.2512
35.5702
35.8677
59.9462
50.4376
31.0703
56.2552
60.262
82.462
63.7219
57.5424
80.358
23.3262
58.2186
53.2431
31.4052
33.2093
66.0109
42.3771
42.4766
39.1351
70.3548
61.0693
54.4861
60.2244
65.3388
48.2413
45.2807
54.7676
55.356
73.7128
46.2621
41.9769
75.5466
58.4819
47.9928
72.5877
35.6949
61.3633
47.2752
70.8025
45.714
58.7351
42.0093
50.136
57.1006
57.9342
57.236
57.8194
68.2085
69.27
62.8891
62.3456
70.912
64.389
66.9413
56.2584
57.1067
60.8315
62.8632
59.0731
63.9354
54.0381
57.0712
61.2887
53.9711
67.191
60.7355
63.7311
65.2197
74.6577
67.3633
64.1563
61.3296
67.1209
66.2492
66.2772
60.4675
57.3249
59.5737
83.0886
)
;

boundaryField
{
    inlet
    {
        type            fixedValue;
        value           uniform 0;
    }
    outlet
    {
        type            zeroGradient;
    }
    yzfaces
    {
        type            empty;
    }
}


// ************************************************************************* //
