/*--------------------------------*- C++ -*----------------------------------*\
| =========                 |                                                 |
| \\      /  F ield         | foam-extend: Open Source CFD                    |
|  \\    /   O peration     | Version:     5.0                                |
|   \\  /    A nd           | Web:         http://www.foam-extend.org         |
|    \\/     M anipulation  |                                                 |
\*---------------------------------------------------------------------------*/
FoamFile
{
    version     2.0;
    format      ascii;
    class       volVectorField;
    location    "9";
    object      U.gas;
}
// * * * * * * * * * * * * * * * * * * * * * * * * * * * * * * * * * * * * * //

dimensions      [0 1 -1 0 0 0 0];

internalField   nonuniform List<vector> 
100
(
(0.00594146 0 0)
(0.00645397 0 0)
(0.00681366 0 0)
(0.00719681 0 0)
(0.00740558 0 0)
(0.00741755 0 0)
(0.0075176 0 0)
(0.00764743 0 0)
(0.00784943 0 0)
(0.00802718 0 0)
(0.00819191 0 0)
(0.00837331 0 0)
(0.00853263 0 0)
(0.00868366 0 0)
(0.00883005 0 0)
(0.00894601 0 0)
(0.00910222 0 0)
(0.00925686 0 0)
(0.00939839 0 0)
(0.00952311 0 0)
(0.00967113 0 0)
(0.00979067 0 0)
(0.00991095 0 0)
(0.0100527 0 0)
(0.0101912 0 0)
(0.0103074 0 0)
(0.0103992 0 0)
(0.0104334 0 0)
(0.0105104 0 0)
(0.0105363 0 0)
(0.010632 0 0)
(0.0107447 0 0)
(0.0107987 0 0)
(0.0108566 0 0)
(0.0109277 0 0)
(0.0110139 0 0)
(0.0110865 0 0)
(0.0111581 0 0)
(0.0112507 0 0)
(0.0113665 0 0)
(0.0114137 0 0)
(0.0114793 0 0)
(0.0115085 0 0)
(0.0115453 0 0)
(0.0116152 0 0)
(0.011668 0 0)
(0.0117264 0 0)
(0.0117837 0 0)
(0.0118457 0 0)
(0.011906 0 0)
(0.011968 0 0)
(0.011988 0 0)
(0.0120116 0 0)
(0.0120831 0 0)
(0.0121552 0 0)
(0.0122113 0 0)
(0.0122731 0 0)
(0.0123175 0 0)
(0.0123585 0 0)
(0.0123978 0 0)
(0.0124416 0 0)
(0.0124511 0 0)
(0.0125008 0 0)
(0.0125645 0 0)
(0.0126338 0 0)
(0.0126672 0 0)
(0.0127201 0 0)
(0.0127471 0 0)
(0.0127879 0 0)
(0.0128275 0 0)
(0.0128622 0 0)
(0.0128935 0 0)
(0.0129389 0 0)
(0.0129973 0 0)
(0.013022 0 0)
(0.0130403 0 0)
(0.013071 0 0)
(0.013099 0 0)
(0.01313 0 0)
(0.0131606 0 0)
(0.0131909 0 0)
(0.0132226 0 0)
(0.0132416 0 0)
(0.0132835 0 0)
(0.0133121 0 0)
(0.0133191 0 0)
(0.013336 0 0)
(0.0133214 0 0)
(0.0133151 0 0)
(0.0133116 0 0)
(0.0132958 0 0)
(0.0132961 0 0)
(0.0133368 0 0)
(0.0133648 0 0)
(0.0133803 0 0)
(0.0134199 0 0)
(0.0134208 0 0)
(0.0134014 0 0)
(0.0133906 0 0)
(0.0133971 0 0)
)
;

boundaryField
{
    inlet
    {
        type            fixedValue;
        value           uniform (0.005 0 0);
    }
    outlet
    {
        type            zeroGradient;
    }
    yzfaces
    {
        type            empty;
    }
}


// ************************************************************************* //
