/*--------------------------------*- C++ -*----------------------------------*\
| =========                 |                                                 |
| \\      /  F ield         | foam-extend: Open Source CFD                    |
|  \\    /   O peration     | Version:     5.0                                |
|   \\  /    A nd           | Web:         http://www.foam-extend.org         |
|    \\/     M anipulation  |                                                 |
\*---------------------------------------------------------------------------*/
FoamFile
{
    version     2.0;
    format      ascii;
    class       volScalarField;
    location    "7";
    object      alpha.gas;
}
// * * * * * * * * * * * * * * * * * * * * * * * * * * * * * * * * * * * * * //

dimensions      [0 0 0 0 0 0 0];

internalField   nonuniform List<scalar> 
100
(
0.163389
0.149621
0.140659
0.133706
0.127849
0.123068
0.119058
0.115503
0.112576
0.109505
0.10722
0.104614
0.102604
0.100536
0.0985012
0.0964117
0.0943125
0.0925169
0.0906601
0.0892225
0.0880373
0.0864
0.0849275
0.0836013
0.0823506
0.0813676
0.0804785
0.0796552
0.0788561
0.0781811
0.0775044
0.0769086
0.0762093
0.0754016
0.0746488
0.0737719
0.07305
0.0723806
0.0717382
0.0711079
0.0703934
0.0697495
0.0690847
0.0683931
0.0677502
0.0671137
0.0664795
0.0657571
0.0651431
0.064614
0.0639831
0.0634616
0.0628904
0.0623434
0.0618352
0.061348
0.0608873
0.0604469
0.0599561
0.059422
0.0589405
0.0584644
0.0580463
0.0574917
0.0569244
0.0564212
0.055904
0.0553346
0.0547949
0.0543357
0.0538338
0.0534158
0.0529439
0.0525902
0.052163
0.0517182
0.0512988
0.0509053
0.0504689
0.0500808
0.0496672
0.0492886
0.0489328
0.0485233
0.0481217
0.0476964
0.0472525
0.0468318
0.0464003
0.0459792
0.0455649
0.0451316
0.0446581
0.0441826
0.0437209
0.0432678
0.0428193
0.042355
0.0418604
0.0413565
)
;

boundaryField
{
    inlet
    {
        type            fixedValue;
        value           uniform 0.2;
    }
    outlet
    {
        type            zeroGradient;
    }
    yzfaces
    {
        type            empty;
    }
}


// ************************************************************************* //
