/*--------------------------------*- C++ -*----------------------------------*\
| =========                 |                                                 |
| \\      /  F ield         | foam-extend: Open Source CFD                    |
|  \\    /   O peration     | Version:     5.0                                |
|   \\  /    A nd           | Web:         http://www.foam-extend.org         |
|    \\/     M anipulation  |                                                 |
\*---------------------------------------------------------------------------*/
FoamFile
{
    version     2.0;
    format      ascii;
    class       volScalarField;
    location    "7";
    object      Cl.water;
}
// * * * * * * * * * * * * * * * * * * * * * * * * * * * * * * * * * * * * * //

dimensions      [0 0 0 0 0 0 0];

internalField   nonuniform List<scalar> 
100
(
0.00768697
0.0105256
0.0124761
0.013943
0.0151271
0.0162235
0.0170988
0.0178226
0.018493
0.0190609
0.0196134
0.0200813
0.0205731
0.0209708
0.0213734
0.0217707
0.0222217
0.0225566
0.0229712
0.0233052
0.0235328
0.0238571
0.0241541
0.024435
0.0247114
0.0248997
0.025129
0.0253067
0.0254835
0.0256371
0.0258178
0.0259736
0.0261366
0.0262883
0.0264437
0.0265955
0.0267744
0.0269206
0.0270621
0.0271913
0.0273465
0.0274891
0.0276301
0.0277709
0.0278988
0.0280263
0.0281258
0.0282882
0.0284219
0.0285626
0.0286736
0.0287951
0.0288878
0.0290218
0.0291354
0.0292047
0.0293072
0.0293954
0.0294808
0.0295749
0.0296914
0.0297644
0.02984
0.0298795
0.0300131
0.0301721
0.0302721
0.0304095
0.030547
0.0306712
0.0307635
0.0308974
0.0309814
0.0310612
0.0311194
0.0312091
0.031312
0.0314098
0.0314962
0.0315841
0.0316504
0.0317386
0.0318128
0.0318717
0.0319731
0.0320384
0.0321337
0.0322417
0.0322976
0.0323853
0.0324632
0.0325617
0.0326427
0.0327425
0.0328473
0.032948
0.0330396
0.0331279
0.0332307
0.0333652
)
;

boundaryField
{
    inlet
    {
        type            fixedValue;
        value           uniform 0;
    }
    outlet
    {
        type            zeroGradient;
    }
    yzfaces
    {
        type            empty;
    }
}


// ************************************************************************* //
