/*--------------------------------*- C++ -*----------------------------------*\
| =========                 |                                                 |
| \\      /  F ield         | foam-extend: Open Source CFD                    |
|  \\    /   O peration     | Version:     5.0                                |
|   \\  /    A nd           | Web:         http://www.foam-extend.org         |
|    \\/     M anipulation  |                                                 |
\*---------------------------------------------------------------------------*/
FoamFile
{
    version     2.0;
    format      ascii;
    class       volScalarField;
    location    "7";
    object      CO2.gas;
}
// * * * * * * * * * * * * * * * * * * * * * * * * * * * * * * * * * * * * * //

dimensions      [0 0 0 0 0 0 0];

internalField   nonuniform List<scalar> 
100
(
0.16296
0.148475
0.140546
0.133627
0.127315
0.123233
0.119441
0.11574
0.113196
0.109667
0.107733
0.104628
0.102972
0.100745
0.0985591
0.0962978
0.0942233
0.0922046
0.0904252
0.0891064
0.0878454
0.0861046
0.0846232
0.0833156
0.0821405
0.0811132
0.0803851
0.0795858
0.0788489
0.0782097
0.0776222
0.0771224
0.0764566
0.0756116
0.0748569
0.0738913
0.0732447
0.0725634
0.0719145
0.0712639
0.0705426
0.0699231
0.069245
0.0685281
0.0678623
0.0672381
0.0665337
0.0658252
0.0652344
0.0647596
0.0640634
0.0635589
0.0629435
0.0624151
0.0619067
0.0613554
0.0609055
0.0604324
0.0599199
0.0593264
0.0588359
0.0582966
0.0578101
0.0570791
0.0564963
0.0560383
0.0554514
0.0548425
0.0542379
0.0537043
0.0530509
0.0525613
0.05189
0.0513324
0.0506083
0.0498869
0.0491727
0.0484466
0.0475971
0.0467576
0.0458144
0.0448791
0.0439001
0.0427828
0.0416628
0.0404151
0.0391283
0.0378103
0.0363723
0.0349102
0.0334172
0.0318769
0.0302444
0.0286221
0.0269776
0.0253191
0.0236627
0.0219871
0.0203244
0.0186955
)
;

boundaryField
{
    inlet
    {
        type            fixedValue;
        value           uniform 0.2;
    }
    outlet
    {
        type            zeroGradient;
    }
    yzfaces
    {
        type            empty;
    }
}


// ************************************************************************* //
