/*--------------------------------*- C++ -*----------------------------------*\
| =========                 |                                                 |
| \\      /  F ield         | foam-extend: Open Source CFD                    |
|  \\    /   O peration     | Version:     5.0                                |
|   \\  /    A nd           | Web:         http://www.foam-extend.org         |
|    \\/     M anipulation  |                                                 |
\*---------------------------------------------------------------------------*/
FoamFile
{
    version     2.0;
    format      ascii;
    class       volScalarField;
    location    "7";
    object      H2O.gas;
}
// * * * * * * * * * * * * * * * * * * * * * * * * * * * * * * * * * * * * * //

dimensions      [0 0 0 0 0 0 0];

internalField   nonuniform List<scalar> 
100
(
1.25786e-20
1.27136e-19
7.92589e-19
3.70956e-18
1.41999e-17
4.86983e-17
1.53447e-16
4.46979e-16
1.2229e-15
3.12467e-15
7.67307e-15
1.77928e-14
4.00384e-14
8.62865e-14
1.79711e-13
3.63212e-13
7.22838e-13
1.40801e-12
2.71457e-12
5.17851e-12
9.68119e-12
1.77356e-11
3.20502e-11
5.7239e-11
1.01516e-10
1.78093e-10
3.10067e-10
5.31911e-10
9.01449e-10
1.50429e-09
2.47604e-09
4.02556e-09
6.42861e-09
1.01126e-08
1.57361e-08
2.41732e-08
3.69595e-08
5.58367e-08
8.35691e-08
1.23755e-07
1.81404e-07
2.64015e-07
3.80697e-07
5.44109e-07
7.71513e-07
1.08767e-06
1.51965e-06
2.11324e-06
2.92292e-06
4.01757e-06
5.47075e-06
7.42345e-06
9.99291e-06
1.33884e-05
1.78431e-05
2.35845e-05
3.10192e-05
4.05361e-05
5.26304e-05
6.78325e-05
8.70344e-05
0.000111
0.000140697
0.00017631
0.000220274
0.000274132
0.00033884
0.000416691
0.000509426
0.000620517
0.000750348
0.000904764
0.00108332
0.00129299
0.00153278
0.00180984
0.00212885
0.00249042
0.00289435
0.00335048
0.00385735
0.00442072
0.0050482
0.00572691
0.00646928
0.0072628
0.00811551
0.00903787
0.00999736
0.0110205
0.0120929
0.013206
0.0143413
0.0155035
0.0166968
0.0179027
0.0191115
0.0203098
0.0214699
0.0226297
)
;

boundaryField
{
    inlet
    {
        type            fixedValue;
        value           uniform 0;
    }
    outlet
    {
        type            zeroGradient;
    }
    yzfaces
    {
        type            empty;
    }
}


// ************************************************************************* //
