/*--------------------------------*- C++ -*----------------------------------*\
| =========                 |                                                 |
| \\      /  F ield         | foam-extend: Open Source CFD                    |
|  \\    /   O peration     | Version:     5.0                                |
|   \\  /    A nd           | Web:         http://www.foam-extend.org         |
|    \\/     M anipulation  |                                                 |
\*---------------------------------------------------------------------------*/
FoamFile
{
    version     2.0;
    format      ascii;
    class       volScalarField;
    location    "7";
    object      H2O.water;
}
// * * * * * * * * * * * * * * * * * * * * * * * * * * * * * * * * * * * * * //

dimensions      [0 0 0 0 0 0 0];

internalField   nonuniform List<scalar> 
100
(
0.0211409
0.0289413
0.0343306
0.0383622
0.041596
0.0445942
0.047
0.0490155
0.0508978
0.0524727
0.053975
0.055227
0.0565932
0.0577192
0.0588163
0.0599254
0.0611454
0.062009
0.0631244
0.0640392
0.0646716
0.0655208
0.0663644
0.0671378
0.0679206
0.0684516
0.0691137
0.069621
0.0701419
0.070572
0.0710425
0.0714861
0.0719188
0.0723612
0.072804
0.0732152
0.0737051
0.0740643
0.0744302
0.074782
0.0751973
0.0756003
0.0759709
0.0763432
0.076685
0.0770886
0.0773851
0.0778231
0.0782134
0.0785775
0.0788646
0.0791822
0.0794742
0.0798184
0.0801173
0.0803331
0.0806244
0.0808327
0.0811163
0.0813636
0.0816381
0.0818732
0.0820475
0.0821665
0.0825281
0.0829656
0.0832539
0.0836367
0.0839805
0.084303
0.0845642
0.0849362
0.0851766
0.0853906
0.0855501
0.0858219
0.086097
0.0863732
0.0866149
0.086851
0.0870511
0.0872858
0.0874946
0.0876901
0.0879673
0.0881631
0.0884553
0.0887362
0.0888952
0.0890836
0.0893133
0.0895778
0.0898011
0.0901181
0.0904056
0.0906654
0.0909362
0.0911805
0.0914335
0.0918032
)
;

boundaryField
{
    inlet
    {
        type            fixedValue;
        value           uniform 0;
    }
    outlet
    {
        type            zeroGradient;
    }
    yzfaces
    {
        type            empty;
    }
}


// ************************************************************************* //
