/*--------------------------------*- C++ -*----------------------------------*\
| =========                 |                                                 |
| \\      /  F ield         | foam-extend: Open Source CFD                    |
|  \\    /   O peration     | Version:     5.0                                |
|   \\  /    A nd           | Web:         http://www.foam-extend.org         |
|    \\/     M anipulation  |                                                 |
\*---------------------------------------------------------------------------*/
FoamFile
{
    version     2.0;
    format      ascii;
    class       volScalarField;
    location    "7";
    object      Na.water;
}
// * * * * * * * * * * * * * * * * * * * * * * * * * * * * * * * * * * * * * //

dimensions      [0 0 0 0 0 0 0];

internalField   nonuniform List<scalar> 
100
(
0.00768655
0.0105258
0.0124868
0.0139497
0.0151271
0.0162177
0.0171026
0.0178327
0.0185146
0.0190944
0.0196351
0.02009
0.0205792
0.0209817
0.0213686
0.0217698
0.0222204
0.0225546
0.0229609
0.0232889
0.0235142
0.0238337
0.0241417
0.0244282
0.0247172
0.0249101
0.0251402
0.0253123
0.0255074
0.0256544
0.0258215
0.0259738
0.0261371
0.0262961
0.0264529
0.0266218
0.0268089
0.0269569
0.0270849
0.0272019
0.0273377
0.0274858
0.0276188
0.0277536
0.0278862
0.02802
0.0281215
0.0282748
0.0284166
0.0285594
0.028661
0.0287864
0.0288852
0.0290043
0.0291118
0.0291843
0.0292934
0.0293849
0.0294852
0.0295739
0.0296882
0.0297604
0.0298325
0.0298765
0.030012
0.0301644
0.0302767
0.0304222
0.0305516
0.030661
0.0307504
0.0308885
0.0309798
0.0310565
0.0311051
0.0311892
0.0313002
0.0314046
0.0314868
0.0315657
0.0316451
0.0317213
0.0318076
0.0318724
0.0319708
0.032043
0.0321306
0.0322441
0.0323055
0.0323894
0.0324731
0.0325618
0.0326463
0.0327557
0.0328597
0.0329524
0.0330392
0.0331203
0.0332258
0.033355
)
;

boundaryField
{
    inlet
    {
        type            fixedValue;
        value           uniform 0;
    }
    outlet
    {
        type            zeroGradient;
    }
    yzfaces
    {
        type            empty;
    }
}


// ************************************************************************* //
