/*--------------------------------*- C++ -*----------------------------------*\
| =========                 |                                                 |
| \\      /  F ield         | foam-extend: Open Source CFD                    |
|  \\    /   O peration     | Version:     5.0                                |
|   \\  /    A nd           | Web:         http://www.foam-extend.org         |
|    \\/     M anipulation  |                                                 |
\*---------------------------------------------------------------------------*/
FoamFile
{
    version     2.0;
    format      ascii;
    class       surfaceScalarField;
    location    "7";
    object      phi;
}
// * * * * * * * * * * * * * * * * * * * * * * * * * * * * * * * * * * * * * //

dimensions      [0 3 -1 0 0 0 0];

internalField   nonuniform List<scalar> 
99
(
1.22214e-06
1.22296e-06
1.22483e-06
1.22871e-06
1.22495e-06
1.22357e-06
1.23254e-06
1.2351e-06
1.23649e-06
1.2382e-06
1.23252e-06
1.23334e-06
1.23898e-06
1.2407e-06
1.23686e-06
1.23004e-06
1.23224e-06
1.23075e-06
1.23014e-06
1.23145e-06
1.23223e-06
1.23282e-06
1.23585e-06
1.23808e-06
1.23831e-06
1.24042e-06
1.23327e-06
1.23224e-06
1.23071e-06
1.23254e-06
1.23592e-06
1.23241e-06
1.23513e-06
1.23651e-06
1.23431e-06
1.23539e-06
1.23789e-06
1.23869e-06
1.2419e-06
1.2425e-06
1.24734e-06
1.24277e-06
1.2411e-06
1.2403e-06
1.24085e-06
1.2428e-06
1.23777e-06
1.23995e-06
1.24001e-06
1.24101e-06
1.24364e-06
1.24299e-06
1.24443e-06
1.24355e-06
1.24348e-06
1.24517e-06
1.2449e-06
1.24757e-06
1.24673e-06
1.24449e-06
1.24176e-06
1.23926e-06
1.23607e-06
1.23409e-06
1.23317e-06
1.2341e-06
1.23216e-06
1.23598e-06
1.23685e-06
1.23475e-06
1.23763e-06
1.23411e-06
1.23425e-06
1.23356e-06
1.23184e-06
1.23224e-06
1.23456e-06
1.23401e-06
1.23677e-06
1.23975e-06
1.24226e-06
1.24316e-06
1.24256e-06
1.24134e-06
1.24222e-06
1.24242e-06
1.24452e-06
1.24185e-06
1.24467e-06
1.24463e-06
1.24382e-06
1.24142e-06
1.24113e-06
1.24298e-06
1.24367e-06
1.24437e-06
1.24333e-06
1.24204e-06
1.242e-06
)
;

boundaryField
{
    inlet
    {
        type            calculated;
        value           uniform -1.225e-06;
    }
    outlet
    {
        type            calculated;
        value           uniform 1.2438e-06;
    }
    yzfaces
    {
        type            empty;
    }
}


// ************************************************************************* //
