/*--------------------------------*- C++ -*----------------------------------*\
| =========                 |                                                 |
| \\      /  F ield         | foam-extend: Open Source CFD                    |
|  \\    /   O peration     | Version:     5.0                                |
|   \\  /    A nd           | Web:         http://www.foam-extend.org         |
|    \\/     M anipulation  |                                                 |
\*---------------------------------------------------------------------------*/
FoamFile
{
    version     2.0;
    format      ascii;
    class       volVectorField;
    location    "7";
    object      U.gas;
}
// * * * * * * * * * * * * * * * * * * * * * * * * * * * * * * * * * * * * * //

dimensions      [0 1 -1 0 0 0 0];

internalField   nonuniform List<vector> 
100
(
(0.0061045 0 0)
(0.00663932 0 0)
(0.00704482 0 0)
(0.00740093 0 0)
(0.00770988 0 0)
(0.00796028 0 0)
(0.00822079 0 0)
(0.00847972 0 0)
(0.00868035 0 0)
(0.00889884 0 0)
(0.00903796 0 0)
(0.00920758 0 0)
(0.00937348 0 0)
(0.00955658 0 0)
(0.00970365 0 0)
(0.00982509 0 0)
(0.00997345 0 0)
(0.0101174 0 0)
(0.0102617 0 0)
(0.0103776 0 0)
(0.010482 0 0)
(0.0106347 0 0)
(0.0107735 0 0)
(0.0109089 0 0)
(0.0110275 0 0)
(0.0111179 0 0)
(0.011171 0 0)
(0.0112043 0 0)
(0.0112625 0 0)
(0.0113197 0 0)
(0.0114038 0 0)
(0.0114536 0 0)
(0.0115153 0 0)
(0.0116103 0 0)
(0.0116714 0 0)
(0.0117478 0 0)
(0.011823 0 0)
(0.011895 0 0)
(0.0119693 0 0)
(0.0120435 0 0)
(0.0121355 0 0)
(0.0121898 0 0)
(0.012218 0 0)
(0.012267 0 0)
(0.0123188 0 0)
(0.0123846 0 0)
(0.0124233 0 0)
(0.0124739 0 0)
(0.012529 0 0)
(0.0125734 0 0)
(0.0126499 0 0)
(0.0126954 0 0)
(0.0127455 0 0)
(0.01279 0 0)
(0.0128224 0 0)
(0.0128648 0 0)
(0.0129042 0 0)
(0.0129482 0 0)
(0.0129981 0 0)
(0.0130221 0 0)
(0.0130263 0 0)
(0.0130318 0 0)
(0.0130242 0 0)
(0.0130426 0 0)
(0.0130638 0 0)
(0.0130908 0 0)
(0.0131173 0 0)
(0.0131653 0 0)
(0.0132185 0 0)
(0.0132274 0 0)
(0.0132614 0 0)
(0.01327 0 0)
(0.013278 0 0)
(0.0132779 0 0)
(0.0132908 0 0)
(0.0133041 0 0)
(0.0133319 0 0)
(0.0133524 0 0)
(0.0133834 0 0)
(0.0134206 0 0)
(0.0134648 0 0)
(0.0134891 0 0)
(0.0134964 0 0)
(0.0135009 0 0)
(0.0135039 0 0)
(0.0135192 0 0)
(0.0135399 0 0)
(0.0135369 0 0)
(0.0135414 0 0)
(0.0135565 0 0)
(0.0135514 0 0)
(0.0135336 0 0)
(0.0135198 0 0)
(0.0135226 0 0)
(0.0135253 0 0)
(0.0135207 0 0)
(0.0135072 0 0)
(0.0134838 0 0)
(0.013463 0 0)
(0.0134547 0 0)
)
;

boundaryField
{
    inlet
    {
        type            fixedValue;
        value           uniform (0.005 0 0);
    }
    outlet
    {
        type            zeroGradient;
    }
    yzfaces
    {
        type            empty;
    }
}


// ************************************************************************* //
