/*--------------------------------*- C++ -*----------------------------------*\
| =========                 |                                                 |
| \\      /  F ield         | foam-extend: Open Source CFD                    |
|  \\    /   O peration     | Version:     5.0                                |
|   \\  /    A nd           | Web:         http://www.foam-extend.org         |
|    \\/     M anipulation  |                                                 |
\*---------------------------------------------------------------------------*/
FoamFile
{
    version     2.0;
    format      ascii;
    class       volVectorField;
    location    "7";
    object      U.water;
}
// * * * * * * * * * * * * * * * * * * * * * * * * * * * * * * * * * * * * * //

dimensions      [0 1 -1 0 0 0 0];

internalField   nonuniform List<vector> 
100
(
(3.88154e-05 0 0)
(9.15728e-05 0 0)
(0.000137876 0 0)
(0.000179458 0 0)
(0.000218919 0 0)
(0.000256633 0 0)
(0.000293295 0 0)
(0.000328633 0 0)
(0.000361648 0 0)
(0.00039346 0 0)
(0.000424703 0 0)
(0.000453196 0 0)
(0.000486197 0 0)
(0.000516116 0 0)
(0.000546079 0 0)
(0.00057576 0 0)
(0.000609248 0 0)
(0.000644498 0 0)
(0.000677836 0 0)
(0.000711443 0 0)
(0.00073935 0 0)
(0.000768533 0 0)
(0.000805178 0 0)
(0.000839969 0 0)
(0.000872529 0 0)
(0.000902702 0 0)
(0.000925721 0 0)
(0.000946034 0 0)
(0.000967206 0 0)
(0.000988517 0 0)
(0.00100977 0 0)
(0.00102849 0 0)
(0.00104678 0 0)
(0.00107062 0 0)
(0.00109486 0 0)
(0.00112005 0 0)
(0.00114875 0 0)
(0.00117444 0 0)
(0.00119934 0 0)
(0.00122313 0 0)
(0.00124996 0 0)
(0.00127551 0 0)
(0.00129661 0 0)
(0.0013209 0 0)
(0.00134679 0 0)
(0.00137382 0 0)
(0.00139741 0 0)
(0.00142328 0 0)
(0.00145378 0 0)
(0.00147905 0 0)
(0.00150544 0 0)
(0.00153276 0 0)
(0.00155862 0 0)
(0.00158459 0 0)
(0.00160852 0 0)
(0.00163392 0 0)
(0.00165801 0 0)
(0.00168151 0 0)
(0.00170494 0 0)
(0.00172877 0 0)
(0.00175115 0 0)
(0.00177175 0 0)
(0.00179166 0 0)
(0.00181314 0 0)
(0.00184096 0 0)
(0.00186969 0 0)
(0.00189682 0 0)
(0.00192798 0 0)
(0.00196284 0 0)
(0.00199154 0 0)
(0.0020198 0 0)
(0.00204693 0 0)
(0.00207067 0 0)
(0.00209606 0 0)
(0.0021172 0 0)
(0.00214243 0 0)
(0.00217178 0 0)
(0.0021991 0 0)
(0.0022272 0 0)
(0.0022593 0 0)
(0.0022903 0 0)
(0.00231966 0 0)
(0.0023444 0 0)
(0.00236819 0 0)
(0.00239577 0 0)
(0.00242492 0 0)
(0.00245689 0 0)
(0.00248672 0 0)
(0.00251682 0 0)
(0.00254981 0 0)
(0.00257859 0 0)
(0.00260602 0 0)
(0.00263623 0 0)
(0.00267273 0 0)
(0.00271067 0 0)
(0.00274681 0 0)
(0.00278034 0 0)
(0.00281221 0 0)
(0.00284764 0 0)
(0.00288806 0 0)
)
;

boundaryField
{
    inlet
    {
        type            fixedValue;
        value           uniform (0 0 0);
    }
    outlet
    {
        type            zeroGradient;
    }
    yzfaces
    {
        type            empty;
    }
}


// ************************************************************************* //
