/*--------------------------------*- C++ -*----------------------------------*\
| =========                 |                                                 |
| \\      /  F ield         | foam-extend: Open Source CFD                    |
|  \\    /   O peration     | Version:     5.0                                |
|   \\  /    A nd           | Web:         http://www.foam-extend.org         |
|    \\/     M anipulation  |                                                 |
\*---------------------------------------------------------------------------*/
FoamFile
{
    version     2.0;
    format      ascii;
    class       volScalarField;
    location    "5";
    object      alpha.water;
}
// * * * * * * * * * * * * * * * * * * * * * * * * * * * * * * * * * * * * * //

dimensions      [0 0 0 0 0 0 0];

internalField   nonuniform List<scalar> 
100
(
0.00132652
0.00217688
0.00292468
0.00364117
0.00427145
0.00484572
0.00543793
0.006062
0.00671082
0.00730689
0.00781331
0.00834385
0.00892297
0.00949589
0.00998944
0.0105089
0.0110423
0.0115308
0.012006
0.0125217
0.0130075
0.0134659
0.0139668
0.0144051
0.0148643
0.0153702
0.0158007
0.0162736
0.0167238
0.017199
0.0176958
0.0182491
0.0188155
0.0193891
0.0199492
0.020465
0.0209752
0.0214445
0.0219057
0.0223317
0.0227525
0.0231212
0.0235144
0.023853
0.0242127
0.0245262
0.0247973
0.0249557
0.0249745
0.0249768
0.0249677
0.0249823
0.0249753
0.0249676
0.0250104
0.0251501
0.0253882
0.025601
0.0258578
0.0261248
0.0264046
0.0267188
0.0270159
0.0273534
0.0276774
0.0280033
0.0283526
0.0287309
0.0291289
0.0295597
0.0300171
0.0304979
0.0309332
0.0313538
0.0317384
0.0320884
0.0324237
0.0327331
0.0330542
0.0333503
0.0336431
0.0339347
0.0342215
0.0344905
0.0347868
0.0350488
0.035334
0.0356404
0.0359293
0.0361878
0.0364154
0.0366066
0.0367357
0.0368274
0.0368755
0.0369391
0.0370402
0.0371699
0.037336
0.0375419
)
;

boundaryField
{
    inlet
    {
        type            fixedValue;
        value           uniform 0;
    }
    outlet
    {
        type            zeroGradient;
    }
    yzfaces
    {
        type            empty;
    }
}


// ************************************************************************* //
