/*--------------------------------*- C++ -*----------------------------------*\
| =========                 |                                                 |
| \\      /  F ield         | foam-extend: Open Source CFD                    |
|  \\    /   O peration     | Version:     5.0                                |
|   \\  /    A nd           | Web:         http://www.foam-extend.org         |
|    \\/     M anipulation  |                                                 |
\*---------------------------------------------------------------------------*/
FoamFile
{
    version     2.0;
    format      ascii;
    class       volScalarField;
    location    "5";
    object      CO2.water;
}
// * * * * * * * * * * * * * * * * * * * * * * * * * * * * * * * * * * * * * //

dimensions      [0 0 0 0 0 0 0];

internalField   nonuniform List<scalar> 
100
(
3.48404e-05
5.71747e-05
7.68153e-05
9.56337e-05
0.000112188
0.000127271
0.000142825
0.000159216
0.000176257
0.000191912
0.000205213
0.000219147
0.000234358
0.000249405
0.000262368
0.000276011
0.000290021
0.000302852
0.000315331
0.000328877
0.000341635
0.000353675
0.000366832
0.000378344
0.000390405
0.00040369
0.000414998
0.000427417
0.000439243
0.000451724
0.000464773
0.000479305
0.00049418
0.000509245
0.000523957
0.000537503
0.000550903
0.000563229
0.000575343
0.000586532
0.000597585
0.000607268
0.000617595
0.000626487
0.000635936
0.00064417
0.000651289
0.000655449
0.000655945
0.000656005
0.000655766
0.000656148
0.000655964
0.000655762
0.000656887
0.000660557
0.00066681
0.000672398
0.000679143
0.000686156
0.000693505
0.000701757
0.000709561
0.000718424
0.000726935
0.000735494
0.000744668
0.000754603
0.000765058
0.000776372
0.000788384
0.000801013
0.000812448
0.000823493
0.000833593
0.000842788
0.000851593
0.00085972
0.000868153
0.000875931
0.00088362
0.000891279
0.000898813
0.000905878
0.00091366
0.00092054
0.00092803
0.000936079
0.000943666
0.000950455
0.000956433
0.000961455
0.000964845
0.000967256
0.000968517
0.000970188
0.000972844
0.000976251
0.000980612
0.00098602
)
;

boundaryField
{
    inlet
    {
        type            fixedValue;
        value           uniform 0;
    }
    outlet
    {
        type            zeroGradient;
    }
    yzfaces
    {
        type            empty;
    }
}


// ************************************************************************* //
