/*--------------------------------*- C++ -*----------------------------------*\
| =========                 |                                                 |
| \\      /  F ield         | foam-extend: Open Source CFD                    |
|  \\    /   O peration     | Version:     5.0                                |
|   \\  /    A nd           | Web:         http://www.foam-extend.org         |
|    \\/     M anipulation  |                                                 |
\*---------------------------------------------------------------------------*/
FoamFile
{
    version     2.0;
    format      ascii;
    class       volScalarField;
    location    "5";
    object      H2O.water;
}
// * * * * * * * * * * * * * * * * * * * * * * * * * * * * * * * * * * * * * //

dimensions      [0 0 0 0 0 0 0];

internalField   nonuniform List<scalar> 
100
(
0.00129168
0.0021197
0.00284786
0.00354554
0.00415926
0.00471845
0.0052951
0.00590279
0.00653457
0.00711498
0.00760809
0.0081247
0.00868862
0.00924648
0.00972707
0.0102329
0.0107523
0.011228
0.0116906
0.0121928
0.0126658
0.0131122
0.0136
0.0140268
0.0144739
0.0149665
0.0153857
0.0158461
0.0162846
0.0167473
0.0172311
0.0177698
0.0183213
0.0188798
0.0194253
0.0199275
0.0204243
0.0208812
0.0213304
0.0217452
0.022155
0.0225139
0.0228968
0.0232265
0.0235768
0.0238821
0.024146
0.0243002
0.0243186
0.0243208
0.0243119
0.0243261
0.0243193
0.0243118
0.0243535
0.0244896
0.0247214
0.0249286
0.0251786
0.0254387
0.0257111
0.026017
0.0263064
0.026635
0.0269505
0.0272678
0.0276079
0.0279763
0.0283639
0.0287833
0.0292287
0.0296969
0.0301208
0.0305303
0.0309048
0.0312456
0.0315721
0.0318734
0.032186
0.0324744
0.0327595
0.0330434
0.0333227
0.0335847
0.0338732
0.0341282
0.0344059
0.0347043
0.0349856
0.0352373
0.0354589
0.0356451
0.0357708
0.0358602
0.0359069
0.0359689
0.0360674
0.0361937
0.0363554
0.0365558
)
;

boundaryField
{
    inlet
    {
        type            fixedValue;
        value           uniform 0;
    }
    outlet
    {
        type            zeroGradient;
    }
    yzfaces
    {
        type            empty;
    }
}


// ************************************************************************* //
