/*--------------------------------*- C++ -*----------------------------------*\
| =========                 |                                                 |
| \\      /  F ield         | foam-extend: Open Source CFD                    |
|  \\    /   O peration     | Version:     5.0                                |
|   \\  /    A nd           | Web:         http://www.foam-extend.org         |
|    \\/     M anipulation  |                                                 |
\*---------------------------------------------------------------------------*/
FoamFile
{
    version     2.0;
    format      ascii;
    class       volScalarField;
    location    "5";
    object      H2O.gas;
}
// * * * * * * * * * * * * * * * * * * * * * * * * * * * * * * * * * * * * * //

dimensions      [0 0 0 0 0 0 0];

internalField   nonuniform List<scalar> 
100
(
0.000386911
0.000385255
0.000383798
0.000382403
0.000381176
0.000380057
0.000378904
0.000377689
0.000376425
0.000375264
0.000374278
0.000373245
0.000372117
0.000371001
0.00037004
0.000369028
0.00036799
0.000367038
0.000366113
0.000365108
0.000364163
0.00036327
0.000362294
0.000361441
0.000360546
0.000359561
0.000358723
0.000357802
0.000356925
0.000356
0.000355032
0.000353955
0.000352852
0.000351735
0.000350644
0.000349639
0.000348646
0.000347732
0.000346833
0.000346004
0.000345184
0.000344466
0.000343701
0.000343041
0.000342341
0.00034173
0.000341202
0.000340894
0.000340857
0.000340853
0.00034087
0.000340842
0.000340856
0.000340871
0.000340787
0.000340515
0.000340051
0.000339637
0.000339137
0.000338617
0.000338072
0.00033746
0.000336881
0.000336224
0.000335593
0.000334959
0.000334278
0.000333542
0.000332766
0.000331928
0.000331037
0.0003301
0.000329253
0.000328434
0.000327685
0.000327003
0.00032635
0.000325747
0.000325122
0.000324545
0.000323975
0.000323407
0.000322849
0.000322325
0.000321748
0.000321238
0.000320682
0.000320086
0.000319523
0.00031902
0.000318576
0.000318204
0.000317953
0.000317774
0.00031768
0.000317556
0.000317359
0.000317107
0.000316783
0.000316382
)
;

boundaryField
{
    inlet
    {
        type            fixedValue;
        value           uniform 0;
    }
    outlet
    {
        type            zeroGradient;
    }
    yzfaces
    {
        type            empty;
    }
}


// ************************************************************************* //
