/*--------------------------------*- C++ -*----------------------------------*\
| =========                 |                                                 |
| \\      /  F ield         | foam-extend: Open Source CFD                    |
|  \\    /   O peration     | Version:     5.0                                |
|   \\  /    A nd           | Web:         http://www.foam-extend.org         |
|    \\/     M anipulation  |                                                 |
\*---------------------------------------------------------------------------*/
FoamFile
{
    version     2.0;
    format      ascii;
    class       surfaceScalarField;
    location    "5";
    object      phi;
}
// * * * * * * * * * * * * * * * * * * * * * * * * * * * * * * * * * * * * * //

dimensions      [0 3 -1 0 0 0 0];

internalField   nonuniform List<scalar> 
99
(
0.000122501
0.000122493
0.000122484
0.000122485
0.000122497
0.000122508
0.000122508
0.000122513
0.000122539
0.000122533
0.000122532
0.000122541
0.000122524
0.00012254
0.000122555
0.000122556
0.000122547
0.000122589
0.000122578
0.000122579
0.000122571
0.000122562
0.000122562
0.000122552
0.000122539
0.000122542
0.000122541
0.000122553
0.000122545
0.000122533
0.00012255
0.000122538
0.000122549
0.000122565
0.000122586
0.000122566
0.000122582
0.000122595
0.000122618
0.00012265
0.000122649
0.000122636
0.000122649
0.000122635
0.000122653
0.000122648
0.000122664
0.000122654
0.000122665
0.000122669
0.000122664
0.000122688
0.000122675
0.000122678
0.000122687
0.000122643
0.000122647
0.00012263
0.000122608
0.000122599
0.000122588
0.00012257
0.000122547
0.000122554
0.000122549
0.000122519
0.000122508
0.000122492
0.000122467
0.000122461
0.000122448
0.000122474
0.000122474
0.000122492
0.000122471
0.000122493
0.000122491
0.000122492
0.00012249
0.000122506
0.000122498
0.000122503
0.000122496
0.000122499
0.000122496
0.00012251
0.00012251
0.000122492
0.000122513
0.000122508
0.000122527
0.000122516
0.000122512
0.000122535
0.000122527
0.000122528
0.000122528
0.000122505
0.000122508
)
;

boundaryField
{
    inlet
    {
        type            calculated;
        value           uniform -0.0001225;
    }
    outlet
    {
        type            calculated;
        value           uniform 0.000122504;
    }
    yzfaces
    {
        type            empty;
    }
}


// ************************************************************************* //
