/*--------------------------------*- C++ -*----------------------------------*\
| =========                 |                                                 |
| \\      /  F ield         | foam-extend: Open Source CFD                    |
|  \\    /   O peration     | Version:     5.0                                |
|   \\  /    A nd           | Web:         http://www.foam-extend.org         |
|    \\/     M anipulation  |                                                 |
\*---------------------------------------------------------------------------*/
FoamFile
{
    version     2.0;
    format      ascii;
    class       surfaceScalarField;
    location    "5";
    object      phi.gas;
}
// * * * * * * * * * * * * * * * * * * * * * * * * * * * * * * * * * * * * * //

dimensions      [0 3 -1 0 0 0 0];

internalField   nonuniform List<scalar> 
99
(
0.000617924
0.00062038
0.000622611
0.000624787
0.000626808
0.000628727
0.000630654
0.00063275
0.000634902
0.00063666
0.000638422
0.000640295
0.000642111
0.000644034
0.000645783
0.00064755
0.000649294
0.000651173
0.000652781
0.000654506
0.000656085
0.000657731
0.000659379
0.000660878
0.000662549
0.000664237
0.00066584
0.000667549
0.000669167
0.000670899
0.000672914
0.000674873
0.000677052
0.000679257
0.00068135
0.000683173
0.000685106
0.000686942
0.000688777
0.000690556
0.000692026
0.000693425
0.000694915
0.000696191
0.000697593
0.000698735
0.000699683
0.000699902
0.000700027
0.000700049
0.000700041
0.000700189
0.000700053
0.00070017
0.000700562
0.000701058
0.000701977
0.000702778
0.000703692
0.000704738
0.000705851
0.000706945
0.000708107
0.000709494
0.000710743
0.000711937
0.000713372
0.000714851
0.00071643
0.000718238
0.000720111
0.000722167
0.000723937
0.000725714
0.000727141
0.000728744
0.000730079
0.000731424
0.000732737
0.000734093
0.000735277
0.000736562
0.000737721
0.000738967
0.000740183
0.00074146
0.000742722
0.000743933
0.000745275
0.00074632
0.000747365
0.000747988
0.000748477
0.000748905
0.000749083
0.000749477
0.000749963
0.00075048
0.000751382
)
;

boundaryField
{
    inlet
    {
        type            fixedValue;
        value           uniform -0.0006125;
    }
    outlet
    {
        type            calculated;
        value           uniform 0.000751812;
    }
    yzfaces
    {
        type            empty;
    }
}


// ************************************************************************* //
