/*--------------------------------*- C++ -*----------------------------------*\
| =========                 |                                                 |
| \\      /  F ield         | foam-extend: Open Source CFD                    |
|  \\    /   O peration     | Version:     5.0                                |
|   \\  /    A nd           | Web:         http://www.foam-extend.org         |
|    \\/     M anipulation  |                                                 |
\*---------------------------------------------------------------------------*/
FoamFile
{
    version     2.0;
    format      ascii;
    class       volVectorField;
    location    "5";
    object      U.water;
}
// * * * * * * * * * * * * * * * * * * * * * * * * * * * * * * * * * * * * * //

dimensions      [0 1 -1 0 0 0 0];

internalField   nonuniform List<vector> 
100
(
(9.54736e-05 0 0)
(0.000216189 0 0)
(0.0003315 0 0)
(0.000440047 0 0)
(0.000545418 0 0)
(0.000640686 0 0)
(0.000730232 0 0)
(0.000824039 0 0)
(0.000924084 0 0)
(0.00102795 0 0)
(0.00112395 0 0)
(0.00120829 0 0)
(0.00129791 0 0)
(0.00139592 0 0)
(0.00149304 0 0)
(0.00157912 0 0)
(0.00167025 0 0)
(0.00176413 0 0)
(0.00185156 0 0)
(0.00193819 0 0)
(0.00203182 0 0)
(0.0021208 0 0)
(0.00220703 0 0)
(0.00230014 0 0)
(0.00238344 0 0)
(0.00247227 0 0)
(0.00256898 0 0)
(0.00265405 0 0)
(0.00274691 0 0)
(0.002837 0 0)
(0.00293323 0 0)
(0.00303573 0 0)
(0.00314982 0 0)
(0.00326812 0 0)
(0.00338916 0 0)
(0.00350748 0 0)
(0.00361846 0 0)
(0.00372907 0 0)
(0.00383273 0 0)
(0.00393525 0 0)
(0.00403129 0 0)
(0.00412505 0 0)
(0.00421001 0 0)
(0.00429897 0 0)
(0.00437806 0 0)
(0.004461 0 0)
(0.00453376 0 0)
(0.00459493 0 0)
(0.00462883 0 0)
(0.00463327 0 0)
(0.00463363 0 0)
(0.00463238 0 0)
(0.0046354 0 0)
(0.00463343 0 0)
(0.00463303 0 0)
(0.00464525 0 0)
(0.00468086 0 0)
(0.00473701 0 0)
(0.00478871 0 0)
(0.00485043 0 0)
(0.00491546 0 0)
(0.00498448 0 0)
(0.00506051 0 0)
(0.00513531 0 0)
(0.00521911 0 0)
(0.00529976 0 0)
(0.00538225 0 0)
(0.00547189 0 0)
(0.00556894 0 0)
(0.00567257 0 0)
(0.005786 0 0)
(0.00590816 0 0)
(0.00603513 0 0)
(0.00615214 0 0)
(0.00626536 0 0)
(0.00636962 0 0)
(0.00646592 0 0)
(0.00655818 0 0)
(0.0066456 0 0)
(0.00673562 0 0)
(0.00681989 0 0)
(0.00690385 0 0)
(0.00698767 0 0)
(0.00706953 0 0)
(0.00714892 0 0)
(0.00723469 0 0)
(0.00731353 0 0)
(0.00739873 0 0)
(0.00748964 0 0)
(0.00757555 0 0)
(0.00765282 0 0)
(0.00772064 0 0)
(0.00777573 0 0)
(0.00781412 0 0)
(0.00784053 0 0)
(0.00785577 0 0)
(0.00787727 0 0)
(0.00790921 0 0)
(0.00795049 0 0)
(0.00800418 0 0)
)
;

boundaryField
{
    inlet
    {
        type            fixedValue;
        value           uniform (0 0 0);
    }
    outlet
    {
        type            zeroGradient;
    }
    yzfaces
    {
        type            empty;
    }
}


// ************************************************************************* //
