/*--------------------------------*- C++ -*----------------------------------*\
| =========                 |                                                 |
| \\      /  F ield         | foam-extend: Open Source CFD                    |
|  \\    /   O peration     | Version:     5.0                                |
|   \\  /    A nd           | Web:         http://www.foam-extend.org         |
|    \\/     M anipulation  |                                                 |
\*---------------------------------------------------------------------------*/
FoamFile
{
    version     2.0;
    format      ascii;
    class       volScalarField;
    location    "9";
    object      Cl.water;
}
// * * * * * * * * * * * * * * * * * * * * * * * * * * * * * * * * * * * * * //

dimensions      [0 0 0 0 0 0 0];

internalField   nonuniform List<scalar> 
100
(
0.00348193
0.00489353
0.00590256
0.00670942
0.00736298
0.00789882
0.00828883
0.00845314
0.00850738
0.00929334
0.00969205
0.010068
0.0103205
0.0106114
0.0109147
0.0111251
0.0111887
0.0113771
0.0115558
0.0117496
0.0119243
0.0120432
0.0121864
0.0123649
0.0125129
0.0127261
0.0129609
0.0131205
0.0132237
0.0133214
0.0134001
0.0134413
0.0134548
0.0135511
0.0136312
0.013738
0.0138144
0.0138839
0.013981
0.0140762
0.0141726
0.0142474
0.0143529
0.0144083
0.0144506
0.0145009
0.0145915
0.0146901
0.0147972
0.0148901
0.014964
0.0150507
0.0151056
0.0151464
0.0152114
0.0152774
0.0153753
0.015444
0.0155017
0.0155943
0.0156014
0.0156561
0.0157041
0.0157765
0.0158648
0.0159483
0.0160404
0.016106
0.0161669
0.0162688
0.0163547
0.0164274
0.0164915
0.0166176
0.0167189
0.0168481
0.0170088
0.0171987
0.0174726
0.0179066
0.0186267
0.0200924
0.0209412
0.0212835
0.02137
0.0213623
0.0213527
0.0213575
0.0213466
0.0213308
0.0213393
0.0213329
0.0213206
0.0212979
0.0212925
0.0212969
0.0213
0.0212913
0.0212751
0.0212565
)
;

boundaryField
{
    inlet
    {
        type            fixedValue;
        value           uniform 0;
    }
    outlet
    {
        type            zeroGradient;
    }
    yzfaces
    {
        type            empty;
    }
}


// ************************************************************************* //
