/*--------------------------------*- C++ -*----------------------------------*\
| =========                 |                                                 |
| \\      /  F ield         | foam-extend: Open Source CFD                    |
|  \\    /   O peration     | Version:     5.0                                |
|   \\  /    A nd           | Web:         http://www.foam-extend.org         |
|    \\/     M anipulation  |                                                 |
\*---------------------------------------------------------------------------*/
FoamFile
{
    version     2.0;
    format      ascii;
    class       volScalarField;
    location    "9";
    object      H2O.gas;
}
// * * * * * * * * * * * * * * * * * * * * * * * * * * * * * * * * * * * * * //

dimensions      [0 0 0 0 0 0 0];

internalField   nonuniform List<scalar> 
100
(
4.42906e-05
0.000306468
0.000289311
0.000230534
0.000208563
0.000190199
0.000178319
0.000246018
0.000244584
0.000231916
0.000225027
0.000218683
0.000214334
0.000208897
0.00020427
0.000200612
0.000199473
0.00019584
0.000190907
0.000186444
0.000183718
0.000179288
0.000171242
0.000162777
0.000153444
0.00014238
0.000132827
0.000124148
0.000122119
0.000133301
0.000146777
0.000161466
0.000159289
0.000159672
0.000158318
0.00015629
0.000154778
0.00015317
0.000150831
0.00014875
0.000146779
0.00014499
0.000144251
0.000144412
0.000142842
0.000141252
0.000139429
0.00013722
0.000135374
0.000134108
0.000133175
0.000133076
0.000133318
0.000131003
0.000129708
0.00012839
0.000127223
0.000126504
0.0001253
0.000125062
0.000123967
0.000123244
0.000121918
0.000121098
0.000119941
0.000118688
0.000117512
0.000116378
0.000115309
0.000113617
0.000112224
0.000110931
0.00010947
0.000107652
0.000106019
0.000103812
0.000101129
9.77501e-05
9.31725e-05
8.58009e-05
7.32269e-05
4.75552e-05
0.00031661
0.000648885
0.00101928
0.00142973
0.00188448
0.00238367
0.00292377
0.00350653
0.0041345
0.00479996
0.00550145
0.00623747
0.00700786
0.0078073
0.00863233
0.00947322
0.0103253
0.0111836
)
;

boundaryField
{
    inlet
    {
        type            fixedValue;
        value           uniform 0;
    }
    outlet
    {
        type            zeroGradient;
    }
    yzfaces
    {
        type            empty;
    }
}


// ************************************************************************* //
