/*--------------------------------*- C++ -*----------------------------------*\
| =========                 |                                                 |
| \\      /  F ield         | foam-extend: Open Source CFD                    |
|  \\    /   O peration     | Version:     5.0                                |
|   \\  /    A nd           | Web:         http://www.foam-extend.org         |
|    \\/     M anipulation  |                                                 |
\*---------------------------------------------------------------------------*/
FoamFile
{
    version     2.0;
    format      ascii;
    class       volScalarField;
    location    "9";
    object      H2O.water;
}
// * * * * * * * * * * * * * * * * * * * * * * * * * * * * * * * * * * * * * //

dimensions      [0 0 0 0 0 0 0];

internalField   nonuniform List<scalar> 
100
(
0.0225798
0.0316729
0.0382325
0.0435066
0.0477548
0.0512538
0.0537352
0.0548115
0.0551143
0.0601911
0.0627728
0.0652248
0.0668672
0.068771
0.0707441
0.0721669
0.0725215
0.0737371
0.0749435
0.0761921
0.0773185
0.0780549
0.0789939
0.0801125
0.0810454
0.0824905
0.0839973
0.085006
0.085688
0.0863395
0.0869034
0.0871286
0.0871539
0.0877936
0.088279
0.0890524
0.0895256
0.0899795
0.0906083
0.0912465
0.0918533
0.092319
0.0929962
0.0933575
0.0936266
0.0939849
0.0945624
0.0952225
0.0958789
0.0965232
0.0970424
0.097535
0.097872
0.0981319
0.0985536
0.098978
0.0995656
0.100042
0.100437
0.10103
0.101072
0.101423
0.10172
0.102207
0.102757
0.103317
0.103912
0.104344
0.104746
0.105404
0.105931
0.10643
0.106867
0.107672
0.108311
0.109122
0.110163
0.111411
0.113184
0.116012
0.120738
0.130429
0.133437
0.134148
0.134182
0.133935
0.133762
0.133744
0.133713
0.133611
0.133665
0.133596
0.133522
0.133374
0.133313
0.13336
0.133372
0.133279
0.133175
0.13314
)
;

boundaryField
{
    inlet
    {
        type            fixedValue;
        value           uniform 0;
    }
    outlet
    {
        type            zeroGradient;
    }
    yzfaces
    {
        type            empty;
    }
}


// ************************************************************************* //
