/*--------------------------------*- C++ -*----------------------------------*\
| =========                 |                                                 |
| \\      /  F ield         | foam-extend: Open Source CFD                    |
|  \\    /   O peration     | Version:     5.0                                |
|   \\  /    A nd           | Web:         http://www.foam-extend.org         |
|    \\/     M anipulation  |                                                 |
\*---------------------------------------------------------------------------*/
FoamFile
{
    version     2.0;
    format      ascii;
    class       volScalarField;
    location    "9";
    object      Ns;
}
// * * * * * * * * * * * * * * * * * * * * * * * * * * * * * * * * * * * * * //

dimensions      [0 -3 0 0 1 0 0];

internalField   nonuniform List<scalar> 
100
(
0.300109
2.02277
2.10623
1.56602
1.23512
0.596995
0.401591
0.674501
12.3791
0.546752
2.97349
1.93536
3.1271
0.0756333
1.13406
0.629099
3.94037
0.521315
0.927578
0.785853
0.529943
0.149837
1.04526
0.204472
0.0946095
1.75477
1.02768
0.618791
1.89952
0.0585366
0.823024
0.14744
0.467273
0.875743
1.87678
0.335401
0.180113
0.154154
0.134514
0.281826
0.462121
0.65122
0.103935
0.300662
0.20086
0.290452
1.08958
0.191959
0.233311
0.0639718
0.14327
0.0458878
0.229666
0.160719
0.156368
1.04227
0.57426
1.67719
0.000541985
0.203293
0.742936
0.0653899
0.742863
0.692047
0.639438
0.972644
0.292262
0.434494
0.489115
0.178238
0.299798
0.115597
0.127007
0.806016
0.119756
1.37038
0.630274
3.05982
1.5093
1.17614
5.69301
13.9751
2
2
2
2
2
2
2
2
2
2
2
2
2
2
2
2
2
2
)
;

boundaryField
{
    inlet
    {
        type            fixedValue;
        value           uniform 0;
    }
    outlet
    {
        type            zeroGradient;
    }
    yzfaces
    {
        type            empty;
    }
}


// ************************************************************************* //
