/*--------------------------------*- C++ -*----------------------------------*\
| =========                 |                                                 |
| \\      /  F ield         | foam-extend: Open Source CFD                    |
|  \\    /   O peration     | Version:     5.0                                |
|   \\  /    A nd           | Web:         http://www.foam-extend.org         |
|    \\/     M anipulation  |                                                 |
\*---------------------------------------------------------------------------*/
FoamFile
{
    version     2.0;
    format      ascii;
    class       surfaceScalarField;
    location    "9";
    object      phi;
}
// * * * * * * * * * * * * * * * * * * * * * * * * * * * * * * * * * * * * * //

dimensions      [0 3 -1 0 0 0 0];

internalField   nonuniform List<scalar> 
99
(
1.22043e-06
1.22707e-06
1.22074e-06
1.21526e-06
1.19908e-06
1.20083e-06
1.199e-06
1.20669e-06
1.1917e-06
1.18045e-06
1.17485e-06
1.1714e-06
1.17372e-06
1.17263e-06
1.17342e-06
1.17742e-06
1.17416e-06
1.1707e-06
1.16924e-06
1.17089e-06
1.17454e-06
1.1678e-06
1.16354e-06
1.17057e-06
1.16326e-06
1.16511e-06
1.16888e-06
1.17624e-06
1.17376e-06
1.17384e-06
1.17793e-06
1.17916e-06
1.18431e-06
1.18302e-06
1.17511e-06
1.17412e-06
1.17104e-06
1.16565e-06
1.16706e-06
1.16769e-06
1.16733e-06
1.17038e-06
1.17306e-06
1.17577e-06
1.17516e-06
1.17499e-06
1.17393e-06
1.17475e-06
1.17687e-06
1.18117e-06
1.1801e-06
1.17832e-06
1.18047e-06
1.18058e-06
1.1806e-06
1.1752e-06
1.1784e-06
1.17858e-06
1.18233e-06
1.18339e-06
1.18236e-06
1.18066e-06
1.1821e-06
1.18049e-06
1.17999e-06
1.18309e-06
1.18475e-06
1.18136e-06
1.18152e-06
1.18076e-06
1.17989e-06
1.17998e-06
1.17996e-06
1.17914e-06
1.18007e-06
1.17648e-06
1.17571e-06
1.17603e-06
1.17522e-06
1.1757e-06
1.17374e-06
1.17089e-06
1.1706e-06
1.17067e-06
1.17119e-06
1.1723e-06
1.17323e-06
1.17301e-06
1.17548e-06
1.17475e-06
1.1753e-06
1.17598e-06
1.17687e-06
1.17641e-06
1.17605e-06
1.17707e-06
1.17824e-06
1.17741e-06
1.17668e-06
)
;

boundaryField
{
    inlet
    {
        type            calculated;
        value           uniform -1.225e-06;
    }
    outlet
    {
        type            calculated;
        value           uniform 1.17476e-06;
    }
    yzfaces
    {
        type            empty;
    }
}


// ************************************************************************* //
