/*--------------------------------*- C++ -*----------------------------------*\
| =========                 |                                                 |
| \\      /  F ield         | foam-extend: Open Source CFD                    |
|  \\    /   O peration     | Version:     5.0                                |
|   \\  /    A nd           | Web:         http://www.foam-extend.org         |
|    \\/     M anipulation  |                                                 |
\*---------------------------------------------------------------------------*/
FoamFile
{
    version     2.0;
    format      ascii;
    class       volScalarField;
    location    "0.776075";
    object      alpha.gas;
}
// * * * * * * * * * * * * * * * * * * * * * * * * * * * * * * * * * * * * * //

dimensions      [0 0 0 0 0 0 0];

internalField   nonuniform List<scalar> 
100
(
0.105126
0.0869253
0.0762146
0.0667407
0.0594718
0.0538137
0.0399282
0.0366776
0.0357479
0.0349974
0.0338339
0.0321572
0.0300512
0.0275982
0.0249412
0.0221555
0.0194013
0.0168213
0.0146191
0.0129145
0.0117253
0.0109725
0.0105286
0.0102804
0.0101472
0.0100758
0.01004
0.0100211
0.0100105
0.0100079
0.0100028
0.0100023
0.0100011
0.0100017
0.0100016
0.0100002
0.00999744
0.0099967
0.00999618
0.00999702
0.00999971
0.00999963
0.00999892
0.00999785
0.00999742
0.00999699
0.00999794
0.0099985
0.00999922
0.0100014
0.00999941
0.00999993
0.0100003
0.00999834
0.0100002
0.00999946
0.00999891
0.00999993
0.0099991
0.0100001
0.0100018
0.0100015
0.0100016
0.0100018
0.0100007
0.00999969
0.0100002
0.0100009
0.010001
0.01
0.00999932
0.0100007
0.0100005
0.0100004
0.00999872
0.00999891
0.00999874
0.00999853
0.0100001
0.0100021
0.0100026
0.0100044
0.0100023
0.0100035
0.0100027
0.0100024
0.0100007
0.00999986
0.00999956
0.00999939
0.0099984
0.00999829
0.0099986
0.00999816
0.00999765
0.00999888
0.00999837
0.00999822
0.00999776
0.00999619
)
;

boundaryField
{
    inlet
    {
        type            fixedValue;
        value           uniform 0.2;
    }
    outlet
    {
        type            zeroGradient;
    }
    yzfaces
    {
        type            empty;
    }
}


// ************************************************************************* //
