/*--------------------------------*- C++ -*----------------------------------*\
| =========                 |                                                 |
| \\      /  F ield         | foam-extend: Open Source CFD                    |
|  \\    /   O peration     | Version:     5.0                                |
|   \\  /    A nd           | Web:         http://www.foam-extend.org         |
|    \\/     M anipulation  |                                                 |
\*---------------------------------------------------------------------------*/
FoamFile
{
    version     2.0;
    format      ascii;
    class       volScalarField;
    location    "0.776075";
    object      Cl.water;
}
// * * * * * * * * * * * * * * * * * * * * * * * * * * * * * * * * * * * * * //

dimensions      [0 0 0 0 0 0 0];

internalField   nonuniform List<scalar> 
100
(
0
0.00764293
0.0121728
0.00493442
0.00956618
0.014121
0.00301147
0.0135942
0.0180649
0.0194969
0.0199957
0.0202931
0.0205484
0.0208574
0.0211962
0.0215448
0.0218593
0.0221861
0.0224454
0.0226418
0.0227899
0.0228773
0.022927
0.0229457
0.0229677
0.0229799
0.0229697
0.02297
0.0229968
0.0229739
0.0229959
0.0229914
0.0230017
0.0229978
0.0229972
0.0229968
0.0230037
0.0229952
0.0230115
0.0229911
0.0229886
0.0229853
0.0229955
0.0229809
0.0229835
0.0229937
0.0229713
0.022969
0.0229964
0.0229985
0.0229953
0.0230043
0.0230045
0.0230037
0.0230009
0.0229938
0.0230101
0.022983
0.0229937
0.0229927
0.0229882
0.0229941
0.0229794
0.022995
0.0229764
0.0229923
0.0229817
0.0229832
0.0230112
0.0230096
0.0230096
0.0230086
0.0230011
0.0230008
0.0230159
0.0230045
0.0230194
0.023021
0.0230095
0.0230153
0.0229894
0.0229886
0.0229854
0.0229954
0.0230109
0.0230041
0.0230075
0.0229988
0.0230139
0.0229938
0.022983
0.0229778
0.022986
0.0229909
0.0229804
0.0230072
0.023004
0.0230134
0.0230199
0.0230044
)
;

boundaryField
{
    inlet
    {
        type            fixedValue;
        value           uniform 0;
    }
    outlet
    {
        type            zeroGradient;
    }
    yzfaces
    {
        type            empty;
    }
}


// ************************************************************************* //
