/*--------------------------------*- C++ -*----------------------------------*\
| =========                 |                                                 |
| \\      /  F ield         | foam-extend: Open Source CFD                    |
|  \\    /   O peration     | Version:     5.0                                |
|   \\  /    A nd           | Web:         http://www.foam-extend.org         |
|    \\/     M anipulation  |                                                 |
\*---------------------------------------------------------------------------*/
FoamFile
{
    version     2.0;
    format      ascii;
    class       volScalarField;
    location    "0.776075";
    object      CO2.water;
}
// * * * * * * * * * * * * * * * * * * * * * * * * * * * * * * * * * * * * * //

dimensions      [0 0 0 0 0 0 0];

internalField   nonuniform List<scalar> 
100
(
0.00249099
0.00130616
0.000604652
0.00241978
0.00160735
0.000767383
0.0035436
0.00133285
0.00039194
0.000103322
2.63218e-05
6.78919e-06
1.81476e-06
5.07098e-07
1.50038e-07
4.75505e-08
1.68074e-08
7.07651e-09
3.46132e-09
1.83913e-09
1.01458e-09
5.63843e-10
3.09253e-10
1.66768e-10
8.80216e-11
4.51145e-11
2.2607e-11
1.111e-11
5.34574e-12
2.51923e-12
1.15864e-12
5.13762e-13
2.18125e-13
8.88017e-14
3.32063e-14
1.24009e-14
4.62746e-15
1.72755e-15
6.43871e-16
2.40159e-16
8.97252e-17
3.34668e-17
1.25052e-17
4.66035e-18
1.744e-18
6.49516e-19
2.42823e-19
9.06479e-20
3.3801e-20
1.26365e-20
4.71512e-21
1.76054e-21
6.57318e-22
2.45603e-22
9.18103e-23
3.44293e-23
1.28662e-23
4.81478e-24
1.79866e-24
6.71592e-25
2.51701e-25
9.40074e-26
3.51234e-26
1.3083e-26
4.89053e-27
1.82257e-27
6.81434e-28
2.54548e-28
9.49955e-29
3.54921e-29
1.32203e-29
4.94186e-30
1.84225e-30
6.88034e-31
2.57065e-31
9.6002e-32
3.5917e-32
1.34121e-32
5.01604e-33
1.8728e-33
6.98041e-34
2.60843e-34
9.74907e-35
3.63844e-35
1.35694e-35
5.06624e-36
1.88915e-36
7.05616e-37
2.6312e-37
9.81614e-38
3.66884e-38
1.37303e-38
5.12309e-39
1.91545e-39
7.16055e-40
2.66974e-40
9.94235e-41
3.71617e-41
1.38164e-41
6.33031e-42
)
;

boundaryField
{
    inlet
    {
        type            fixedValue;
        value           uniform 0;
    }
    outlet
    {
        type            zeroGradient;
    }
    yzfaces
    {
        type            empty;
    }
}


// ************************************************************************* //
