/*--------------------------------*- C++ -*----------------------------------*\
| =========                 |                                                 |
| \\      /  F ield         | foam-extend: Open Source CFD                    |
|  \\    /   O peration     | Version:     5.0                                |
|   \\  /    A nd           | Web:         http://www.foam-extend.org         |
|    \\/     M anipulation  |                                                 |
\*---------------------------------------------------------------------------*/
FoamFile
{
    version     2.0;
    format      ascii;
    class       volScalarField;
    location    "0.776075";
    object      H2O.gas;
}
// * * * * * * * * * * * * * * * * * * * * * * * * * * * * * * * * * * * * * //

dimensions      [0 0 0 0 0 0 0];

internalField   nonuniform List<scalar> 
100
(
1.00071e-07
1.99949e-05
9.56491e-05
0.000185748
0.000396095
0.000860683
0.000734398
0.00209546
0.00399764
0.00616847
0.00845302
0.0107181
0.0127674
0.0144364
0.0155504
0.0159707
0.0156849
0.014836
0.0136822
0.0125234
0.0115847
0.0109262
0.0105151
0.0102704
0.010143
0.0100745
0.0100312
0.0100094
0.0100098
0.00999933
0.0100037
0.0100002
0.0100025
0.0100007
0.0100025
0.01
0.00999864
0.00999395
0.0100027
0.00999476
0.0099937
0.00999095
0.00999474
0.00998899
0.00999163
0.00999439
0.00998489
0.00998195
0.00999281
0.0099969
0.00999372
0.00999674
0.00999882
0.00999832
0.00999887
0.00999704
0.0100045
0.00999259
0.00999826
0.00999826
0.00999941
0.0100013
0.00999575
0.0100015
0.00999265
0.0100004
0.00999642
0.00999692
0.0100067
0.0100044
0.010003
0.0100042
0.00999999
0.0100026
0.0100083
0.010002
0.010008
0.0100094
0.0100041
0.0100053
0.00999726
0.00999687
0.00999208
0.00999657
0.0100008
0.00999969
0.00999917
0.00999745
0.0100037
0.00999661
0.00999067
0.00999244
0.00999447
0.00999538
0.00999046
0.0100018
0.0100002
0.0100008
0.0100019
0.00999564
)
;

boundaryField
{
    inlet
    {
        type            fixedValue;
        value           uniform 0;
    }
    outlet
    {
        type            zeroGradient;
    }
    yzfaces
    {
        type            empty;
    }
}


// ************************************************************************* //
