/*--------------------------------*- C++ -*----------------------------------*\
| =========                 |                                                 |
| \\      /  F ield         | foam-extend: Open Source CFD                    |
|  \\    /   O peration     | Version:     5.0                                |
|   \\  /    A nd           | Web:         http://www.foam-extend.org         |
|    \\/     M anipulation  |                                                 |
\*---------------------------------------------------------------------------*/
FoamFile
{
    version     2.0;
    format      ascii;
    class       volScalarField;
    location    "0.776075";
    object      Na.water;
}
// * * * * * * * * * * * * * * * * * * * * * * * * * * * * * * * * * * * * * //

dimensions      [0 0 0 0 0 0 0];

internalField   nonuniform List<scalar> 
100
(
0
0.00764496
0.0121752
0.00493465
0.00957044
0.014127
0.00301269
0.0135896
0.0180598
0.0194937
0.0199925
0.0202901
0.0205512
0.0208607
0.0211954
0.0215434
0.0218641
0.0221808
0.0224419
0.0226336
0.0227912
0.0228782
0.0229339
0.0229534
0.0229809
0.02299
0.0229736
0.0229664
0.0229905
0.0229793
0.0229981
0.0229922
0.0230048
0.0229978
0.023001
0.0229927
0.0229929
0.0229834
0.0230074
0.0229836
0.0229766
0.0229735
0.0229844
0.0229715
0.0229718
0.0229825
0.0229647
0.0229555
0.0229882
0.0229993
0.0229922
0.0229929
0.0229989
0.0230029
0.022997
0.0229955
0.0230061
0.0229836
0.0230003
0.0229953
0.0229931
0.0229898
0.0229823
0.0230018
0.0229806
0.0229975
0.0229822
0.0229849
0.0230037
0.0230013
0.0230017
0.0230069
0.0229979
0.0230009
0.0230191
0.0230099
0.0230286
0.0230274
0.0230142
0.0230271
0.0230124
0.0230038
0.0229893
0.0229907
0.0229991
0.022996
0.0229938
0.0229923
0.0230071
0.022989
0.0229753
0.0229782
0.0229882
0.0229905
0.0229792
0.0230082
0.0230119
0.0230132
0.023016
0.0230106
)
;

boundaryField
{
    inlet
    {
        type            fixedValue;
        value           uniform 0;
    }
    outlet
    {
        type            zeroGradient;
    }
    yzfaces
    {
        type            empty;
    }
}


// ************************************************************************* //
