/*--------------------------------*- C++ -*----------------------------------*\
| =========                 |                                                 |
| \\      /  F ield         | foam-extend: Open Source CFD                    |
|  \\    /   O peration     | Version:     5.0                                |
|   \\  /    A nd           | Web:         http://www.foam-extend.org         |
|    \\/     M anipulation  |                                                 |
\*---------------------------------------------------------------------------*/
FoamFile
{
    version     2.0;
    format      ascii;
    class       surfaceScalarField;
    location    "0.776075";
    object      phi;
}
// * * * * * * * * * * * * * * * * * * * * * * * * * * * * * * * * * * * * * //

dimensions      [0 3 -1 0 0 0 0];

internalField   nonuniform List<scalar> 
99
(
1.22589e-06
1.21853e-06
1.21168e-06
1.21694e-06
1.21238e-06
1.21234e-06
1.21072e-06
1.21392e-06
1.21561e-06
1.21706e-06
1.21704e-06
1.21596e-06
1.21322e-06
1.2131e-06
1.21332e-06
1.21328e-06
1.2121e-06
1.21328e-06
1.21414e-06
1.2142e-06
1.21315e-06
1.21323e-06
1.21206e-06
1.21385e-06
1.21492e-06
1.21437e-06
1.21554e-06
1.21498e-06
1.21335e-06
1.21307e-06
1.21124e-06
1.21216e-06
1.21023e-06
1.20938e-06
1.21064e-06
1.21048e-06
1.20998e-06
1.21019e-06
1.20984e-06
1.20848e-06
1.21002e-06
1.20814e-06
1.21024e-06
1.20973e-06
1.21231e-06
1.21137e-06
1.21175e-06
1.2133e-06
1.21224e-06
1.21242e-06
1.21368e-06
1.21441e-06
1.2158e-06
1.21572e-06
1.21518e-06
1.21453e-06
1.21412e-06
1.21351e-06
1.21395e-06
1.21322e-06
1.21411e-06
1.21468e-06
1.21661e-06
1.21659e-06
1.21581e-06
1.21618e-06
1.21692e-06
1.21648e-06
1.21726e-06
1.21791e-06
1.21794e-06
1.21737e-06
1.21658e-06
1.21676e-06
1.21584e-06
1.21512e-06
1.21611e-06
1.21492e-06
1.21587e-06
1.21361e-06
1.21333e-06
1.21437e-06
1.21354e-06
1.21462e-06
1.21411e-06
1.21549e-06
1.21563e-06
1.21583e-06
1.21511e-06
1.21508e-06
1.21618e-06
1.21852e-06
1.21891e-06
1.21907e-06
1.22033e-06
1.22164e-06
1.22177e-06
1.22266e-06
1.22269e-06
)
;

boundaryField
{
    inlet
    {
        type            calculated;
        value           uniform -1.225e-06;
    }
    outlet
    {
        type            calculated;
        value           uniform 1.22172e-06;
    }
    yzfaces
    {
        type            empty;
    }
}


// ************************************************************************* //
