/*--------------------------------*- C++ -*----------------------------------*\
| =========                 |                                                 |
| \\      /  F ield         | foam-extend: Open Source CFD                    |
|  \\    /   O peration     | Version:     5.0                                |
|   \\  /    A nd           | Web:         http://www.foam-extend.org         |
|    \\/     M anipulation  |                                                 |
\*---------------------------------------------------------------------------*/
FoamFile
{
    version     2.0;
    format      ascii;
    class       volScalarField;
    location    "0.776075";
    object      S.gas;
}
// * * * * * * * * * * * * * * * * * * * * * * * * * * * * * * * * * * * * * //

dimensions      [0 0 0 0 0 0 0];

internalField   nonuniform List<scalar> 
100
(
0.525628
0.434627
0.381073
0.333703
0.297359
0.269068
0.199641
0.183388
0.17874
0.174987
0.16917
0.160786
0.150256
0.137991
0.124706
0.110777
0.0970065
0.0841066
0.0730954
0.0645723
0.0586265
0.0548626
0.052643
0.0514018
0.0507361
0.050379
0.0501999
0.0501057
0.0500527
0.0500393
0.0500142
0.0500115
0.0500057
0.0500085
0.0500081
0.0500011
0.0499872
0.0499835
0.0499809
0.0499851
0.0499986
0.0499981
0.0499946
0.0499893
0.0499871
0.049985
0.0499897
0.0499925
0.0499961
0.0500069
0.049997
0.0499996
0.0500013
0.0499917
0.050001
0.0499973
0.0499946
0.0499997
0.0499955
0.0500006
0.050009
0.0500076
0.0500081
0.0500089
0.0500036
0.0499984
0.050001
0.0500043
0.0500049
0.0500002
0.0499966
0.0500036
0.0500025
0.0500022
0.0499936
0.0499945
0.0499937
0.0499926
0.0500007
0.0500104
0.0500129
0.0500219
0.0500117
0.0500175
0.0500133
0.0500119
0.0500037
0.0499993
0.0499978
0.0499969
0.049992
0.0499915
0.049993
0.0499908
0.0499882
0.0499944
0.0499918
0.0499911
0.0499888
0.0499809
)
;

boundaryField
{
    inlet
    {
        type            calculated;
        value           uniform 1;
    }
    outlet
    {
        type            calculated;
        value           uniform 0.0499809;
    }
    yzfaces
    {
        type            empty;
    }
}


// ************************************************************************* //
