/*--------------------------------*- C++ -*----------------------------------*\
| =========                 |                                                 |
| \\      /  F ield         | foam-extend: Open Source CFD                    |
|  \\    /   O peration     | Version:     5.0                                |
|   \\  /    A nd           | Web:         http://www.foam-extend.org         |
|    \\/     M anipulation  |                                                 |
\*---------------------------------------------------------------------------*/
FoamFile
{
    version     2.0;
    format      ascii;
    class       volVectorField;
    location    "0.776075";
    object      U.gas;
}
// * * * * * * * * * * * * * * * * * * * * * * * * * * * * * * * * * * * * * //

dimensions      [0 1 -1 0 0 0 0];

internalField   nonuniform List<vector> 
100
(
(0.00930522 0 0)
(0.0107213 0 0)
(0.011597 0 0)
(0.0125118 0 0)
(0.0131257 0 0)
(0.01346 0 0)
(0.0152017 0 0)
(0.0133966 0 0)
(0.0128268 0 0)
(0.0127161 0 0)
(0.0126823 0 0)
(0.0125745 0 0)
(0.0123306 0 0)
(0.0119448 0 0)
(0.0113968 0 0)
(0.0106786 0 0)
(0.00977997 0 0)
(0.00876878 0 0)
(0.0077214 0 0)
(0.00675432 0 0)
(0.00596765 0 0)
(0.0054088 0 0)
(0.00505418 0 0)
(0.00484896 0 0)
(0.00473913 0 0)
(0.0046773 0 0)
(0.00464526 0 0)
(0.00463021 0 0)
(0.00461801 0 0)
(0.00460971 0 0)
(0.00460362 0 0)
(0.0045987 0 0)
(0.00459674 0 0)
(0.00459158 0 0)
(0.00459247 0 0)
(0.00459455 0 0)
(0.00459322 0 0)
(0.00459114 0 0)
(0.00458995 0 0)
(0.00458614 0 0)
(0.00458694 0 0)
(0.00458826 0 0)
(0.00458939 0 0)
(0.00459171 0 0)
(0.00459476 0 0)
(0.00459791 0 0)
(0.00459649 0 0)
(0.00460057 0 0)
(0.00460167 0 0)
(0.00460049 0 0)
(0.00460494 0 0)
(0.00460767 0 0)
(0.00461084 0 0)
(0.00461336 0 0)
(0.00461183 0 0)
(0.00461038 0 0)
(0.0046075 0 0)
(0.00460594 0 0)
(0.00460664 0 0)
(0.00460503 0 0)
(0.00460603 0 0)
(0.00460974 0 0)
(0.00461455 0 0)
(0.00461811 0 0)
(0.00461671 0 0)
(0.00461529 0 0)
(0.00461671 0 0)
(0.00461787 0 0)
(0.00461875 0 0)
(0.00462091 0 0)
(0.00462117 0 0)
(0.00462009 0 0)
(0.0046181 0 0)
(0.00461684 0 0)
(0.0046162 0 0)
(0.00461209 0 0)
(0.00461191 0 0)
(0.00461137 0 0)
(0.00461068 0 0)
(0.00460967 0 0)
(0.00460623 0 0)
(0.00460745 0 0)
(0.00460882 0 0)
(0.00460823 0 0)
(0.00460981 0 0)
(0.00461152 0 0)
(0.00461426 0 0)
(0.00461359 0 0)
(0.00461208 0 0)
(0.00461057 0 0)
(0.00461239 0 0)
(0.00461909 0 0)
(0.00462517 0 0)
(0.00462635 0 0)
(0.00462803 0 0)
(0.00463237 0 0)
(0.00463515 0 0)
(0.00463711 0 0)
(0.0046394 0 0)
(0.00463846 0 0)
)
;

boundaryField
{
    inlet
    {
        type            fixedValue;
        value           uniform (0.005 0 0);
    }
    outlet
    {
        type            zeroGradient;
    }
    yzfaces
    {
        type            empty;
    }
}


// ************************************************************************* //
