/*--------------------------------*- C++ -*----------------------------------*\
| =========                 |                                                 |
| \\      /  F ield         | foam-extend: Open Source CFD                    |
|  \\    /   O peration     | Version:     5.0                                |
|   \\  /    A nd           | Web:         http://www.foam-extend.org         |
|    \\/     M anipulation  |                                                 |
\*---------------------------------------------------------------------------*/
FoamFile
{
    version     2.0;
    format      ascii;
    class       volVectorField;
    location    "0.776075";
    object      U.water;
}
// * * * * * * * * * * * * * * * * * * * * * * * * * * * * * * * * * * * * * //

dimensions      [0 1 -1 0 0 0 0];

internalField   nonuniform List<vector> 
100
(
(0.000233434 0 0)
(0.000581625 0 0)
(0.000872977 0 0)
(0.00117237 0 0)
(0.00150113 0 0)
(0.00181515 0 0)
(0.00238659 0 0)
(0.00305099 0 0)
(0.00324569 0 0)
(0.00332051 0 0)
(0.00339672 0 0)
(0.00350746 0 0)
(0.00365376 0 0)
(0.0038322 0 0)
(0.00403364 0 0)
(0.00423886 0 0)
(0.00443086 0 0)
(0.00459906 0 0)
(0.00473568 0 0)
(0.00483164 0 0)
(0.00489063 0 0)
(0.00492527 0 0)
(0.00494375 0 0)
(0.00495636 0 0)
(0.00496831 0 0)
(0.00497262 0 0)
(0.00497559 0 0)
(0.00497766 0 0)
(0.00497357 0 0)
(0.0049699 0 0)
(0.00496568 0 0)
(0.00496398 0 0)
(0.00496192 0 0)
(0.00495622 0 0)
(0.00495705 0 0)
(0.0049593 0 0)
(0.00495796 0 0)
(0.00495745 0 0)
(0.00495721 0 0)
(0.00495372 0 0)
(0.00495407 0 0)
(0.00495327 0 0)
(0.00495369 0 0)
(0.00495698 0 0)
(0.00496126 0 0)
(0.00496461 0 0)
(0.00496349 0 0)
(0.00496742 0 0)
(0.00496841 0 0)
(0.00496659 0 0)
(0.00496944 0 0)
(0.00497358 0 0)
(0.00497797 0 0)
(0.00498066 0 0)
(0.0049794 0 0)
(0.00497692 0 0)
(0.0049748 0 0)
(0.00497269 0 0)
(0.00497228 0 0)
(0.00497175 0 0)
(0.00497205 0 0)
(0.00497498 0 0)
(0.0049801 0 0)
(0.00498401 0 0)
(0.00498235 0 0)
(0.00498155 0 0)
(0.00498388 0 0)
(0.00498445 0 0)
(0.00498513 0 0)
(0.00498809 0 0)
(0.00498954 0 0)
(0.00498844 0 0)
(0.00498563 0 0)
(0.00498439 0 0)
(0.00498282 0 0)
(0.00497952 0 0)
(0.00498012 0 0)
(0.00497972 0 0)
(0.00497923 0 0)
(0.00497647 0 0)
(0.00497119 0 0)
(0.00497275 0 0)
(0.00497313 0 0)
(0.00497372 0 0)
(0.00497485 0 0)
(0.00497662 0 0)
(0.00497974 0 0)
(0.00498052 0 0)
(0.00497947 0 0)
(0.00497793 0 0)
(0.00498013 0 0)
(0.00498716 0 0)
(0.00499271 0 0)
(0.00499384 0 0)
(0.00499679 0 0)
(0.00500209 0 0)
(0.00500505 0 0)
(0.00500713 0 0)
(0.00500898 0 0)
(0.00500701 0 0)
)
;

boundaryField
{
    inlet
    {
        type            fixedValue;
        value           uniform (0 0 0);
    }
    outlet
    {
        type            zeroGradient;
    }
    yzfaces
    {
        type            empty;
    }
}


// ************************************************************************* //
