/*--------------------------------*- C++ -*----------------------------------*\
| =========                 |                                                 |
| \\      /  F ield         | foam-extend: Open Source CFD                    |
|  \\    /   O peration     | Version:     5.0                                |
|   \\  /    A nd           | Web:         http://www.foam-extend.org         |
|    \\/     M anipulation  |                                                 |
\*---------------------------------------------------------------------------*/
FoamFile
{
    version     2.0;
    format      ascii;
    class       volScalarField;
    location    "1";
    object      alpha.gas;
}
// * * * * * * * * * * * * * * * * * * * * * * * * * * * * * * * * * * * * * //

dimensions      [0 0 0 0 0 0 0];

internalField   nonuniform List<scalar> 
100
(
0.115618
0.0973237
0.086415
0.0785471
0.0723558
0.0673577
0.0629515
0.0591355
0.0557412
0.0525471
0.0496397
0.0467749
0.0439643
0.0412434
0.0385165
0.0357634
0.0329845
0.0301309
0.0271989
0.0242227
0.0212564
0.0184272
0.0159107
0.0138648
0.0123546
0.011352
0.010743
0.0103959
0.0102077
0.0101077
0.0100576
0.0100305
0.0100166
0.010009
0.0100064
0.0100047
0.0100019
0.0099998
0.00999797
0.00999977
0.0100003
0.0100007
0.0100004
0.0100012
0.010002
0.0100024
0.0100021
0.0100002
0.00999992
0.0100003
0.00999839
0.00999927
0.00999848
0.00999695
0.0100003
0.0100026
0.0100026
0.010001
0.0100006
0.0100024
0.0100019
0.0100036
0.0100033
0.0100026
0.0100019
0.0100015
0.0100019
0.0100008
0.00999874
0.0100023
0.0100012
0.00999937
0.00999916
0.0100016
0.0100017
0.010003
0.00999828
0.00999808
0.00999985
0.00999969
0.00999918
0.00999945
0.0100013
0.0100031
0.0100023
0.0100027
0.0100017
0.010002
0.0100004
0.0100018
0.0100008
0.0100022
0.0100008
0.01
0.00999991
0.0100001
0.00999767
0.00999622
0.00999895
0.00999854
)
;

boundaryField
{
    inlet
    {
        type            fixedValue;
        value           uniform 0.2;
    }
    outlet
    {
        type            zeroGradient;
    }
    yzfaces
    {
        type            empty;
    }
}


// ************************************************************************* //
