/*--------------------------------*- C++ -*----------------------------------*\
| =========                 |                                                 |
| \\      /  F ield         | foam-extend: Open Source CFD                    |
|  \\    /   O peration     | Version:     5.0                                |
|   \\  /    A nd           | Web:         http://www.foam-extend.org         |
|    \\/     M anipulation  |                                                 |
\*---------------------------------------------------------------------------*/
FoamFile
{
    version     2.0;
    format      ascii;
    class       volScalarField;
    location    "1";
    object      alpha.gas;
}
// * * * * * * * * * * * * * * * * * * * * * * * * * * * * * * * * * * * * * //

dimensions      [0 0 0 0 0 0 0];

internalField   nonuniform List<scalar> 
100
(
0.115604
0.0974121
0.0862957
0.078305
0.072323
0.0672142
0.0629181
0.059111
0.0557518
0.0525965
0.0496209
0.0467207
0.0439873
0.0412689
0.0385686
0.0358544
0.0330473
0.0301939
0.0272785
0.024309
0.0213461
0.0185214
0.0160055
0.0139351
0.0124127
0.0113882
0.0107662
0.0104088
0.0102168
0.0101129
0.0100557
0.0100258
0.0100111
0.0100071
0.00999651
0.00999529
0.00999767
0.00999763
0.0100015
0.0100028
0.0100035
0.0100009
0.0100016
0.00999701
0.00999893
0.0100044
0.0100072
0.0100052
0.0100026
0.0100037
0.0100001
0.0100013
0.00999622
0.00999571
0.00999617
0.00999709
0.0100017
0.0100051
0.010006
0.0100056
0.0100038
0.0100041
0.0100016
0.0100049
0.0100024
0.0100051
0.0100034
0.0100005
0.00999466
0.00999926
0.010004
0.0100031
0.0100034
0.00999997
0.00999578
0.00999687
0.00999782
0.00999618
0.00999953
0.00999716
0.00999639
0.0100002
0.00999403
0.00999795
0.00999809
0.00999501
0.00999702
0.00999712
0.00999449
0.00999493
0.00999408
0.0099961
0.00999685
0.00999873
0.0100038
0.0100022
0.00999938
0.00999687
0.0100015
0.0099992
)
;

boundaryField
{
    inlet
    {
        type            fixedValue;
        value           uniform 0.2;
    }
    outlet
    {
        type            zeroGradient;
    }
    yzfaces
    {
        type            empty;
    }
}


// ************************************************************************* //
