/*--------------------------------*- C++ -*----------------------------------*\
| =========                 |                                                 |
| \\      /  F ield         | foam-extend: Open Source CFD                    |
|  \\    /   O peration     | Version:     5.0                                |
|   \\  /    A nd           | Web:         http://www.foam-extend.org         |
|    \\/     M anipulation  |                                                 |
\*---------------------------------------------------------------------------*/
FoamFile
{
    version     2.0;
    format      ascii;
    class       volScalarField;
    location    "1";
    object      Cl.water;
}
// * * * * * * * * * * * * * * * * * * * * * * * * * * * * * * * * * * * * * //

dimensions      [0 0 0 0 0 0 0];

internalField   nonuniform List<scalar> 
100
(
0.00968972
0.0117908
0.0130392
0.0139446
0.0146593
0.0152324
0.0157374
0.0161803
0.0165667
0.0169344
0.0172731
0.0175991
0.0179202
0.0182327
0.0185451
0.0198359
0.020215
0.0205678
0.020907
0.0212831
0.0216403
0.0219746
0.0222848
0.0225265
0.022712
0.0228273
0.0229059
0.022954
0.0229985
0.0229883
0.0229995
0.022981
0.0229889
0.0229963
0.0230055
0.0230123
0.0230115
0.022999
0.0230009
0.0229995
0.0229966
0.023003
0.0230157
0.0230037
0.0229971
0.0229894
0.0229935
0.0229831
0.0229871
0.0229994
0.0230078
0.0230018
0.0229958
0.0230045
0.0230067
0.0229962
0.0229936
0.0230054
0.0230139
0.0230154
0.023014
0.0230174
0.023
0.0229912
0.022992
0.0229957
0.0229873
0.0229837
0.0229761
0.0229926
0.0230085
0.0230001
0.0230159
0.0230025
0.0229771
0.0229862
0.0230116
0.0230201
0.0230197
0.0230163
0.0230003
0.0230239
0.0230055
0.0229953
0.0229798
0.023001
0.0229974
0.0230135
0.0229994
0.0229764
0.0229801
0.0229832
0.0229809
0.0229966
0.0229819
0.0229872
0.0229939
0.0229721
0.0229832
0.0229892
)
;

boundaryField
{
    inlet
    {
        type            fixedValue;
        value           uniform 0;
    }
    outlet
    {
        type            zeroGradient;
    }
    yzfaces
    {
        type            empty;
    }
}


// ************************************************************************* //
