/*--------------------------------*- C++ -*----------------------------------*\
| =========                 |                                                 |
| \\      /  F ield         | foam-extend: Open Source CFD                    |
|  \\    /   O peration     | Version:     5.0                                |
|   \\  /    A nd           | Web:         http://www.foam-extend.org         |
|    \\/     M anipulation  |                                                 |
\*---------------------------------------------------------------------------*/
FoamFile
{
    version     2.0;
    format      ascii;
    class       volScalarField;
    location    "1";
    object      H2O.gas;
}
// * * * * * * * * * * * * * * * * * * * * * * * * * * * * * * * * * * * * * //

dimensions      [0 0 0 0 0 0 0];

internalField   nonuniform List<scalar> 
100
(
0.000225136
0.000189707
0.000168058
0.000152497
0.000140847
0.000130898
0.000122531
0.000115117
0.000108575
0.00010243
9.66352e-05
9.09872e-05
0.00455106
0.00704763
0.00955838
0.011952
0.0140425
0.0157029
0.0168069
0.0172247
0.0169193
0.0160203
0.0147575
0.0133858
0.0122002
0.0113101
0.0107492
0.0103974
0.0102145
0.0101111
0.0100552
0.0100283
0.0100166
0.0100067
0.00999545
0.00999291
0.00999491
0.00999301
0.0100034
0.0100089
0.0100013
0.00999944
0.0100045
0.00999869
0.0099979
0.010004
0.010004
0.0100032
0.0100032
0.0100039
0.00999907
0.0100031
0.00999889
0.00999475
0.00999373
0.00999707
0.0100036
0.0100051
0.0100046
0.0100101
0.0100087
0.0100007
0.0100082
0.0100008
0.0100047
0.0100022
0.0100004
0.00999836
0.00999543
0.0100032
0.010006
0.0100088
0.0100051
0.00999801
0.00999744
0.00999687
0.00999734
0.00999601
0.00999966
0.00999694
0.0099935
0.00999905
0.00999578
0.00999435
0.00999296
0.00999595
0.00999367
0.00999676
0.00999897
0.00999093
0.00999191
0.00999302
0.00999531
0.0100021
0.0100117
0.00999735
0.0100026
0.00999957
0.00999661
0.00999909
)
;

boundaryField
{
    inlet
    {
        type            fixedValue;
        value           uniform 0;
    }
    outlet
    {
        type            zeroGradient;
    }
    yzfaces
    {
        type            empty;
    }
}


// ************************************************************************* //
