/*--------------------------------*- C++ -*----------------------------------*\
| =========                 |                                                 |
| \\      /  F ield         | foam-extend: Open Source CFD                    |
|  \\    /   O peration     | Version:     5.0                                |
|   \\  /    A nd           | Web:         http://www.foam-extend.org         |
|    \\/     M anipulation  |                                                 |
\*---------------------------------------------------------------------------*/
FoamFile
{
    version     2.0;
    format      ascii;
    class       volScalarField;
    location    "1";
    object      H2O.gas;
}
// * * * * * * * * * * * * * * * * * * * * * * * * * * * * * * * * * * * * * //

dimensions      [0 0 0 0 0 0 0];

internalField   nonuniform List<scalar> 
100
(
0.000225163
0.000189535
0.000168291
0.000152968
0.000140911
0.000131177
0.000122596
0.000115165
0.000108554
0.000102334
9.66718e-05
9.10927e-05
8.56193e-05
8.03204e-05
7.50097e-05
0.00831942
0.0115148
0.013997
0.0156692
0.016512
0.016493
0.015765
0.0145932
0.0132839
0.0121269
0.0112698
0.0107164
0.0103898
0.0102145
0.0101081
0.0100629
0.0100293
0.010015
0.0100068
0.0100058
0.0100096
0.0100106
0.0100039
0.0100015
0.0100026
0.0100005
0.010004
0.010008
0.0100008
0.00999722
0.00999424
0.00999751
0.00999505
0.00999492
0.00999764
0.0100004
0.00999835
0.00999456
0.00999796
0.0100023
0.0100014
0.0100002
0.010004
0.0100057
0.0100062
0.0100071
0.0100092
0.0100029
0.00999818
0.00999652
0.00999903
0.00999668
0.00999269
0.00998921
0.00999463
0.010001
0.00999675
0.0100032
0.00999761
0.00998864
0.0099949
0.0100053
0.0100074
0.0100079
0.0100071
0.00999805
0.010006
0.00999976
0.00999779
0.0099899
0.00999819
0.00999742
0.0100069
0.0100021
0.00999416
0.00999664
0.0100004
0.00999694
0.0100012
0.0099928
0.00999378
0.00999317
0.00998494
0.00999045
0.00999331
)
;

boundaryField
{
    inlet
    {
        type            fixedValue;
        value           uniform 0;
    }
    outlet
    {
        type            zeroGradient;
    }
    yzfaces
    {
        type            empty;
    }
}


// ************************************************************************* //
