/*--------------------------------*- C++ -*----------------------------------*\
| =========                 |                                                 |
| \\      /  F ield         | foam-extend: Open Source CFD                    |
|  \\    /   O peration     | Version:     5.0                                |
|   \\  /    A nd           | Web:         http://www.foam-extend.org         |
|    \\/     M anipulation  |                                                 |
\*---------------------------------------------------------------------------*/
FoamFile
{
    version     2.0;
    format      ascii;
    class       surfaceScalarField;
    location    "1";
    object      phi;
}
// * * * * * * * * * * * * * * * * * * * * * * * * * * * * * * * * * * * * * //

dimensions      [0 3 -1 0 0 0 0];

internalField   nonuniform List<scalar> 
99
(
1.21892e-06
1.22454e-06
1.2196e-06
1.21771e-06
1.21922e-06
1.21939e-06
1.22354e-06
1.2239e-06
1.22206e-06
1.22352e-06
1.22408e-06
1.22355e-06
1.22293e-06
1.22422e-06
1.22484e-06
1.22646e-06
1.22617e-06
1.22664e-06
1.2286e-06
1.2277e-06
1.22835e-06
1.22978e-06
1.23021e-06
1.22923e-06
1.22889e-06
1.2293e-06
1.2281e-06
1.22929e-06
1.22889e-06
1.22884e-06
1.23009e-06
1.23115e-06
1.23158e-06
1.23183e-06
1.23206e-06
1.23027e-06
1.23039e-06
1.23187e-06
1.23111e-06
1.23321e-06
1.23234e-06
1.23116e-06
1.22915e-06
1.22849e-06
1.2292e-06
1.23013e-06
1.2296e-06
1.23036e-06
1.23249e-06
1.23274e-06
1.23118e-06
1.23022e-06
1.23178e-06
1.23186e-06
1.23137e-06
1.23118e-06
1.23162e-06
1.231e-06
1.23182e-06
1.23097e-06
1.23067e-06
1.23048e-06
1.23059e-06
1.22926e-06
1.23039e-06
1.22974e-06
1.23066e-06
1.22881e-06
1.22928e-06
1.22841e-06
1.23016e-06
1.23001e-06
1.22942e-06
1.22948e-06
1.23029e-06
1.23202e-06
1.2317e-06
1.2308e-06
1.23011e-06
1.23036e-06
1.2302e-06
1.23061e-06
1.2292e-06
1.2289e-06
1.231e-06
1.23064e-06
1.23144e-06
1.23285e-06
1.22911e-06
1.22952e-06
1.22934e-06
1.228e-06
1.22756e-06
1.22715e-06
1.22612e-06
1.22629e-06
1.22589e-06
1.22468e-06
1.22643e-06
)
;

boundaryField
{
    inlet
    {
        type            calculated;
        value           uniform -1.225e-06;
    }
    outlet
    {
        type            calculated;
        value           uniform 1.23025e-06;
    }
    yzfaces
    {
        type            empty;
    }
}


// ************************************************************************* //
