/*--------------------------------*- C++ -*----------------------------------*\
| =========                 |                                                 |
| \\      /  F ield         | foam-extend: Open Source CFD                    |
|  \\    /   O peration     | Version:     5.0                                |
|   \\  /    A nd           | Web:         http://www.foam-extend.org         |
|    \\/     M anipulation  |                                                 |
\*---------------------------------------------------------------------------*/
FoamFile
{
    version     2.0;
    format      ascii;
    class       surfaceScalarField;
    location    "1";
    object      phi;
}
// * * * * * * * * * * * * * * * * * * * * * * * * * * * * * * * * * * * * * //

dimensions      [0 3 -1 0 0 0 0];

internalField   nonuniform List<scalar> 
99
(
1.22698e-06
1.22269e-06
1.22052e-06
1.22047e-06
1.21878e-06
1.21943e-06
1.22153e-06
1.22043e-06
1.21714e-06
1.21599e-06
1.21435e-06
1.2178e-06
1.21458e-06
1.21531e-06
1.21445e-06
1.21359e-06
1.21476e-06
1.21607e-06
1.21635e-06
1.21518e-06
1.21557e-06
1.2175e-06
1.21644e-06
1.21588e-06
1.216e-06
1.21849e-06
1.21665e-06
1.21926e-06
1.21866e-06
1.22e-06
1.21993e-06
1.21916e-06
1.21763e-06
1.21785e-06
1.21848e-06
1.21884e-06
1.21995e-06
1.22152e-06
1.22126e-06
1.21906e-06
1.22044e-06
1.2211e-06
1.21995e-06
1.21994e-06
1.22034e-06
1.22006e-06
1.22081e-06
1.2216e-06
1.22129e-06
1.22109e-06
1.22159e-06
1.2211e-06
1.22035e-06
1.22077e-06
1.22193e-06
1.22136e-06
1.22016e-06
1.22125e-06
1.22091e-06
1.21887e-06
1.21784e-06
1.21822e-06
1.21704e-06
1.21865e-06
1.21798e-06
1.21962e-06
1.22003e-06
1.22125e-06
1.22102e-06
1.22031e-06
1.21923e-06
1.21773e-06
1.2175e-06
1.21698e-06
1.21729e-06
1.21712e-06
1.21777e-06
1.21761e-06
1.21777e-06
1.21824e-06
1.21922e-06
1.21954e-06
1.21915e-06
1.22018e-06
1.22197e-06
1.22168e-06
1.22314e-06
1.22247e-06
1.22057e-06
1.22219e-06
1.22289e-06
1.22442e-06
1.22446e-06
1.22293e-06
1.22002e-06
1.22151e-06
1.22043e-06
1.21977e-06
1.2213e-06
)
;

boundaryField
{
    inlet
    {
        type            calculated;
        value           uniform -1.225e-06;
    }
    outlet
    {
        type            calculated;
        value           uniform 1.22201e-06;
    }
    yzfaces
    {
        type            empty;
    }
}


// ************************************************************************* //
