/*--------------------------------*- C++ -*----------------------------------*\
| =========                 |                                                 |
| \\      /  F ield         | foam-extend: Open Source CFD                    |
|  \\    /   O peration     | Version:     5.0                                |
|   \\  /    A nd           | Web:         http://www.foam-extend.org         |
|    \\/     M anipulation  |                                                 |
\*---------------------------------------------------------------------------*/
FoamFile
{
    version     2.0;
    format      ascii;
    class       volScalarField;
    location    "1";
    object      S.gas;
}
// * * * * * * * * * * * * * * * * * * * * * * * * * * * * * * * * * * * * * //

dimensions      [0 0 0 0 0 0 0];

internalField   nonuniform List<scalar> 
100
(
0.578091
0.486618
0.432075
0.392736
0.361779
0.336788
0.314758
0.295677
0.278706
0.262735
0.248198
0.233874
0.219822
0.206217
0.192582
0.178817
0.164923
0.150654
0.135995
0.121113
0.106282
0.0921361
0.0795537
0.0693238
0.0617731
0.0567601
0.0537151
0.0519797
0.0510384
0.0505386
0.050288
0.0501525
0.0500831
0.0500448
0.0500319
0.0500236
0.0500094
0.049999
0.0499899
0.0499988
0.0500016
0.0500037
0.0500019
0.0500062
0.0500102
0.0500121
0.0500107
0.0500012
0.0499996
0.0500014
0.049992
0.0499963
0.0499924
0.0499847
0.0500015
0.0500132
0.0500128
0.0500052
0.0500028
0.0500122
0.0500097
0.0500182
0.0500165
0.0500129
0.0500095
0.0500074
0.0500094
0.0500038
0.0499937
0.0500114
0.0500062
0.0499969
0.0499958
0.0500079
0.0500087
0.0500148
0.0499914
0.0499904
0.0499992
0.0499985
0.0499959
0.0499973
0.0500066
0.0500154
0.0500115
0.0500136
0.0500086
0.0500098
0.0500022
0.0500092
0.0500041
0.0500112
0.050004
0.0500001
0.0499995
0.0500006
0.0499883
0.0499811
0.0499948
0.0499927
)
;

boundaryField
{
    inlet
    {
        type            calculated;
        value           uniform 1;
    }
    outlet
    {
        type            calculated;
        value           uniform 0.0499927;
    }
    yzfaces
    {
        type            empty;
    }
}


// ************************************************************************* //
