/*--------------------------------*- C++ -*----------------------------------*\
| =========                 |                                                 |
| \\      /  F ield         | foam-extend: Open Source CFD                    |
|  \\    /   O peration     | Version:     5.0                                |
|   \\  /    A nd           | Web:         http://www.foam-extend.org         |
|    \\/     M anipulation  |                                                 |
\*---------------------------------------------------------------------------*/
FoamFile
{
    version     2.0;
    format      ascii;
    class       volScalarField;
    location    "1";
    object      S.gas;
}
// * * * * * * * * * * * * * * * * * * * * * * * * * * * * * * * * * * * * * //

dimensions      [0 0 0 0 0 0 0];

internalField   nonuniform List<scalar> 
100
(
0.578022
0.487061
0.431479
0.391525
0.361615
0.336071
0.31459
0.295555
0.278759
0.262983
0.248104
0.233603
0.219936
0.206344
0.192843
0.179272
0.165236
0.15097
0.136393
0.121545
0.10673
0.0926071
0.0800277
0.0696754
0.0620635
0.0569409
0.0538312
0.0520438
0.0510838
0.0505643
0.0502786
0.0501289
0.0500555
0.0500354
0.0499825
0.0499764
0.0499883
0.0499882
0.0500076
0.0500138
0.0500174
0.0500043
0.0500078
0.049985
0.0499946
0.050022
0.0500362
0.0500258
0.0500131
0.0500187
0.0500003
0.0500067
0.0499811
0.0499786
0.0499809
0.0499854
0.0500086
0.0500256
0.0500299
0.0500281
0.050019
0.0500206
0.0500082
0.0500245
0.0500118
0.0500256
0.050017
0.0500026
0.0499733
0.0499963
0.0500202
0.0500156
0.0500169
0.0499999
0.0499789
0.0499844
0.0499891
0.0499809
0.0499976
0.0499858
0.049982
0.0500008
0.0499701
0.0499897
0.0499904
0.049975
0.0499851
0.0499856
0.0499725
0.0499747
0.0499704
0.0499805
0.0499842
0.0499936
0.0500189
0.050011
0.0499969
0.0499843
0.0500076
0.049996
)
;

boundaryField
{
    inlet
    {
        type            calculated;
        value           uniform 1;
    }
    outlet
    {
        type            calculated;
        value           uniform 0.049996;
    }
    yzfaces
    {
        type            empty;
    }
}


// ************************************************************************* //
