/*--------------------------------*- C++ -*----------------------------------*\
| =========                 |                                                 |
| \\      /  F ield         | foam-extend: Open Source CFD                    |
|  \\    /   O peration     | Version:     5.0                                |
|   \\  /    A nd           | Web:         http://www.foam-extend.org         |
|    \\/     M anipulation  |                                                 |
\*---------------------------------------------------------------------------*/
FoamFile
{
    version     2.0;
    format      ascii;
    class       volVectorField;
    location    "1";
    object      U.gas;
}
// * * * * * * * * * * * * * * * * * * * * * * * * * * * * * * * * * * * * * //

dimensions      [0 1 -1 0 0 0 0];

internalField   nonuniform List<vector> 
100
(
(0.00852987 0 0)
(0.00980942 0 0)
(0.0106948 0 0)
(0.0113849 0 0)
(0.0119002 0 0)
(0.0123486 0 0)
(0.0127164 0 0)
(0.0130143 0 0)
(0.0132092 0 0)
(0.013367 0 0)
(0.0134795 0 0)
(0.0135723 0 0)
(0.0135851 0 0)
(0.013535 0 0)
(0.0134268 0 0)
(0.0132334 0 0)
(0.0129651 0 0)
(0.0125792 0 0)
(0.0120564 0 0)
(0.0113729 0 0)
(0.010524 0 0)
(0.00953534 0 0)
(0.00845459 0 0)
(0.00738626 0 0)
(0.00645262 0 0)
(0.00575028 0 0)
(0.00527187 0 0)
(0.00498056 0 0)
(0.00481674 0 0)
(0.00472861 0 0)
(0.00468234 0 0)
(0.00465436 0 0)
(0.00463616 0 0)
(0.00462669 0 0)
(0.00462555 0 0)
(0.00462255 0 0)
(0.00462468 0 0)
(0.00463061 0 0)
(0.00463397 0 0)
(0.00463112 0 0)
(0.00463005 0 0)
(0.00463432 0 0)
(0.00463197 0 0)
(0.00463048 0 0)
(0.0046292 0 0)
(0.00463046 0 0)
(0.00463363 0 0)
(0.00463741 0 0)
(0.00463775 0 0)
(0.00463544 0 0)
(0.00463674 0 0)
(0.00463551 0 0)
(0.00463346 0 0)
(0.00462997 0 0)
(0.00463279 0 0)
(0.00463485 0 0)
(0.0046324 0 0)
(0.00463354 0 0)
(0.00463574 0 0)
(0.00463242 0 0)
(0.00462681 0 0)
(0.00462438 0 0)
(0.00462254 0 0)
(0.00462169 0 0)
(0.00462521 0 0)
(0.00462617 0 0)
(0.00463142 0 0)
(0.0046339 0 0)
(0.00463433 0 0)
(0.00463002 0 0)
(0.00462868 0 0)
(0.00462568 0 0)
(0.00462247 0 0)
(0.00462123 0 0)
(0.00461852 0 0)
(0.00461631 0 0)
(0.00461825 0 0)
(0.00461978 0 0)
(0.00461827 0 0)
(0.00462092 0 0)
(0.00462292 0 0)
(0.00462527 0 0)
(0.00462715 0 0)
(0.00462575 0 0)
(0.00463282 0 0)
(0.00463547 0 0)
(0.00463669 0 0)
(0.0046396 0 0)
(0.00463456 0 0)
(0.00463259 0 0)
(0.00463702 0 0)
(0.00464062 0 0)
(0.00464456 0 0)
(0.00464282 0 0)
(0.00463532 0 0)
(0.0046339 0 0)
(0.0046336 0 0)
(0.00462972 0 0)
(0.00463105 0 0)
(0.00463933 0 0)
)
;

boundaryField
{
    inlet
    {
        type            fixedValue;
        value           uniform (0.005 0 0);
    }
    outlet
    {
        type            zeroGradient;
    }
    yzfaces
    {
        type            empty;
    }
}


// ************************************************************************* //
