/*--------------------------------*- C++ -*----------------------------------*\
| =========                 |                                                 |
| \\      /  F ield         | foam-extend: Open Source CFD                    |
|  \\    /   O peration     | Version:     5.0                                |
|   \\  /    A nd           | Web:         http://www.foam-extend.org         |
|    \\/     M anipulation  |                                                 |
\*---------------------------------------------------------------------------*/
FoamFile
{
    version     2.0;
    format      ascii;
    class       volVectorField;
    location    "1";
    object      U.water;
}
// * * * * * * * * * * * * * * * * * * * * * * * * * * * * * * * * * * * * * //

dimensions      [0 1 -1 0 0 0 0];

internalField   nonuniform List<vector> 
100
(
(0.000173386 0 0)
(0.00043176 0 0)
(0.000653289 0 0)
(0.000856096 0 0)
(0.00105164 0 0)
(0.00124071 0 0)
(0.00142798 0 0)
(0.00161622 0 0)
(0.00179733 0 0)
(0.00197902 0 0)
(0.00216476 0 0)
(0.00235152 0 0)
(0.00254709 0 0)
(0.00275067 0 0)
(0.0029614 0 0)
(0.00318283 0 0)
(0.00341071 0 0)
(0.00364386 0 0)
(0.00388563 0 0)
(0.00412317 0 0)
(0.00434709 0 0)
(0.00455118 0 0)
(0.00471881 0 0)
(0.00483987 0 0)
(0.00491951 0 0)
(0.00497079 0 0)
(0.00499883 0 0)
(0.00501518 0 0)
(0.0050256 0 0)
(0.00502928 0 0)
(0.00503418 0 0)
(0.00504015 0 0)
(0.0050438 0 0)
(0.00504555 0 0)
(0.00504675 0 0)
(0.00504357 0 0)
(0.0050402 0 0)
(0.00504356 0 0)
(0.00504506 0 0)
(0.00504785 0 0)
(0.00505037 0 0)
(0.00504615 0 0)
(0.00503955 0 0)
(0.00503408 0 0)
(0.00503417 0 0)
(0.00503752 0 0)
(0.00503834 0 0)
(0.00503881 0 0)
(0.00504478 0 0)
(0.00504967 0 0)
(0.00504696 0 0)
(0.00504187 0 0)
(0.00504308 0 0)
(0.00504648 0 0)
(0.00504569 0 0)
(0.0050442 0 0)
(0.00504465 0 0)
(0.00504427 0 0)
(0.00504472 0 0)
(0.00504468 0 0)
(0.00504226 0 0)
(0.00504125 0 0)
(0.00504108 0 0)
(0.00503862 0 0)
(0.00503819 0 0)
(0.0050392 0 0)
(0.00503979 0 0)
(0.00503787 0 0)
(0.00503507 0 0)
(0.00503427 0 0)
(0.00503599 0 0)
(0.0050393 0 0)
(0.00503782 0 0)
(0.00503673 0 0)
(0.00503846 0 0)
(0.00504367 0 0)
(0.00504648 0 0)
(0.00504412 0 0)
(0.00504088 0 0)
(0.0050399 0 0)
(0.00504011 0 0)
(0.00504067 0 0)
(0.00503862 0 0)
(0.00503504 0 0)
(0.00503868 0 0)
(0.00504226 0 0)
(0.00504316 0 0)
(0.00504773 0 0)
(0.00504293 0 0)
(0.00503613 0 0)
(0.00503657 0 0)
(0.00503349 0 0)
(0.00502979 0 0)
(0.00502806 0 0)
(0.00502515 0 0)
(0.00502345 0 0)
(0.00502298 0 0)
(0.0050197 0 0)
(0.00502081 0 0)
(0.00503225 0 0)
)
;

boundaryField
{
    inlet
    {
        type            fixedValue;
        value           uniform (0 0 0);
    }
    outlet
    {
        type            zeroGradient;
    }
    yzfaces
    {
        type            empty;
    }
}


// ************************************************************************* //
