/*--------------------------------*- C++ -*----------------------------------*\
| =========                 |                                                 |
| \\      /  F ield         | foam-extend: Open Source CFD                    |
|  \\    /   O peration     | Version:     5.0                                |
|   \\  /    A nd           | Web:         http://www.foam-extend.org         |
|    \\/     M anipulation  |                                                 |
\*---------------------------------------------------------------------------*/
FoamFile
{
    version     2.0;
    format      ascii;
    class       volScalarField;
    location    "9";
    object      alpha.water;
}
// * * * * * * * * * * * * * * * * * * * * * * * * * * * * * * * * * * * * * //

dimensions      [0 0 0 0 0 0 0];

internalField   nonuniform List<scalar> 
100
(
0.0152549
0.0225967
0.0283535
0.0332222
0.0373889
0.0410914
0.0444168
0.0473941
0.050125
0.0525902
0.0549176
0.0570294
0.0590566
0.0609216
0.0626776
0.0643737
0.0659821
0.0674682
0.0689094
0.0703025
0.0716163
0.0728633
0.0740894
0.0752526
0.0763571
0.077433
0.078449
0.0794488
0.0803083
0.0812285
0.0820655
0.0829023
0.0836805
0.0844842
0.0852235
0.0859687
0.0866766
0.0873516
0.0880112
0.0886575
0.0892745
0.0898836
0.0904455
0.0910809
0.0917502
0.0923163
0.09291
0.0935071
0.094068
0.0946013
0.0951139
0.0956373
0.0961491
0.0966305
0.0971349
0.0975819
0.0980488
0.0985651
0.0990385
0.0995153
0.0999381
0.100364
0.100838
0.101263
0.101658
0.102025
0.102393
0.102789
0.103167
0.103566
0.103929
0.10428
0.10461
0.104939
0.105227
0.105554
0.105839
0.106131
0.10642
0.106661
0.106942
0.107214
0.107504
0.107813
0.108088
0.108392
0.108634
0.108922
0.109195
0.109472
0.109755
0.110045
0.110326
0.110583
0.110894
0.111147
0.111443
0.111696
0.111945
0.112184
)
;

boundaryField
{
    inlet
    {
        type            fixedValue;
        value           uniform 0;
    }
    outlet
    {
        type            zeroGradient;
    }
    yzfaces
    {
        type            empty;
    }
}


// ************************************************************************* //
