/*--------------------------------*- C++ -*----------------------------------*\
| =========                 |                                                 |
| \\      /  F ield         | foam-extend: Open Source CFD                    |
|  \\    /   O peration     | Version:     5.0                                |
|   \\  /    A nd           | Web:         http://www.foam-extend.org         |
|    \\/     M anipulation  |                                                 |
\*---------------------------------------------------------------------------*/
FoamFile
{
    version     2.0;
    format      ascii;
    class       volScalarField;
    location    "9";
    object      CO2.gas;
}
// * * * * * * * * * * * * * * * * * * * * * * * * * * * * * * * * * * * * * //

dimensions      [0 0 0 0 0 0 0];

internalField   nonuniform List<scalar> 
100
(
0.184705
0.177284
0.171663
0.166616
0.16262
0.158867
0.155457
0.152544
0.149792
0.147468
0.145094
0.143118
0.141023
0.139233
0.137478
0.13571
0.134048
0.132582
0.131097
0.129639
0.128304
0.127035
0.125753
0.124532
0.12342
0.122314
0.121289
0.120273
0.119538
0.118604
0.11783
0.11701
0.116287
0.115481
0.114793
0.114044
0.113357
0.112744
0.112121
0.111487
0.110904
0.110324
0.109826
0.109165
0.108395
0.107843
0.107226
0.106574
0.106002
0.105448
0.104949
0.104411
0.103882
0.103409
0.102872
0.102442
0.101972
0.101387
0.100902
0.100408
0.0999918
0.099558
0.099027
0.0986032
0.0982031
0.0978701
0.0975087
0.0970929
0.0967155
0.0963031
0.0959442
0.0956059
0.0952832
0.0949653
0.0947145
0.0943878
0.0941364
0.0938771
0.0936025
0.0934351
0.0931685
0.0929248
0.092638
0.0923171
0.0920586
0.0917537
0.0915445
0.0912407
0.0909777
0.0906941
0.0904004
0.0900858
0.0898001
0.0895535
0.0891941
0.0889607
0.0886308
0.0883902
0.0881307
0.0878904
)
;

boundaryField
{
    inlet
    {
        type            fixedValue;
        value           uniform 0.2;
    }
    outlet
    {
        type            zeroGradient;
    }
    yzfaces
    {
        type            empty;
    }
}


// ************************************************************************* //
