/*--------------------------------*- C++ -*----------------------------------*\
| =========                 |                                                 |
| \\      /  F ield         | foam-extend: Open Source CFD                    |
|  \\    /   O peration     | Version:     5.0                                |
|   \\  /    A nd           | Web:         http://www.foam-extend.org         |
|    \\/     M anipulation  |                                                 |
\*---------------------------------------------------------------------------*/
FoamFile
{
    version     2.0;
    format      ascii;
    class       volScalarField;
    location    "9";
    object      H2O.water;
}
// * * * * * * * * * * * * * * * * * * * * * * * * * * * * * * * * * * * * * //

dimensions      [0 0 0 0 0 0 0];

internalField   nonuniform List<scalar> 
100
(
0.0152516
0.0225815
0.0283563
0.03319
0.037391
0.0410807
0.0443808
0.0473748
0.0500972
0.0526112
0.0549221
0.0570882
0.05909
0.0609892
0.0627487
0.0644136
0.0659971
0.0674937
0.0689125
0.070271
0.0715719
0.072805
0.0739968
0.0751227
0.0762192
0.077273
0.07828
0.0792653
0.080205
0.0811142
0.0819931
0.08284
0.083657
0.0844586
0.0852359
0.0859784
0.0867026
0.0874255
0.088115
0.0887727
0.0894185
0.0900529
0.0906697
0.0912863
0.0918729
0.0924532
0.0930281
0.0935785
0.0941305
0.0946451
0.0951711
0.0956814
0.0961776
0.0966675
0.0971413
0.0976042
0.0980685
0.0985184
0.0989802
0.0994395
0.099868
0.100285
0.100701
0.101125
0.101513
0.101915
0.102289
0.102665
0.103042
0.103425
0.103791
0.104157
0.104493
0.104833
0.105162
0.10549
0.105811
0.106141
0.106445
0.106771
0.107068
0.107375
0.107669
0.107966
0.108261
0.108564
0.108847
0.109118
0.109404
0.109672
0.109945
0.110205
0.110481
0.110752
0.111003
0.111282
0.111536
0.111806
0.112041
0.112279
)
;

boundaryField
{
    inlet
    {
        type            fixedValue;
        value           uniform 0;
    }
    outlet
    {
        type            zeroGradient;
    }
    yzfaces
    {
        type            empty;
    }
}


// ************************************************************************* //
