/*--------------------------------*- C++ -*----------------------------------*\
| =========                 |                                                 |
| \\      /  F ield         | foam-extend: Open Source CFD                    |
|  \\    /   O peration     | Version:     5.0                                |
|   \\  /    A nd           | Web:         http://www.foam-extend.org         |
|    \\/     M anipulation  |                                                 |
\*---------------------------------------------------------------------------*/
FoamFile
{
    version     2.0;
    format      ascii;
    class       surfaceScalarField;
    location    "9";
    object      phi;
}
// * * * * * * * * * * * * * * * * * * * * * * * * * * * * * * * * * * * * * //

dimensions      [0 3 -1 0 0 0 0];

internalField   nonuniform List<scalar> 
99
(
1.22601e-05
1.22527e-05
1.22682e-05
1.22551e-05
1.22346e-05
1.22356e-05
1.22293e-05
1.22305e-05
1.22397e-05
1.22469e-05
1.22539e-05
1.22505e-05
1.22481e-05
1.22385e-05
1.22354e-05
1.22385e-05
1.22184e-05
1.22087e-05
1.22082e-05
1.21991e-05
1.21811e-05
1.21821e-05
1.2176e-05
1.21859e-05
1.21752e-05
1.21896e-05
1.2184e-05
1.21891e-05
1.2197e-05
1.21822e-05
1.21863e-05
1.21882e-05
1.21833e-05
1.21932e-05
1.21925e-05
1.22046e-05
1.22165e-05
1.22168e-05
1.22206e-05
1.22164e-05
1.22231e-05
1.22364e-05
1.22323e-05
1.22368e-05
1.22289e-05
1.22158e-05
1.22175e-05
1.22051e-05
1.22096e-05
1.22074e-05
1.22035e-05
1.21995e-05
1.21993e-05
1.2192e-05
1.2185e-05
1.21772e-05
1.21831e-05
1.21792e-05
1.21725e-05
1.21802e-05
1.21852e-05
1.21788e-05
1.21754e-05
1.21889e-05
1.21797e-05
1.21804e-05
1.21787e-05
1.21745e-05
1.21689e-05
1.21748e-05
1.21742e-05
1.21704e-05
1.21755e-05
1.21771e-05
1.21789e-05
1.21763e-05
1.21771e-05
1.21834e-05
1.21987e-05
1.22047e-05
1.22054e-05
1.2205e-05
1.22099e-05
1.22088e-05
1.22119e-05
1.22143e-05
1.22115e-05
1.22108e-05
1.22125e-05
1.22132e-05
1.22173e-05
1.22138e-05
1.22087e-05
1.2207e-05
1.22051e-05
1.22004e-05
1.22006e-05
1.22023e-05
1.22017e-05
)
;

boundaryField
{
    inlet
    {
        type            calculated;
        value           uniform -1.225e-05;
    }
    outlet
    {
        type            calculated;
        value           uniform 1.22097e-05;
    }
    yzfaces
    {
        type            empty;
    }
}


// ************************************************************************* //
