/*--------------------------------*- C++ -*----------------------------------*\
| =========                 |                                                 |
| \\      /  F ield         | foam-extend: Open Source CFD                    |
|  \\    /   O peration     | Version:     5.0                                |
|   \\  /    A nd           | Web:         http://www.foam-extend.org         |
|    \\/     M anipulation  |                                                 |
\*---------------------------------------------------------------------------*/
FoamFile
{
    version     2.0;
    format      ascii;
    class       surfaceScalarField;
    location    "9";
    object      phi.water;
}
// * * * * * * * * * * * * * * * * * * * * * * * * * * * * * * * * * * * * * //

dimensions      [0 3 -1 0 0 0 0];

internalField   nonuniform List<scalar> 
99
(
7.77441e-08
1.3734e-07
1.91279e-07
2.42253e-07
2.89662e-07
3.36634e-07
3.8174e-07
4.25185e-07
4.68119e-07
5.09086e-07
5.50322e-07
5.88954e-07
6.28713e-07
6.6539e-07
7.02869e-07
7.41141e-07
7.77471e-07
8.12489e-07
8.48962e-07
8.85163e-07
9.19223e-07
9.5399e-07
9.88742e-07
1.02498e-06
1.05766e-06
1.09339e-06
1.12614e-06
1.16e-06
1.18856e-06
1.21977e-06
1.24939e-06
1.28023e-06
1.30844e-06
1.34014e-06
1.3684e-06
1.40021e-06
1.43006e-06
1.45768e-06
1.48541e-06
1.51343e-06
1.54123e-06
1.56944e-06
1.59378e-06
1.62455e-06
1.65626e-06
1.68213e-06
1.71186e-06
1.74089e-06
1.77047e-06
1.79819e-06
1.82387e-06
1.85187e-06
1.88042e-06
1.90598e-06
1.93322e-06
1.95738e-06
1.98498e-06
2.01647e-06
2.043e-06
2.0741e-06
2.1008e-06
2.12638e-06
2.15663e-06
2.18649e-06
2.2112e-06
2.23424e-06
2.25845e-06
2.28407e-06
2.30899e-06
2.3382e-06
2.36305e-06
2.38694e-06
2.4109e-06
2.43482e-06
2.45593e-06
2.47924e-06
2.49915e-06
2.52229e-06
2.54645e-06
2.56469e-06
2.58569e-06
2.60621e-06
2.63016e-06
2.65427e-06
2.67651e-06
2.70248e-06
2.72073e-06
2.74359e-06
2.76695e-06
2.79082e-06
2.81588e-06
2.84066e-06
2.86427e-06
2.88568e-06
2.91339e-06
2.93525e-06
2.96265e-06
2.98674e-06
3.00852e-06
)
;

boundaryField
{
    inlet
    {
        type            fixedValue;
        value           uniform 0;
    }
    outlet
    {
        type            calculated;
        value           uniform 3.03589e-06;
    }
    yzfaces
    {
        type            empty;
    }
}


// ************************************************************************* //
