/*--------------------------------*- C++ -*----------------------------------*\
| =========                 |                                                 |
| \\      /  F ield         | foam-extend: Open Source CFD                    |
|  \\    /   O peration     | Version:     5.0                                |
|   \\  /    A nd           | Web:         http://www.foam-extend.org         |
|    \\/     M anipulation  |                                                 |
\*---------------------------------------------------------------------------*/
FoamFile
{
    version     2.0;
    format      ascii;
    class       surfaceScalarField;
    location    "9";
    object      phi.gas;
}
// * * * * * * * * * * * * * * * * * * * * * * * * * * * * * * * * * * * * * //

dimensions      [0 3 -1 0 0 0 0];

internalField   nonuniform List<scalar> 
99
(
6.77289e-05
7.02065e-05
7.24983e-05
7.43938e-05
7.60416e-05
7.7762e-05
7.92972e-05
8.07695e-05
8.21885e-05
8.35347e-05
8.48198e-05
8.59875e-05
8.71374e-05
8.81596e-05
8.92474e-05
9.03781e-05
9.12612e-05
9.21824e-05
9.31913e-05
9.41004e-05
9.48918e-05
9.58277e-05
9.67077e-05
9.76666e-05
9.84319e-05
9.93792e-05
0.000100142
0.000100885
0.000101629
0.000102207
0.000102907
0.000103573
0.000104185
0.000104914
0.000105537
0.000106276
0.000106961
0.000107521
0.000108129
0.000108652
0.000109252
0.000109876
0.000110391
0.000111124
0.000111694
0.000112148
0.000112795
0.000113293
0.000113903
0.000114419
0.000114916
0.000115433
0.000115953
0.000116417
0.000116863
0.00011727
0.0001179
0.000118445
0.000118919
0.000119496
0.00012002
0.000120504
0.000121011
0.000121615
0.000121942
0.00012235
0.000122787
0.00012321
0.00012362
0.000124137
0.000124547
0.000124904
0.000125343
0.000125701
0.000126071
0.000126396
0.000126717
0.00012711
0.000127538
0.00012787
0.000128195
0.000128525
0.000128965
0.000129321
0.000129716
0.000130067
0.000130371
0.000130733
0.00013111
0.000131498
0.000131947
0.00013231
0.000132608
0.000133004
0.000133382
0.000133715
0.000134106
0.000134466
0.000134805
)
;

boundaryField
{
    inlet
    {
        type            fixedValue;
        value           uniform -6.125e-05;
    }
    outlet
    {
        type            calculated;
        value           uniform 0.000135042;
    }
    yzfaces
    {
        type            empty;
    }
}


// ************************************************************************* //
