/*--------------------------------*- C++ -*----------------------------------*\
| =========                 |                                                 |
| \\      /  F ield         | foam-extend: Open Source CFD                    |
|  \\    /   O peration     | Version:     5.0                                |
|   \\  /    A nd           | Web:         http://www.foam-extend.org         |
|    \\/     M anipulation  |                                                 |
\*---------------------------------------------------------------------------*/
FoamFile
{
    version     2.0;
    format      ascii;
    class       volVectorField;
    location    "9";
    object      U.gas;
}
// * * * * * * * * * * * * * * * * * * * * * * * * * * * * * * * * * * * * * //

dimensions      [0 1 -1 0 0 0 0];

internalField   nonuniform List<vector> 
100
(
(0.0541476 0 0)
(0.0563867 0 0)
(0.0582868 0 0)
(0.0599818 0 0)
(0.0614205 0 0)
(0.0627865 0 0)
(0.0640986 0 0)
(0.0653184 0 0)
(0.0665192 0 0)
(0.0676588 0 0)
(0.068765 0 0)
(0.0697713 0 0)
(0.0707382 0 0)
(0.0716312 0 0)
(0.0724886 0 0)
(0.0733733 0 0)
(0.0741803 0 0)
(0.0748985 0 0)
(0.075668 0 0)
(0.0764273 0 0)
(0.0771001 0 0)
(0.0777786 0 0)
(0.0784953 0 0)
(0.0792149 0 0)
(0.0798953 0 0)
(0.0805841 0 0)
(0.081262 0 0)
(0.0819093 0 0)
(0.0825172 0 0)
(0.0831085 0 0)
(0.0836371 0 0)
(0.0842312 0 0)
(0.0847595 0 0)
(0.0853414 0 0)
(0.0858985 0 0)
(0.086475 0 0)
(0.087075 0 0)
(0.0876154 0 0)
(0.0881213 0 0)
(0.0886063 0 0)
(0.0890835 0 0)
(0.0896243 0 0)
(0.0900934 0 0)
(0.0905947 0 0)
(0.0911132 0 0)
(0.0914852 0 0)
(0.091922 0 0)
(0.0923681 0 0)
(0.092798 0 0)
(0.093248 0 0)
(0.093653 0 0)
(0.0940647 0 0)
(0.0944833 0 0)
(0.0948656 0 0)
(0.0952467 0 0)
(0.0955765 0 0)
(0.0959791 0 0)
(0.0964446 0 0)
(0.0968235 0 0)
(0.0972564 0 0)
(0.0976882 0 0)
(0.0980712 0 0)
(0.0984698 0 0)
(0.098902 0 0)
(0.0992871 0 0)
(0.0995965 0 0)
(0.0999406 0 0)
(0.100295 0 0)
(0.100615 0 0)
(0.101002 0 0)
(0.101375 0 0)
(0.1017 0 0)
(0.102028 0 0)
(0.102381 0 0)
(0.10268 0 0)
(0.103005 0 0)
(0.103282 0 0)
(0.103608 0 0)
(0.103992 0 0)
(0.104328 0 0)
(0.104646 0 0)
(0.104929 0 0)
(0.105249 0 0)
(0.10559 0 0)
(0.105885 0 0)
(0.10623 0 0)
(0.106482 0 0)
(0.106776 0 0)
(0.107072 0 0)
(0.10738 0 0)
(0.107707 0 0)
(0.108025 0 0)
(0.108293 0 0)
(0.108544 0 0)
(0.108874 0 0)
(0.109122 0 0)
(0.109434 0 0)
(0.109723 0 0)
(0.110006 0 0)
(0.11031 0 0)
)
;

boundaryField
{
    inlet
    {
        type            fixedValue;
        value           uniform (0.05 0 0);
    }
    outlet
    {
        type            zeroGradient;
    }
    yzfaces
    {
        type            empty;
    }
}


// ************************************************************************* //
