/*--------------------------------*- C++ -*----------------------------------*\
| =========                 |                                                 |
| \\      /  F ield         | foam-extend: Open Source CFD                    |
|  \\    /   O peration     | Version:     5.0                                |
|   \\  /    A nd           | Web:         http://www.foam-extend.org         |
|    \\/     M anipulation  |                                                 |
\*---------------------------------------------------------------------------*/
FoamFile
{
    version     2.0;
    format      ascii;
    class       volVectorField;
    location    "9";
    object      U.water;
}
// * * * * * * * * * * * * * * * * * * * * * * * * * * * * * * * * * * * * * //

dimensions      [0 1 -1 0 0 0 0];

internalField   nonuniform List<vector> 
100
(
(3.93491e-05 0 0)
(8.97469e-05 0 0)
(0.000135089 0 0)
(0.000177353 0 0)
(0.000217399 0 0)
(0.000255773 0 0)
(0.000293123 0 0)
(0.000329285 0 0)
(0.00036449 0 0)
(0.000399017 0 0)
(0.000432505 0 0)
(0.000465444 0 0)
(0.00049734 0 0)
(0.000528713 0 0)
(0.000559105 0 0)
(0.000589768 0 0)
(0.000619951 0 0)
(0.000649176 0 0)
(0.000678176 0 0)
(0.000707483 0 0)
(0.000735976 0 0)
(0.000763974 0 0)
(0.000791896 0 0)
(0.000820538 0 0)
(0.000848496 0 0)
(0.000876127 0 0)
(0.000903999 0 0)
(0.000930911 0 0)
(0.000957337 0 0)
(0.000981584 0 0)
(0.0010069 0 0)
(0.0010317 0 0)
(0.00105631 0 0)
(0.00108071 0 0)
(0.00110563 0 0)
(0.00113017 0 0)
(0.0011556 0 0)
(0.0011796 0 0)
(0.00120261 0 0)
(0.00122561 0 0)
(0.00124881 0 0)
(0.00127203 0 0)
(0.00129434 0 0)
(0.0013165 0 0)
(0.00134092 0 0)
(0.00136464 0 0)
(0.00138701 0 0)
(0.0014104 0 0)
(0.00143406 0 0)
(0.00145735 0 0)
(0.00147925 0 0)
(0.00150097 0 0)
(0.00152384 0 0)
(0.00154602 0 0)
(0.00156711 0 0)
(0.00158839 0 0)
(0.00160942 0 0)
(0.00163255 0 0)
(0.00165597 0 0)
(0.00167907 0 0)
(0.00170282 0 0)
(0.00172404 0 0)
(0.00174585 0 0)
(0.00177016 0 0)
(0.00179251 0 0)
(0.00181241 0 0)
(0.00183192 0 0)
(0.00185187 0 0)
(0.00187249 0 0)
(0.00189418 0 0)
(0.00191635 0 0)
(0.00193635 0 0)
(0.00195615 0 0)
(0.00197581 0 0)
(0.001995 0 0)
(0.00201311 0 0)
(0.00203152 0 0)
(0.00204964 0 0)
(0.00206949 0 0)
(0.0020882 0 0)
(0.00210475 0 0)
(0.00212227 0 0)
(0.0021406 0 0)
(0.00215997 0 0)
(0.00217936 0 0)
(0.0021989 0 0)
(0.00221783 0 0)
(0.00223442 0 0)
(0.00225341 0 0)
(0.00227267 0 0)
(0.00229235 0 0)
(0.00231225 0 0)
(0.0023318 0 0)
(0.00235041 0 0)
(0.00236946 0 0)
(0.00238998 0 0)
(0.00240941 0 0)
(0.00243052 0 0)
(0.00244917 0 0)
(0.00246789 0 0)
)
;

boundaryField
{
    inlet
    {
        type            fixedValue;
        value           uniform (0 0 0);
    }
    outlet
    {
        type            zeroGradient;
    }
    yzfaces
    {
        type            empty;
    }
}


// ************************************************************************* //
