/*--------------------------------*- C++ -*----------------------------------*\
| =========                 |                                                 |
| \\      /  F ield         | foam-extend: Open Source CFD                    |
|  \\    /   O peration     | Version:     5.0                                |
|   \\  /    A nd           | Web:         http://www.foam-extend.org         |
|    \\/     M anipulation  |                                                 |
\*---------------------------------------------------------------------------*/
FoamFile
{
    version     2.0;
    format      ascii;
    class       volScalarField;
    location    "1.47177295946";
    object      alpha.gas;
}
// * * * * * * * * * * * * * * * * * * * * * * * * * * * * * * * * * * * * * //

dimensions      [0 0 0 0 0 0 0];

internalField   nonuniform List<scalar> 
100
(
0.124751
0.107132
0.0963261
0.0883845
0.0820059
0.0768957
0.0721558
0.0681042
0.0640917
0.0606147
0.0565135
0.0524496
0.0489302
0.0459908
0.0260462
0.0319929
0.0347793
0.0358206
0.0358206
0.0352724
0.0343216
0.0330986
0.0316298
0.030006
0.0281886
0.0261916
0.0240617
0.0218068
0.0195242
0.0173082
0.0153064
0.0136265
0.0123401
0.0114374
0.0108488
0.0104892
0.0102745
0.0101526
0.0100838
0.0100471
0.0100237
0.0100096
0.0100055
0.0100025
0.0100011
0.0100006
0.00999967
0.00999684
0.00999605
0.00999769
0.00999849
0.00999796
0.0100006
0.0100017
0.0100028
0.0100024
0.0100019
0.0100026
0.00999967
0.00999906
0.00999757
0.00999798
0.010001
0.0100001
0.0100008
0.0100002
0.00999988
0.0100004
0.0100011
0.0100017
0.0100027
0.010004
0.0100034
0.0100012
0.0100006
0.0100006
0.0100004
0.00999939
0.00999951
0.00999885
0.00999973
0.00999852
0.0100003
0.010002
0.0100025
0.0100012
0.0100009
0.0100023
0.0100014
0.0100022
0.00999961
0.0099977
0.0099964
0.00999651
0.00999894
0.00999832
0.00999937
0.00999915
0.00999837
0.0100025
)
;

boundaryField
{
    inlet
    {
        type            fixedValue;
        value           uniform 0.2;
    }
    outlet
    {
        type            zeroGradient;
    }
    yzfaces
    {
        type            empty;
    }
}


// ************************************************************************* //
