/*--------------------------------*- C++ -*----------------------------------*\
| =========                 |                                                 |
| \\      /  F ield         | foam-extend: Open Source CFD                    |
|  \\    /   O peration     | Version:     5.0                                |
|   \\  /    A nd           | Web:         http://www.foam-extend.org         |
|    \\/     M anipulation  |                                                 |
\*---------------------------------------------------------------------------*/
FoamFile
{
    version     2.0;
    format      ascii;
    class       volScalarField;
    location    "1.47177295946";
    object      Cl.water;
}
// * * * * * * * * * * * * * * * * * * * * * * * * * * * * * * * * * * * * * //

dimensions      [0 0 0 0 0 0 0];

internalField   nonuniform List<scalar> 
100
(
0
0.00522753
0.00912536
0.00644664
0.00709053
0.00970209
0.00720718
0.00782532
0.0105511
0.0133337
0.00708989
0.00973
0.0138808
0.0166506
0.00232318
0.0158015
0.0189873
0.0196588
0.0198093
0.0199182
0.0200428
0.0201902
0.0203679
0.0205831
0.0208099
0.0210433
0.021312
0.0215475
0.0218211
0.0220972
0.0223345
0.0225479
0.0226979
0.0228261
0.0228987
0.0229224
0.022968
0.0229688
0.022987
0.0229809
0.0229896
0.0229965
0.0229864
0.0230041
0.0229859
0.0230206
0.0230068
0.0230087
0.0229915
0.0229837
0.0229858
0.0229726
0.0229843
0.022991
0.022997
0.0229933
0.0230206
0.0230068
0.0230226
0.0229921
0.0229901
0.0229807
0.0229743
0.0229741
0.0229835
0.0230027
0.0229987
0.02298
0.0229881
0.022982
0.022997
0.023021
0.0230206
0.0230303
0.0230089
0.02301
0.0230071
0.022998
0.0230111
0.0230305
0.0230183
0.0230239
0.0230059
0.0229988
0.0229853
0.0230024
0.0230114
0.0230066
0.0229863
0.0229986
0.0229911
0.0229866
0.0229745
0.0229767
0.0229562
0.0229596
0.0229562
0.0229799
0.0229718
0.0229935
)
;

boundaryField
{
    inlet
    {
        type            fixedValue;
        value           uniform 0;
    }
    outlet
    {
        type            zeroGradient;
    }
    yzfaces
    {
        type            empty;
    }
}


// ************************************************************************* //
