/*--------------------------------*- C++ -*----------------------------------*\
| =========                 |                                                 |
| \\      /  F ield         | foam-extend: Open Source CFD                    |
|  \\    /   O peration     | Version:     5.0                                |
|   \\  /    A nd           | Web:         http://www.foam-extend.org         |
|    \\/     M anipulation  |                                                 |
\*---------------------------------------------------------------------------*/
FoamFile
{
    version     2.0;
    format      ascii;
    class       volScalarField;
    location    "1.47177295946";
    object      CO2.water;
}
// * * * * * * * * * * * * * * * * * * * * * * * * * * * * * * * * * * * * * //

dimensions      [0 0 0 0 0 0 0];

internalField   nonuniform List<scalar> 
100
(
0.00197522
0.00131088
0.000752667
0.00153423
0.00155229
0.00112869
0.00178329
0.00176207
0.00126474
0.000760037
0.00221779
0.00174889
0.000951877
0.000430293
0.00403957
0.000983482
0.000217469
4.66157e-05
1.0157e-05
2.33185e-06
5.7007e-07
1.46679e-07
3.73987e-08
8.57983e-09
1.5985e-09
1.10087e-10
0
0
0
0
0
0
0
0
0
0
0
0
0
0
0
0
0
0
0
0
0
0
0
0
0
0
0
0
0
0
0
0
0
0
0
0
0
0
0
0
0
0
0
0
0
0
0
3.09601e-30
1.22654e-29
9.74673e-30
6.03626e-30
3.3503e-30
1.75541e-30
8.79994e-31
4.30541e-31
2.06491e-31
9.76545e-32
4.56142e-32
2.10823e-32
9.6569e-33
4.39897e-33
1.99532e-33
8.97664e-34
4.02331e-34
1.79985e-34
8.00853e-35
3.55368e-35
1.5705e-35
6.94441e-36
3.05516e-36
1.34111e-36
5.86931e-37
2.56678e-37
1.42941e-37
)
;

boundaryField
{
    inlet
    {
        type            fixedValue;
        value           uniform 0;
    }
    outlet
    {
        type            zeroGradient;
    }
    yzfaces
    {
        type            empty;
    }
}


// ************************************************************************* //
