/*--------------------------------*- C++ -*----------------------------------*\
| =========                 |                                                 |
| \\      /  F ield         | foam-extend: Open Source CFD                    |
|  \\    /   O peration     | Version:     5.0                                |
|   \\  /    A nd           | Web:         http://www.foam-extend.org         |
|    \\/     M anipulation  |                                                 |
\*---------------------------------------------------------------------------*/
FoamFile
{
    version     2.0;
    format      ascii;
    class       volScalarField;
    location    "1.47177295946";
    object      H2O.gas;
}
// * * * * * * * * * * * * * * * * * * * * * * * * * * * * * * * * * * * * * //

dimensions      [0 0 0 0 0 0 0];

internalField   nonuniform List<scalar> 
100
(
1.06688e-09
1.30591e-07
8.59631e-07
2.99429e-06
7.91057e-06
1.83803e-05
3.69696e-05
6.85641e-05
0.000121852
0.000216493
0.000320844
0.000491962
0.000819877
0.00137628
0.000737007
0.00264588
0.00436536
0.00615068
0.00802131
0.00997962
0.0119418
0.0138271
0.0155339
0.0169988
0.0180801
0.0186728
0.0187696
0.0182815
0.0173552
0.0160957
0.0146884
0.0133452
0.0122177
0.0113942
0.0108353
0.010478
0.0102758
0.0101492
0.0100851
0.0100437
0.0100224
0.0100099
0.00999873
0.0100054
0.00999769
0.0100102
0.0100054
0.010005
0.00999571
0.00999245
0.00999238
0.00998297
0.00999131
0.00999487
0.00999451
0.00999256
0.0100037
0.009998
0.0100054
0.00999357
0.0099923
0.00999076
0.00998984
0.00999005
0.00999546
0.0100036
0.0100017
0.00999587
0.00999965
0.00999977
0.0100049
0.0100133
0.0100109
0.0100158
0.010006
0.0100065
0.0100062
0.00999879
0.010003
0.0100112
0.0100067
0.0100094
0.0100029
0.00999983
0.00999415
0.00999737
0.0100012
0.0099999
0.00999123
0.00999928
0.00999549
0.00999339
0.00998942
0.00998999
0.00998005
0.00998287
0.00998142
0.00999282
0.00998807
0.0099973
)
;

boundaryField
{
    inlet
    {
        type            fixedValue;
        value           uniform 0;
    }
    outlet
    {
        type            zeroGradient;
    }
    yzfaces
    {
        type            empty;
    }
}


// ************************************************************************* //
