/*--------------------------------*- C++ -*----------------------------------*\
| =========                 |                                                 |
| \\      /  F ield         | foam-extend: Open Source CFD                    |
|  \\    /   O peration     | Version:     5.0                                |
|   \\  /    A nd           | Web:         http://www.foam-extend.org         |
|    \\/     M anipulation  |                                                 |
\*---------------------------------------------------------------------------*/
FoamFile
{
    version     2.0;
    format      ascii;
    class       volScalarField;
    location    "1.47177295946";
    object      Na.water;
}
// * * * * * * * * * * * * * * * * * * * * * * * * * * * * * * * * * * * * * //

dimensions      [0 0 0 0 0 0 0];

internalField   nonuniform List<scalar> 
100
(
0
0.00522894
0.00912768
0.00644607
0.00709312
0.00970842
0.00720768
0.0078229
0.0105479
0.0133354
0.00708733
0.00973019
0.0138805
0.0166514
0.00232294
0.0157986
0.0189935
0.0196637
0.0198161
0.0199239
0.0200438
0.0201898
0.0203608
0.020579
0.0208098
0.0210484
0.0213168
0.0215577
0.0218251
0.0221085
0.0223439
0.0225482
0.022698
0.0228203
0.0228931
0.0229235
0.0229618
0.0229644
0.0229795
0.0229763
0.0229822
0.022984
0.0229745
0.022995
0.0229816
0.0230097
0.0230006
0.0230028
0.0229823
0.0229813
0.0229854
0.0229716
0.0229893
0.022997
0.0229947
0.0229879
0.0230151
0.0230018
0.0230194
0.0229885
0.0229949
0.0229865
0.0229773
0.0229732
0.0229804
0.0230034
0.0230018
0.0229833
0.0229958
0.0229925
0.0229963
0.023018
0.0230119
0.0230246
0.0230013
0.0230086
0.0230079
0.02299
0.0230028
0.0230241
0.02302
0.0230297
0.0230198
0.0230104
0.0229978
0.0229993
0.0230037
0.0229932
0.0229725
0.0229894
0.0229923
0.0229933
0.0229822
0.0229837
0.0229598
0.022964
0.0229601
0.0229925
0.0229803
0.0230013
)
;

boundaryField
{
    inlet
    {
        type            fixedValue;
        value           uniform 0;
    }
    outlet
    {
        type            zeroGradient;
    }
    yzfaces
    {
        type            empty;
    }
}


// ************************************************************************* //
