/*--------------------------------*- C++ -*----------------------------------*\
| =========                 |                                                 |
| \\      /  F ield         | foam-extend: Open Source CFD                    |
|  \\    /   O peration     | Version:     5.0                                |
|   \\  /    A nd           | Web:         http://www.foam-extend.org         |
|    \\/     M anipulation  |                                                 |
\*---------------------------------------------------------------------------*/
FoamFile
{
    version     2.0;
    format      ascii;
    class       surfaceScalarField;
    location    "1.47177295946";
    object      phi;
}
// * * * * * * * * * * * * * * * * * * * * * * * * * * * * * * * * * * * * * //

dimensions      [0 3 -1 0 0 0 0];

internalField   nonuniform List<scalar> 
99
(
1.22494e-06
1.21976e-06
1.21842e-06
1.21897e-06
1.21819e-06
1.21289e-06
1.21087e-06
1.20573e-06
1.20566e-06
1.2061e-06
1.20814e-06
1.21038e-06
1.21041e-06
1.20911e-06
1.20609e-06
1.21107e-06
1.21341e-06
1.21403e-06
1.21593e-06
1.21491e-06
1.21368e-06
1.21316e-06
1.21519e-06
1.21499e-06
1.21371e-06
1.21302e-06
1.2103e-06
1.2114e-06
1.20901e-06
1.2109e-06
1.20926e-06
1.20852e-06
1.20856e-06
1.20858e-06
1.2084e-06
1.20737e-06
1.20981e-06
1.2091e-06
1.20869e-06
1.20941e-06
1.20996e-06
1.2109e-06
1.21146e-06
1.2103e-06
1.21031e-06
1.20949e-06
1.20861e-06
1.20875e-06
1.20901e-06
1.20611e-06
1.20834e-06
1.20799e-06
1.20913e-06
1.20778e-06
1.20838e-06
1.2101e-06
1.20881e-06
1.20887e-06
1.20701e-06
1.20694e-06
1.20505e-06
1.20391e-06
1.20436e-06
1.20529e-06
1.20685e-06
1.20567e-06
1.20355e-06
1.20552e-06
1.20564e-06
1.20566e-06
1.20465e-06
1.20358e-06
1.20387e-06
1.20361e-06
1.20274e-06
1.20146e-06
1.20251e-06
1.20346e-06
1.20381e-06
1.20419e-06
1.20225e-06
1.2023e-06
1.20138e-06
1.2002e-06
1.20138e-06
1.20005e-06
1.20147e-06
1.20164e-06
1.20188e-06
1.20223e-06
1.20329e-06
1.2017e-06
1.20166e-06
1.19972e-06
1.20023e-06
1.2006e-06
1.20145e-06
1.20077e-06
1.20186e-06
)
;

boundaryField
{
    inlet
    {
        type            calculated;
        value           uniform -1.225e-06;
    }
    outlet
    {
        type            calculated;
        value           uniform 1.20407e-06;
    }
    yzfaces
    {
        type            empty;
    }
}


// ************************************************************************* //
