/*--------------------------------*- C++ -*----------------------------------*\
| =========                 |                                                 |
| \\      /  F ield         | foam-extend: Open Source CFD                    |
|  \\    /   O peration     | Version:     5.0                                |
|   \\  /    A nd           | Web:         http://www.foam-extend.org         |
|    \\/     M anipulation  |                                                 |
\*---------------------------------------------------------------------------*/
FoamFile
{
    version     2.0;
    format      ascii;
    class       surfaceScalarField;
    location    "1.47177295946";
    object      phi.water;
}
// * * * * * * * * * * * * * * * * * * * * * * * * * * * * * * * * * * * * * //

dimensions      [0 3 -1 0 0 0 0];

internalField   nonuniform List<scalar> 
99
(
2.94889e-07
5.05975e-07
6.98564e-07
8.82038e-07
1.06424e-06
1.23125e-06
1.41518e-06
1.58626e-06
1.78875e-06
1.97527e-06
2.23323e-06
2.51931e-06
2.78866e-06
2.87751e-06
5.07213e-06
4.43729e-06
4.13966e-06
4.02493e-06
4.02651e-06
4.07304e-06
4.16117e-06
4.28015e-06
4.43181e-06
4.58965e-06
4.76319e-06
4.95161e-06
5.14157e-06
5.34998e-06
5.524e-06
5.69516e-06
5.81724e-06
5.90981e-06
5.97323e-06
6.01049e-06
6.03498e-06
6.04285e-06
6.06184e-06
6.06301e-06
6.06352e-06
6.06916e-06
6.07154e-06
6.07849e-06
6.08069e-06
6.07399e-06
6.07201e-06
6.06515e-06
6.06104e-06
6.06382e-06
6.06929e-06
6.05638e-06
6.07047e-06
6.06975e-06
6.07293e-06
6.06582e-06
6.06961e-06
6.07524e-06
6.0672e-06
6.06622e-06
6.0573e-06
6.06031e-06
6.05135e-06
6.04746e-06
6.05054e-06
6.05338e-06
6.05714e-06
6.04901e-06
6.04075e-06
6.05175e-06
6.05154e-06
6.05037e-06
6.042e-06
6.035e-06
6.03492e-06
6.03428e-06
6.03253e-06
6.02583e-06
6.03318e-06
6.03876e-06
6.03654e-06
6.03739e-06
6.02799e-06
6.02966e-06
6.02892e-06
6.02629e-06
6.03272e-06
6.0235e-06
6.03012e-06
6.03411e-06
6.03551e-06
6.0354e-06
6.04113e-06
6.03416e-06
6.03473e-06
6.02861e-06
6.03378e-06
6.03535e-06
6.03685e-06
6.03104e-06
6.03632e-06
)
;

boundaryField
{
    inlet
    {
        type            fixedValue;
        value           uniform 0;
    }
    outlet
    {
        type            calculated;
        value           uniform 6.04601e-06;
    }
    yzfaces
    {
        type            empty;
    }
}


// ************************************************************************* //
