/*--------------------------------*- C++ -*----------------------------------*\
| =========                 |                                                 |
| \\      /  F ield         | foam-extend: Open Source CFD                    |
|  \\    /   O peration     | Version:     5.0                                |
|   \\  /    A nd           | Web:         http://www.foam-extend.org         |
|    \\/     M anipulation  |                                                 |
\*---------------------------------------------------------------------------*/
FoamFile
{
    version     2.0;
    format      ascii;
    class       volScalarField;
    location    "1.47177295946";
    object      S.gas;
}
// * * * * * * * * * * * * * * * * * * * * * * * * * * * * * * * * * * * * * //

dimensions      [0 0 0 0 0 0 0];

internalField   nonuniform List<scalar> 
100
(
0.623754
0.535661
0.48163
0.441922
0.410029
0.384479
0.360779
0.340521
0.320458
0.303074
0.282568
0.262248
0.244651
0.229954
0.130231
0.159965
0.173896
0.179103
0.179103
0.176362
0.171608
0.165493
0.158149
0.15003
0.140943
0.130958
0.120308
0.109034
0.0976211
0.0865411
0.0765319
0.0681323
0.0617005
0.0571872
0.0542441
0.0524458
0.0513725
0.0507632
0.0504191
0.0502354
0.0501184
0.0500479
0.0500275
0.0500126
0.0500055
0.050003
0.0499984
0.0499842
0.0499802
0.0499884
0.0499925
0.0499898
0.0500029
0.0500086
0.0500139
0.0500119
0.0500095
0.0500129
0.0499983
0.0499953
0.0499879
0.0499899
0.0500052
0.0500006
0.050004
0.0500011
0.0499994
0.0500022
0.0500055
0.0500084
0.0500133
0.0500199
0.0500171
0.0500061
0.050003
0.0500031
0.050002
0.0499969
0.0499976
0.0499943
0.0499987
0.0499926
0.0500016
0.0500099
0.0500125
0.0500061
0.0500044
0.0500113
0.0500072
0.050011
0.049998
0.0499885
0.049982
0.0499825
0.0499947
0.0499916
0.0499968
0.0499957
0.0499919
0.0500123
)
;

boundaryField
{
    inlet
    {
        type            calculated;
        value           uniform 1;
    }
    outlet
    {
        type            calculated;
        value           uniform 0.0500123;
    }
    yzfaces
    {
        type            empty;
    }
}


// ************************************************************************* //
