/*--------------------------------*- C++ -*----------------------------------*\
| =========                 |                                                 |
| \\      /  F ield         | foam-extend: Open Source CFD                    |
|  \\    /   O peration     | Version:     5.0                                |
|   \\  /    A nd           | Web:         http://www.foam-extend.org         |
|    \\/     M anipulation  |                                                 |
\*---------------------------------------------------------------------------*/
FoamFile
{
    version     2.0;
    format      ascii;
    class       volVectorField;
    location    "1.47177295946";
    object      U.gas;
}
// * * * * * * * * * * * * * * * * * * * * * * * * * * * * * * * * * * * * * //

dimensions      [0 1 -1 0 0 0 0];

internalField   nonuniform List<vector> 
100
(
(0.00793463 0 0)
(0.00902958 0 0)
(0.00980082 0 0)
(0.0104411 0 0)
(0.0109893 0 0)
(0.0114053 0 0)
(0.0118007 0 0)
(0.0121151 0 0)
(0.0124452 0 0)
(0.0127113 0 0)
(0.013085 0 0)
(0.0133791 0 0)
(0.0135152 0 0)
(0.0135239 0 0)
(0.0169227 0 0)
(0.0103736 0 0)
(0.0117769 0 0)
(0.0123652 0 0)
(0.0126226 0 0)
(0.0126905 0 0)
(0.0126612 0 0)
(0.0125587 0 0)
(0.012412 0 0)
(0.012188 0 0)
(0.0118797 0 0)
(0.0114777 0 0)
(0.0109609 0 0)
(0.0103391 0 0)
(0.00959946 0 0)
(0.00876641 0 0)
(0.0078832 0 0)
(0.00701852 0 0)
(0.00626265 0 0)
(0.00567271 0 0)
(0.00525446 0 0)
(0.0049777 0 0)
(0.0048134 0 0)
(0.00471718 0 0)
(0.00465829 0 0)
(0.00462704 0 0)
(0.00461249 0 0)
(0.00460466 0 0)
(0.00460078 0 0)
(0.00459741 0 0)
(0.00459392 0 0)
(0.00459147 0 0)
(0.00458857 0 0)
(0.00458686 0 0)
(0.0045855 0 0)
(0.00458036 0 0)
(0.00458022 0 0)
(0.00458432 0 0)
(0.00458509 0 0)
(0.00458555 0 0)
(0.00458514 0 0)
(0.0045901 0 0)
(0.00459071 0 0)
(0.00458855 0 0)
(0.00458532 0 0)
(0.00457971 0 0)
(0.00457589 0 0)
(0.00457001 0 0)
(0.0045683 0 0)
(0.00457232 0 0)
(0.00457729 0 0)
(0.00457872 0 0)
(0.00457255 0 0)
(0.00457123 0 0)
(0.0045745 0 0)
(0.00457599 0 0)
(0.00457465 0 0)
(0.0045702 0 0)
(0.00456885 0 0)
(0.00456868 0 0)
(0.00456617 0 0)
(0.00456301 0 0)
(0.00456248 0 0)
(0.00456467 0 0)
(0.00456668 0 0)
(0.0045691 0 0)
(0.00456656 0 0)
(0.00456335 0 0)
(0.00456135 0 0)
(0.00455799 0 0)
(0.00455798 0 0)
(0.00455747 0 0)
(0.00455714 0 0)
(0.00456044 0 0)
(0.00456198 0 0)
(0.00456253 0 0)
(0.0045658 0 0)
(0.0045639 0 0)
(0.00455923 0 0)
(0.0045544 0 0)
(0.00455142 0 0)
(0.00455446 0 0)
(0.00455652 0 0)
(0.00455739 0 0)
(0.0045582 0 0)
(0.00456138 0 0)
)
;

boundaryField
{
    inlet
    {
        type            fixedValue;
        value           uniform (0.005 0 0);
    }
    outlet
    {
        type            zeroGradient;
    }
    yzfaces
    {
        type            empty;
    }
}


// ************************************************************************* //
