/*--------------------------------*- C++ -*----------------------------------*\
| =========                 |                                                 |
| \\      /  F ield         | foam-extend: Open Source CFD                    |
|  \\    /   O peration     | Version:     5.0                                |
|   \\  /    A nd           | Web:         http://www.foam-extend.org         |
|    \\/     M anipulation  |                                                 |
\*---------------------------------------------------------------------------*/
FoamFile
{
    version     2.0;
    format      ascii;
    class       volVectorField;
    location    "1.47177295946";
    object      U.water;
}
// * * * * * * * * * * * * * * * * * * * * * * * * * * * * * * * * * * * * * //

dimensions      [0 1 -1 0 0 0 0];

internalField   nonuniform List<vector> 
100
(
(0.000134573 0 0)
(0.000328209 0 0)
(0.000492894 0 0)
(0.000645263 0 0)
(0.000793017 0 0)
(0.00093625 0 0)
(0.00107789 0 0)
(0.00122277 0 0)
(0.00137304 0 0)
(0.00153459 0 0)
(0.00171391 0 0)
(0.0019344 0 0)
(0.00216306 0 0)
(0.00237376 0 0)
(0.00313316 0 0)
(0.00389695 0 0)
(0.00351042 0 0)
(0.00333701 0 0)
(0.00328708 0 0)
(0.00330578 0 0)
(0.00336019 0 0)
(0.0034444 0 0)
(0.00355512 0 0)
(0.00368364 0 0)
(0.00382067 0 0)
(0.00396922 0 0)
(0.00412289 0 0)
(0.00428179 0 0)
(0.00443549 0 0)
(0.00457595 0 0)
(0.00469512 0 0)
(0.00478187 0 0)
(0.00484538 0 0)
(0.00488807 0 0)
(0.00491416 0 0)
(0.00492752 0 0)
(0.00493951 0 0)
(0.00494828 0 0)
(0.00494892 0 0)
(0.0049512 0 0)
(0.00495464 0 0)
(0.00495822 0 0)
(0.00496164 0 0)
(0.00496053 0 0)
(0.00495824 0 0)
(0.00495661 0 0)
(0.00495311 0 0)
(0.00495161 0 0)
(0.00495256 0 0)
(0.00494716 0 0)
(0.00494572 0 0)
(0.00494955 0 0)
(0.00495121 0 0)
(0.00495072 0 0)
(0.00494914 0 0)
(0.00495385 0 0)
(0.00495475 0 0)
(0.00495223 0 0)
(0.00494853 0 0)
(0.00494467 0 0)
(0.00494065 0 0)
(0.00493445 0 0)
(0.00493308 0 0)
(0.00493583 0 0)
(0.00494092 0 0)
(0.00494168 0 0)
(0.00493489 0 0)
(0.00493463 0 0)
(0.00493896 0 0)
(0.00493919 0 0)
(0.00493713 0 0)
(0.0049329 0 0)
(0.0049313 0 0)
(0.00493137 0 0)
(0.00492906 0 0)
(0.00492461 0 0)
(0.00492414 0 0)
(0.00492831 0 0)
(0.004931 0 0)
(0.00493244 0 0)
(0.00492923 0 0)
(0.00492533 0 0)
(0.00492358 0 0)
(0.00491926 0 0)
(0.00491927 0 0)
(0.00491897 0 0)
(0.00491916 0 0)
(0.0049224 0 0)
(0.0049232 0 0)
(0.00492444 0 0)
(0.00492729 0 0)
(0.00492626 0 0)
(0.00492301 0 0)
(0.00491901 0 0)
(0.00491609 0 0)
(0.00491782 0 0)
(0.00492033 0 0)
(0.00492063 0 0)
(0.00492147 0 0)
(0.00492841 0 0)
)
;

boundaryField
{
    inlet
    {
        type            fixedValue;
        value           uniform (0 0 0);
    }
    outlet
    {
        type            zeroGradient;
    }
    yzfaces
    {
        type            empty;
    }
}


// ************************************************************************* //
