/*--------------------------------*- C++ -*----------------------------------*\
| =========                 |                                                 |
| \\      /  F ield         | foam-extend: Open Source CFD                    |
|  \\    /   O peration     | Version:     5.0                                |
|   \\  /    A nd           | Web:         http://www.foam-extend.org         |
|    \\/     M anipulation  |                                                 |
\*---------------------------------------------------------------------------*/
FoamFile
{
    version     2.0;
    format      ascii;
    class       volScalarField;
    location    "6";
    object      alpha.gas;
}
// * * * * * * * * * * * * * * * * * * * * * * * * * * * * * * * * * * * * * //

dimensions      [0 0 0 0 0 0 0];

internalField   nonuniform List<scalar> 
100
(
0.160109
0.146264
0.136773
0.129258
0.123347
0.118456
0.114821
0.111196
0.108013
0.10514
0.102615
0.100305
0.0975352
0.0951013
0.0928729
0.0908081
0.088752
0.0863204
0.08453
0.0829592
0.081924
0.0809564
0.0800305
0.0791358
0.0787069
0.0782651
0.077919
0.0771504
0.0763007
0.0750628
0.0739018
0.072698
0.0717505
0.0708388
0.0700862
0.0691947
0.0683284
0.0676379
0.0668069
0.0659186
0.0650268
0.0640587
0.0632885
0.0624968
0.0617177
0.0608918
0.0601663
0.0594874
0.0587921
0.0581108
0.0575642
0.0569204
0.056081
0.0552342
0.0544146
0.0534461
0.0523573
0.0511327
0.0497847
0.0479263
0.0456023
0.0431049
0.0408003
0.0389055
0.0375159
0.0365826
0.0360841
0.0358595
0.0358339
0.0358626
0.0359393
0.0360273
0.0360879
0.03613
0.0361253
0.036107
0.0360638
0.0359915
0.0359189
0.0358214
0.0357038
0.035582
0.0354192
0.0352336
0.0350107
0.0347536
0.0344743
0.0341592
0.0338014
0.0333759
0.0328769
0.0323166
0.0316958
0.0309903
0.0301807
0.0292688
0.0282428
0.0270786
0.0257722
0.024307
)
;

boundaryField
{
    inlet
    {
        type            fixedValue;
        value           uniform 0.2;
    }
    outlet
    {
        type            zeroGradient;
    }
    yzfaces
    {
        type            empty;
    }
}


// ************************************************************************* //
