/*--------------------------------*- C++ -*----------------------------------*\
| =========                 |                                                 |
| \\      /  F ield         | foam-extend: Open Source CFD                    |
|  \\    /   O peration     | Version:     5.0                                |
|   \\  /    A nd           | Web:         http://www.foam-extend.org         |
|    \\/     M anipulation  |                                                 |
\*---------------------------------------------------------------------------*/
FoamFile
{
    version     2.0;
    format      ascii;
    class       volScalarField;
    location    "6";
    object      Cl.water;
}
// * * * * * * * * * * * * * * * * * * * * * * * * * * * * * * * * * * * * * //

dimensions      [0 0 0 0 0 0 0];

internalField   nonuniform List<scalar> 
100
(
0
0.00180316
0.00377343
0.00557595
0.00649363
0.00669192
0.00666569
0.00686103
0.00738331
0.00797969
0.00829841
0.00833469
0.00833055
0.00848715
0.00879231
0.00903119
0.00916256
0.00921829
0.00935701
0.0096544
0.00987754
0.00991235
0.00991105
0.00999497
0.0102989
0.0107084
0.0109732
0.0109703
0.0108403
0.0107922
0.0109075
0.010974
0.0108723
0.0107285
0.0107806
0.0111849
0.0116765
0.0118484
0.0116471
0.0114319
0.0115345
0.0120816
0.0124962
0.012302
0.0118581
0.0116773
0.012113
0.0130202
0.0130721
0.0122403
0.0116412
0.0119727
0.0130603
0.0144223
0.0125962
0.0110556
0.0116742
0.0135407
0.0154445
0.00950881
0.0103384
0.0138867
0.0167747
0.0184369
0.0192463
0.0196178
0.0197809
0.0198436
0.0198614
0.0198606
0.0198621
0.0198549
0.0198498
0.0198454
0.0198361
0.019837
0.0198323
0.0198481
0.0198673
0.0198755
0.0198996
0.0199139
0.0199376
0.0199603
0.0199944
0.0200191
0.0200569
0.0200937
0.0201084
0.0201562
0.02021
0.0202871
0.0203693
0.0204518
0.0205531
0.0206583
0.0207849
0.0209091
0.0210779
0.0212594
)
;

boundaryField
{
    inlet
    {
        type            fixedValue;
        value           uniform 0;
    }
    outlet
    {
        type            zeroGradient;
    }
    yzfaces
    {
        type            empty;
    }
}


// ************************************************************************* //
