/*--------------------------------*- C++ -*----------------------------------*\
| =========                 |                                                 |
| \\      /  F ield         | foam-extend: Open Source CFD                    |
|  \\    /   O peration     | Version:     5.0                                |
|   \\  /    A nd           | Web:         http://www.foam-extend.org         |
|    \\/     M anipulation  |                                                 |
\*---------------------------------------------------------------------------*/
FoamFile
{
    version     2.0;
    format      ascii;
    class       volScalarField;
    location    "6";
    object      CO2.gas;
}
// * * * * * * * * * * * * * * * * * * * * * * * * * * * * * * * * * * * * * //

dimensions      [0 0 0 0 0 0 0];

internalField   nonuniform List<scalar> 
100
(
0.159949
0.146401
0.1368
0.12894
0.123205
0.118835
0.115734
0.111735
0.10813
0.105254
0.102523
0.0999479
0.0966295
0.0938762
0.0916053
0.08927
0.0873776
0.0849214
0.0834736
0.0825265
0.0819242
0.0809883
0.0804389
0.0798477
0.0797932
0.079305
0.0788573
0.0777959
0.076875
0.0752667
0.074089
0.0728534
0.0719815
0.0710213
0.0702211
0.0692247
0.068375
0.0677218
0.0667922
0.0658201
0.0648479
0.0638339
0.0631802
0.0623061
0.0616428
0.0607085
0.0600355
0.059406
0.0587224
0.0580883
0.0575397
0.0568521
0.0558772
0.0550225
0.0542489
0.0532129
0.052048
0.0507538
0.0493595
0.0473768
0.0450124
0.0423949
0.0399064
0.0376989
0.0358921
0.034458
0.0333999
0.0325088
0.031738
0.0309371
0.0301147
0.0292105
0.0282111
0.0271184
0.0259232
0.0246704
0.0233614
0.022004
0.0206299
0.0192191
0.0177996
0.016388
0.0149822
0.0136021
0.0122616
0.0109541
0.00971829
0.00854169
0.00741946
0.00638252
0.00542354
0.00455304
0.00377002
0.00307121
0.00245657
0.00192488
0.00147361
0.00109655
0.00079026
0.000546489
)
;

boundaryField
{
    inlet
    {
        type            fixedValue;
        value           uniform 0.2;
    }
    outlet
    {
        type            zeroGradient;
    }
    yzfaces
    {
        type            empty;
    }
}


// ************************************************************************* //
