/*--------------------------------*- C++ -*----------------------------------*\
| =========                 |                                                 |
| \\      /  F ield         | foam-extend: Open Source CFD                    |
|  \\    /   O peration     | Version:     5.0                                |
|   \\  /    A nd           | Web:         http://www.foam-extend.org         |
|    \\/     M anipulation  |                                                 |
\*---------------------------------------------------------------------------*/
FoamFile
{
    version     2.0;
    format      ascii;
    class       volScalarField;
    location    "6";
    object      CO2.water;
}
// * * * * * * * * * * * * * * * * * * * * * * * * * * * * * * * * * * * * * //

dimensions      [0 0 0 0 0 0 0];

internalField   nonuniform List<scalar> 
100
(
0.00104672
0.00102126
0.0008425
0.000644428
0.00060355
0.000697351
0.000809005
0.000855788
0.000817534
0.000763798
0.000756163
0.000802402
0.000860696
0.000881239
0.000868989
0.000862025
0.000892179
0.000940261
0.000966196
0.000964965
0.000959114
0.000976217
0.00101525
0.00103245
0.000995185
0.000918484
0.000866088
0.000874812
0.00092203
0.000949591
0.000954307
0.000971829
0.00102221
0.00107514
0.00108092
0.00101212
0.000927659
0.000912503
0.000972656
0.0010386
0.00103386
0.000937009
0.000872702
0.000931823
0.00105526
0.00110929
0.00103689
0.00085971
0.00086844
0.00107027
0.00121648
0.0011583
0.000934535
0.000662491
0.00108631
0.00144273
0.00133476
0.000961604
0.000586327
0.00192
0.00180441
0.00110075
0.000536973
0.000226536
8.57051e-05
2.96508e-05
9.51106e-06
2.85682e-06
8.13497e-07
2.22069e-07
5.89945e-08
1.54355e-08
4.03623e-09
1.06634e-09
2.8731e-10
7.92581e-11
2.23077e-11
6.37329e-12
1.82937e-12
5.20447e-13
1.45076e-13
3.90473e-14
9.97533e-15
2.36654e-15
5.05167e-16
9.79888e-17
1.8162e-17
3.3413e-18
6.20548e-19
1.17134e-19
2.56089e-20
5.91097e-21
1.38007e-21
3.25023e-22
7.74539e-23
1.87403e-23
4.59736e-24
1.14603e-24
2.9025e-25
8.61677e-26
)
;

boundaryField
{
    inlet
    {
        type            fixedValue;
        value           uniform 0;
    }
    outlet
    {
        type            zeroGradient;
    }
    yzfaces
    {
        type            empty;
    }
}


// ************************************************************************* //
