/*--------------------------------*- C++ -*----------------------------------*\
| =========                 |                                                 |
| \\      /  F ield         | foam-extend: Open Source CFD                    |
|  \\    /   O peration     | Version:     5.0                                |
|   \\  /    A nd           | Web:         http://www.foam-extend.org         |
|    \\/     M anipulation  |                                                 |
\*---------------------------------------------------------------------------*/
FoamFile
{
    version     2.0;
    format      ascii;
    class       volScalarField;
    location    "6";
    object      H2O.gas;
}
// * * * * * * * * * * * * * * * * * * * * * * * * * * * * * * * * * * * * * //

dimensions      [0 0 0 0 0 0 0];

internalField   nonuniform List<scalar> 
100
(
3.20645e-21
7.95813e-20
7.75252e-19
5.09051e-18
2.64563e-17
1.20122e-16
4.7525e-16
1.65396e-15
5.19613e-15
1.52477e-14
4.16974e-14
1.06785e-13
2.58061e-13
5.98974e-13
1.34129e-12
2.87913e-12
6.03121e-12
1.23192e-11
2.49421e-11
5.03689e-11
1.00407e-10
1.94536e-10
3.72605e-10
7.01638e-10
1.30269e-09
2.35854e-09
4.14724e-09
7.05597e-09
1.17567e-08
1.90578e-08
3.06191e-08
4.85169e-08
7.62725e-08
1.18666e-07
1.82526e-07
2.76959e-07
4.16554e-07
6.20965e-07
9.10853e-07
1.32046e-06
1.89303e-06
2.68585e-06
3.79832e-06
5.30085e-06
7.36482e-06
1.01211e-05
1.38678e-05
1.88614e-05
2.54627e-05
3.41847e-05
4.5615e-05
6.03321e-05
7.8943e-05
0.000102956
0.000133648
0.000171609
0.000218357
0.000276548
0.000351518
0.000429814
0.000522347
0.000660046
0.000875028
0.00118449
0.00159087
0.00208959
0.00267624
0.00334626
0.004101
0.00493466
0.00585434
0.00683866
0.00789832
0.00902792
0.0101959
0.0114239
0.0126792
0.0139706
0.0152882
0.016596
0.0179051
0.0191901
0.020437
0.0216242
0.022763
0.023797
0.0247765
0.0256362
0.0263477
0.0269594
0.0274075
0.0277433
0.027918
0.0279031
0.0277095
0.0273168
0.0267503
0.025947
0.0249612
0.0237452
)
;

boundaryField
{
    inlet
    {
        type            fixedValue;
        value           uniform 0;
    }
    outlet
    {
        type            zeroGradient;
    }
    yzfaces
    {
        type            empty;
    }
}


// ************************************************************************* //
