/*--------------------------------*- C++ -*----------------------------------*\
| =========                 |                                                 |
| \\      /  F ield         | foam-extend: Open Source CFD                    |
|  \\    /   O peration     | Version:     5.0                                |
|   \\  /    A nd           | Web:         http://www.foam-extend.org         |
|    \\/     M anipulation  |                                                 |
\*---------------------------------------------------------------------------*/
FoamFile
{
    version     2.0;
    format      ascii;
    class       volScalarField;
    location    "6";
    object      Na.water;
}
// * * * * * * * * * * * * * * * * * * * * * * * * * * * * * * * * * * * * * //

dimensions      [0 0 0 0 0 0 0];

internalField   nonuniform List<scalar> 
100
(
0
0.00180228
0.00377303
0.00557623
0.00648927
0.00668876
0.00666769
0.00686088
0.00737956
0.00798077
0.0082973
0.00833435
0.00832398
0.00847473
0.0087814
0.00901765
0.00915083
0.00920963
0.009356
0.00965039
0.00987816
0.00992203
0.00991878
0.00999839
0.010301
0.0107039
0.0109666
0.010965
0.0108394
0.0107909
0.0109038
0.0109654
0.0108664
0.0107228
0.0107755
0.0111826
0.0116725
0.0118489
0.0116457
0.0114331
0.0115334
0.0120784
0.0124983
0.0123078
0.0118612
0.0116816
0.0121213
0.0130354
0.0130778
0.0122465
0.0116457
0.0119786
0.0130659
0.0144306
0.0125991
0.0110625
0.0116809
0.0135508
0.0154579
0.00952045
0.0103469
0.0138991
0.0167901
0.018453
0.0192613
0.0196244
0.0197923
0.0198535
0.0198726
0.0198715
0.0198759
0.0198642
0.0198622
0.0198591
0.0198488
0.01985
0.0198428
0.0198465
0.0198651
0.0198732
0.0198927
0.0199008
0.0199235
0.0199443
0.0199827
0.0200051
0.0200531
0.0200923
0.0201077
0.0201564
0.0202131
0.0202934
0.0203766
0.0204584
0.0205505
0.0206547
0.0207821
0.0209101
0.0210748
0.0212583
)
;

boundaryField
{
    inlet
    {
        type            fixedValue;
        value           uniform 0;
    }
    outlet
    {
        type            zeroGradient;
    }
    yzfaces
    {
        type            empty;
    }
}


// ************************************************************************* //
