/*--------------------------------*- C++ -*----------------------------------*\
| =========                 |                                                 |
| \\      /  F ield         | foam-extend: Open Source CFD                    |
|  \\    /   O peration     | Version:     5.0                                |
|   \\  /    A nd           | Web:         http://www.foam-extend.org         |
|    \\/     M anipulation  |                                                 |
\*---------------------------------------------------------------------------*/
FoamFile
{
    version     2.0;
    format      ascii;
    class       surfaceScalarField;
    location    "6";
    object      phi;
}
// * * * * * * * * * * * * * * * * * * * * * * * * * * * * * * * * * * * * * //

dimensions      [0 3 -1 0 0 0 0];

internalField   nonuniform List<scalar> 
99
(
1.22487e-06
1.24066e-06
1.22641e-06
1.23267e-06
1.22719e-06
1.22737e-06
1.22167e-06
1.22303e-06
1.22169e-06
1.21929e-06
1.21449e-06
1.20743e-06
1.20714e-06
1.2064e-06
1.20864e-06
1.21591e-06
1.21088e-06
1.21063e-06
1.21942e-06
1.2224e-06
1.23004e-06
1.23331e-06
1.23293e-06
1.23497e-06
1.23453e-06
1.23596e-06
1.23114e-06
1.23485e-06
1.23151e-06
1.22963e-06
1.22872e-06
1.22775e-06
1.22788e-06
1.22918e-06
1.22407e-06
1.22334e-06
1.22203e-06
1.21575e-06
1.21032e-06
1.20959e-06
1.20664e-06
1.21082e-06
1.211e-06
1.21309e-06
1.21592e-06
1.21804e-06
1.21814e-06
1.22065e-06
1.21796e-06
1.22669e-06
1.22733e-06
1.22589e-06
1.22816e-06
1.2306e-06
1.23079e-06
1.22902e-06
1.22866e-06
1.22825e-06
1.23011e-06
1.23133e-06
1.23175e-06
1.23172e-06
1.22968e-06
1.22923e-06
1.22977e-06
1.23164e-06
1.23175e-06
1.23315e-06
1.23006e-06
1.2301e-06
1.23096e-06
1.23124e-06
1.23294e-06
1.23214e-06
1.23316e-06
1.23285e-06
1.23112e-06
1.23164e-06
1.23073e-06
1.23134e-06
1.23196e-06
1.23135e-06
1.23226e-06
1.23108e-06
1.23205e-06
1.23225e-06
1.23164e-06
1.23014e-06
1.22781e-06
1.22735e-06
1.22713e-06
1.23019e-06
1.22986e-06
1.22831e-06
1.22888e-06
1.2297e-06
1.22973e-06
1.23152e-06
1.23198e-06
)
;

boundaryField
{
    inlet
    {
        type            calculated;
        value           uniform -1.225e-06;
    }
    outlet
    {
        type            calculated;
        value           uniform 1.23254e-06;
    }
    yzfaces
    {
        type            empty;
    }
}


// ************************************************************************* //
