/*--------------------------------*- C++ -*----------------------------------*\
| =========                 |                                                 |
| \\      /  F ield         | foam-extend: Open Source CFD                    |
|  \\    /   O peration     | Version:     5.0                                |
|   \\  /    A nd           | Web:         http://www.foam-extend.org         |
|    \\/     M anipulation  |                                                 |
\*---------------------------------------------------------------------------*/
FoamFile
{
    version     2.0;
    format      ascii;
    class       surfaceScalarField;
    location    "6";
    object      phi.water;
}
// * * * * * * * * * * * * * * * * * * * * * * * * * * * * * * * * * * * * * //

dimensions      [0 3 -1 0 0 0 0];

internalField   nonuniform List<scalar> 
99
(
9.19323e-08
1.61604e-07
2.19773e-07
2.8029e-07
3.32491e-07
3.83905e-07
4.22939e-07
4.71935e-07
5.16728e-07
5.6021e-07
6.02337e-07
6.39885e-07
6.94433e-07
7.46006e-07
7.97481e-07
8.50619e-07
8.96601e-07
9.62099e-07
1.015e-06
1.05874e-06
1.09501e-06
1.12572e-06
1.15089e-06
1.1804e-06
1.19191e-06
1.20955e-06
1.21842e-06
1.25145e-06
1.28149e-06
1.32906e-06
1.37176e-06
1.42195e-06
1.46149e-06
1.50298e-06
1.53283e-06
1.57185e-06
1.61057e-06
1.63605e-06
1.67059e-06
1.71529e-06
1.75669e-06
1.8141e-06
1.8558e-06
1.90139e-06
1.95003e-06
2.00222e-06
2.04437e-06
2.08644e-06
2.12403e-06
2.1829e-06
2.21726e-06
2.25972e-06
2.32168e-06
2.38339e-06
2.43753e-06
2.50509e-06
2.58411e-06
2.67328e-06
2.77954e-06
2.93006e-06
3.12544e-06
3.35098e-06
3.56336e-06
3.75207e-06
3.89694e-06
4.001e-06
4.05401e-06
4.08209e-06
4.07444e-06
4.0715e-06
4.06637e-06
4.05753e-06
4.05683e-06
4.05118e-06
4.05642e-06
4.05778e-06
4.05658e-06
4.06449e-06
4.06808e-06
4.07937e-06
4.09397e-06
4.10382e-06
4.12283e-06
4.13633e-06
4.16261e-06
4.18875e-06
4.21338e-06
4.24347e-06
4.27373e-06
4.31548e-06
4.36421e-06
4.42993e-06
4.49102e-06
4.55757e-06
4.64174e-06
4.73679e-06
4.83946e-06
4.96128e-06
5.08721e-06
)
;

boundaryField
{
    inlet
    {
        type            fixedValue;
        value           uniform 0;
    }
    outlet
    {
        type            calculated;
        value           uniform 5.25245e-06;
    }
    yzfaces
    {
        type            empty;
    }
}


// ************************************************************************* //
