/*--------------------------------*- C++ -*----------------------------------*\
| =========                 |                                                 |
| \\      /  F ield         | foam-extend: Open Source CFD                    |
|  \\    /   O peration     | Version:     5.0                                |
|   \\  /    A nd           | Web:         http://www.foam-extend.org         |
|    \\/     M anipulation  |                                                 |
\*---------------------------------------------------------------------------*/
FoamFile
{
    version     2.0;
    format      ascii;
    class       volVectorField;
    location    "6";
    object      U.gas;
}
// * * * * * * * * * * * * * * * * * * * * * * * * * * * * * * * * * * * * * //

dimensions      [0 1 -1 0 0 0 0];

internalField   nonuniform List<vector> 
100
(
(0.00623442 0 0)
(0.00684188 0 0)
(0.0072902 0 0)
(0.00765357 0 0)
(0.00798449 0 0)
(0.00825603 0 0)
(0.00845974 0 0)
(0.00868074 0 0)
(0.0088939 0 0)
(0.00907946 0 0)
(0.00923086 0 0)
(0.00935282 0 0)
(0.00953757 0 0)
(0.00971814 0 0)
(0.00989752 0 0)
(0.0101015 0 0)
(0.0102801 0 0)
(0.0104671 0 0)
(0.0106444 0 0)
(0.0108277 0 0)
(0.0109531 0 0)
(0.0110848 0 0)
(0.0111783 0 0)
(0.0112634 0 0)
(0.0112956 0 0)
(0.0113397 0 0)
(0.0113516 0 0)
(0.0114262 0 0)
(0.0115051 0 0)
(0.0116025 0 0)
(0.0116916 0 0)
(0.0117909 0 0)
(0.0118597 0 0)
(0.011946 0 0)
(0.0119856 0 0)
(0.0120391 0 0)
(0.0121032 0 0)
(0.012115 0 0)
(0.0121316 0 0)
(0.0121769 0 0)
(0.0122319 0 0)
(0.0123201 0 0)
(0.0123909 0 0)
(0.0124648 0 0)
(0.0125484 0 0)
(0.0126383 0 0)
(0.0126958 0 0)
(0.0127553 0 0)
(0.0128047 0 0)
(0.0128794 0 0)
(0.0129547 0 0)
(0.0129989 0 0)
(0.0130696 0 0)
(0.0131446 0 0)
(0.0132023 0 0)
(0.0132585 0 0)
(0.0133099 0 0)
(0.0133741 0 0)
(0.0134458 0 0)
(0.0135758 0 0)
(0.0136867 0 0)
(0.0137156 0 0)
(0.0136239 0 0)
(0.013449 0 0)
(0.0132512 0 0)
(0.0130825 0 0)
(0.0129413 0 0)
(0.0128613 0 0)
(0.0128046 0 0)
(0.0127779 0 0)
(0.0127782 0 0)
(0.0127927 0 0)
(0.0128186 0 0)
(0.0128322 0 0)
(0.0128433 0 0)
(0.0128485 0 0)
(0.0128387 0 0)
(0.0128304 0 0)
(0.0128198 0 0)
(0.0128131 0 0)
(0.0128096 0 0)
(0.0127951 0 0)
(0.0127881 0 0)
(0.0127712 0 0)
(0.01275 0 0)
(0.0127302 0 0)
(0.0126976 0 0)
(0.0126534 0 0)
(0.0125963 0 0)
(0.01254 0 0)
(0.0124815 0 0)
(0.012423 0 0)
(0.0123498 0 0)
(0.0122393 0 0)
(0.0121127 0 0)
(0.0119688 0 0)
(0.0117886 0 0)
(0.0115731 0 0)
(0.0113051 0 0)
(0.0109627 0 0)
)
;

boundaryField
{
    inlet
    {
        type            fixedValue;
        value           uniform (0.005 0 0);
    }
    outlet
    {
        type            zeroGradient;
    }
    yzfaces
    {
        type            empty;
    }
}


// ************************************************************************* //
