/*--------------------------------*- C++ -*----------------------------------*\
| =========                 |                                                 |
| \\      /  F ield         | foam-extend: Open Source CFD                    |
|  \\    /   O peration     | Version:     5.0                                |
|   \\  /    A nd           | Web:         http://www.foam-extend.org         |
|    \\/     M anipulation  |                                                 |
\*---------------------------------------------------------------------------*/
FoamFile
{
    version     2.0;
    format      ascii;
    class       volVectorField;
    location    "6";
    object      U.water;
}
// * * * * * * * * * * * * * * * * * * * * * * * * * * * * * * * * * * * * * //

dimensions      [0 1 -1 0 0 0 0];

internalField   nonuniform List<vector> 
100
(
(4.40399e-05 0 0)
(0.000104517 0 0)
(0.000155962 0 0)
(0.000203807 0 0)
(0.00024999 0 0)
(0.000292873 0 0)
(0.000331639 0 0)
(0.000366834 0 0)
(0.000404284 0 0)
(0.000439658 0 0)
(0.00047392 0 0)
(0.000505552 0 0)
(0.000539605 0 0)
(0.000580685 0 0)
(0.000620935 0 0)
(0.00066227 0 0)
(0.000702504 0 0)
(0.000746418 0 0)
(0.000797481 0 0)
(0.000840795 0 0)
(0.000877992 0 0)
(0.000907751 0 0)
(0.000933798 0 0)
(0.000959472 0 0)
(0.000980412 0 0)
(0.000992844 0 0)
(0.0010032 0 0)
(0.00101745 0 0)
(0.00104145 0 0)
(0.00106955 0 0)
(0.00110528 0 0)
(0.00114267 0 0)
(0.00118018 0 0)
(0.00121278 0 0)
(0.00124159 0 0)
(0.00126831 0 0)
(0.00129956 0 0)
(0.00132652 0 0)
(0.00134961 0 0)
(0.00138002 0 0)
(0.0014137 0 0)
(0.0014529 0 0)
(0.00149438 0 0)
(0.00153024 0 0)
(0.00156906 0 0)
(0.00160941 0 0)
(0.00164837 0 0)
(0.00168412 0 0)
(0.00171755 0 0)
(0.00175758 0 0)
(0.00179667 0 0)
(0.00182701 0 0)
(0.00186697 0 0)
(0.00191719 0 0)
(0.00196619 0 0)
(0.00201556 0 0)
(0.00207438 0 0)
(0.0021426 0 0)
(0.0022236 0 0)
(0.00232802 0 0)
(0.0024689 0 0)
(0.00264055 0 0)
(0.00281909 0 0)
(0.00298208 0 0)
(0.0031175 0 0)
(0.00321918 0 0)
(0.00328516 0 0)
(0.00331959 0 0)
(0.00332926 0 0)
(0.00332586 0 0)
(0.00332361 0 0)
(0.0033182 0 0)
(0.00331394 0 0)
(0.00331073 0 0)
(0.00330909 0 0)
(0.00331079 0 0)
(0.00331039 0 0)
(0.0033134 0 0)
(0.00331897 0 0)
(0.0033253 0 0)
(0.00333588 0 0)
(0.00334609 0 0)
(0.00335767 0 0)
(0.00337127 0 0)
(0.00338795 0 0)
(0.00340957 0 0)
(0.00343106 0 0)
(0.00345258 0 0)
(0.0034746 0 0)
(0.00350231 0 0)
(0.00353916 0 0)
(0.00358723 0 0)
(0.00364023 0 0)
(0.0036923 0 0)
(0.0037532 0 0)
(0.00382584 0 0)
(0.00390612 0 0)
(0.00399724 0 0)
(0.00409895 0 0)
(0.00420878 0 0)
)
;

boundaryField
{
    inlet
    {
        type            fixedValue;
        value           uniform (0 0 0);
    }
    outlet
    {
        type            zeroGradient;
    }
    yzfaces
    {
        type            empty;
    }
}


// ************************************************************************* //
