/*--------------------------------*- C++ -*----------------------------------*\
| =========                 |                                                 |
| \\      /  F ield         | foam-extend: Open Source CFD                    |
|  \\    /   O peration     | Version:     5.0                                |
|   \\  /    A nd           | Web:         http://www.foam-extend.org         |
|    \\/     M anipulation  |                                                 |
\*---------------------------------------------------------------------------*/
FoamFile
{
    version     2.0;
    format      ascii;
    class       volScalarField;
    location    "9.97575";
    object      CO2.water;
}
// * * * * * * * * * * * * * * * * * * * * * * * * * * * * * * * * * * * * * //

dimensions      [0 0 0 0 0 0 0];

internalField   nonuniform List<scalar> 
100
(
5.58456e-05
8.31624e-05
1.29898e-05
1.8757e-06
3.18885e-07
6.21834e-08
1.27233e-08
2.60506e-09
5.25958e-10
1.04449e-10
2.04243e-11
3.93882e-12
7.5023e-13
1.41322e-13
2.63476e-14
4.8654e-15
8.90704e-16
1.61761e-16
2.91612e-17
5.21958e-18
9.27939e-19
1.63938e-19
2.87937e-20
5.02839e-21
8.73221e-22
1.50858e-22
2.59339e-23
4.43665e-24
7.5538e-25
1.28045e-25
2.16125e-26
3.63233e-27
6.07963e-28
1.01369e-28
1.68372e-29
2.78558e-30
4.59241e-31
7.54402e-32
1.23493e-32
2.01469e-33
3.27643e-34
5.31028e-35
8.57973e-36
1.38198e-36
2.21916e-37
3.5525e-38
5.67123e-39
9.02736e-40
1.43287e-40
2.26824e-41
3.58106e-42
5.63797e-43
8.85429e-44
1.38689e-44
2.16681e-45
3.3771e-46
5.25011e-47
8.14183e-48
1.25982e-48
1.94453e-49
2.9946e-50
4.60134e-51
7.0531e-52
1.07882e-52
1.64642e-53
2.50721e-54
3.81057e-55
5.77862e-56
8.74466e-57
1.32065e-57
1.9904e-58
2.99393e-59
4.4944e-60
6.73268e-61
1.00682e-61
1.50256e-62
2.23822e-63
3.32811e-64
4.93925e-65
7.31694e-66
1.08193e-66
1.59695e-67
2.35322e-68
3.46142e-69
5.08287e-70
7.45185e-71
1.09047e-71
1.59318e-72
2.3237e-73
3.38328e-74
4.9188e-75
7.13928e-76
1.03453e-76
1.49675e-77
2.16179e-78
3.11825e-79
4.49087e-80
6.45723e-81
9.27131e-82
1.32908e-82
)
;

boundaryField
{
    inlet
    {
        type            fixedValue;
        value           uniform 0;
    }
    outlet
    {
        type            zeroGradient;
    }
    yzfaces
    {
        type            empty;
    }
}


// ************************************************************************* //
