/*--------------------------------*- C++ -*----------------------------------*\
| =========                 |                                                 |
| \\      /  F ield         | foam-extend: Open Source CFD                    |
|  \\    /   O peration     | Version:     5.0                                |
|   \\  /    A nd           | Web:         http://www.foam-extend.org         |
|    \\/     M anipulation  |                                                 |
\*---------------------------------------------------------------------------*/
FoamFile
{
    version     2.0;
    format      ascii;
    class       volScalarField;
    location    "1";
    object      alpha.water;
}
// * * * * * * * * * * * * * * * * * * * * * * * * * * * * * * * * * * * * * //

dimensions      [0 0 0 0 0 0 0];

internalField   nonuniform List<scalar> 
100
(
0.00564768
0.00883574
0.0114559
0.0139318
0.0162299
0.0183348
0.0203501
0.0222257
0.0239173
0.0254419
0.0269338
0.0283973
0.0298392
0.031276
0.032661
0.0339793
0.035197
0.0363622
0.0374759
0.038565
0.0396498
0.0406815
0.041657
0.0425707
0.043494
0.0443918
0.0452539
0.0460699
0.0468727
0.0476681
0.048467
0.0492437
0.049997
0.0507325
0.0514861
0.0522279
0.0529677
0.0536871
0.0544224
0.0551678
0.055898
0.056579
0.0572435
0.0579009
0.0585192
0.0591064
0.0596771
0.0602606
0.0608268
0.061345
0.0618576
0.0623794
0.0628862
0.0633711
0.0638209
0.0642679
0.0647181
0.0651521
0.0655668
0.0659885
0.0664321
0.0668624
0.0672893
0.0676945
0.0681178
0.0685375
0.0689427
0.0693344
0.0697267
0.070127
0.0705112
0.0708879
0.0712608
0.0716499
0.0720193
0.0723656
0.072716
0.073076
0.0734281
0.0737567
0.0740775
0.0744065
0.074741
0.0750467
0.0753343
0.0756319
0.0759332
0.076226
0.0765298
0.0768432
0.077166
0.0774952
0.0778283
0.0781657
0.0785161
0.0788727
0.0792347
0.0795988
0.0799556
0.0802835
)
;

boundaryField
{
    inlet
    {
        type            fixedValue;
        value           uniform 0;
    }
    outlet
    {
        type            zeroGradient;
    }
    yzfaces
    {
        type            empty;
    }
}


// ************************************************************************* //
