/*--------------------------------*- C++ -*----------------------------------*\
| =========                 |                                                 |
| \\      /  F ield         | foam-extend: Open Source CFD                    |
|  \\    /   O peration     | Version:     5.0                                |
|   \\  /    A nd           | Web:         http://www.foam-extend.org         |
|    \\/     M anipulation  |                                                 |
\*---------------------------------------------------------------------------*/
FoamFile
{
    version     2.0;
    format      ascii;
    class       volScalarField;
    location    "1";
    object      CO2.water;
}
// * * * * * * * * * * * * * * * * * * * * * * * * * * * * * * * * * * * * * //

dimensions      [0 0 0 0 0 0 0];

internalField   nonuniform List<scalar> 
100
(
0.000148334
0.000232067
0.000300883
0.000365912
0.000426271
0.000481555
0.000534487
0.000583748
0.000628176
0.00066822
0.000707403
0.000745843
0.000783712
0.000821451
0.000857826
0.000892452
0.000924432
0.000955036
0.000984286
0.00101289
0.00104138
0.00106848
0.0010941
0.0011181
0.00114235
0.00116593
0.00118857
0.00121
0.00123109
0.00125198
0.00127296
0.00129336
0.00131315
0.00133246
0.00135226
0.00137174
0.00139117
0.00141007
0.00142938
0.00144896
0.00146813
0.00148602
0.00150347
0.00152074
0.00153698
0.0015524
0.00156739
0.00158272
0.00159759
0.0016112
0.00162466
0.00163837
0.00165168
0.00166441
0.00167623
0.00168797
0.00169979
0.00171119
0.00172208
0.00173316
0.00174481
0.00175611
0.00176732
0.00177796
0.00178908
0.00180011
0.00181075
0.00182104
0.00183134
0.00184185
0.00185195
0.00186184
0.00187163
0.00188185
0.00189155
0.00190065
0.00190985
0.00191931
0.00192856
0.00193719
0.00194561
0.00195425
0.00196304
0.00197107
0.00197862
0.00198644
0.00199435
0.00200204
0.00201002
0.00201825
0.00202673
0.00203538
0.00204412
0.00205299
0.00206219
0.00207156
0.00208106
0.00209063
0.0021
0.00210861
)
;

boundaryField
{
    inlet
    {
        type            fixedValue;
        value           uniform 0;
    }
    outlet
    {
        type            zeroGradient;
    }
    yzfaces
    {
        type            empty;
    }
}


// ************************************************************************* //
