/*--------------------------------*- C++ -*----------------------------------*\
| =========                 |                                                 |
| \\      /  F ield         | foam-extend: Open Source CFD                    |
|  \\    /   O peration     | Version:     5.0                                |
|   \\  /    A nd           | Web:         http://www.foam-extend.org         |
|    \\/     M anipulation  |                                                 |
\*---------------------------------------------------------------------------*/
FoamFile
{
    version     2.0;
    format      ascii;
    class       volScalarField;
    location    "1";
    object      H2O.water;
}
// * * * * * * * * * * * * * * * * * * * * * * * * * * * * * * * * * * * * * //

dimensions      [0 0 0 0 0 0 0];

internalField   nonuniform List<scalar> 
100
(
0.00549934
0.00860368
0.011155
0.0135659
0.0158036
0.0178533
0.0198157
0.021642
0.0232891
0.0247737
0.0262264
0.0276515
0.0290554
0.0304546
0.0318032
0.0330869
0.0342725
0.0354071
0.0364916
0.0375521
0.0386084
0.039613
0.0405629
0.0414526
0.0423517
0.0432259
0.0440653
0.0448599
0.0456416
0.0464161
0.047194
0.0479503
0.0486838
0.0494
0.0501339
0.0508562
0.0515765
0.052277
0.052993
0.0537189
0.0544298
0.055093
0.05574
0.0563802
0.0569822
0.057554
0.0581097
0.0586779
0.0592293
0.0597338
0.0602329
0.060741
0.0612345
0.0617067
0.0621447
0.0625799
0.0630183
0.0634409
0.0638447
0.0642553
0.0646873
0.0651063
0.065522
0.0659165
0.0663287
0.0667374
0.067132
0.0675134
0.0678954
0.0682851
0.0686593
0.0690261
0.0693891
0.069768
0.0701277
0.0704649
0.0708062
0.0711567
0.0714995
0.0718195
0.0721319
0.0724523
0.0727779
0.0730756
0.0733557
0.0736454
0.0739388
0.074224
0.0745198
0.0748249
0.0751393
0.0754598
0.0757842
0.0761127
0.0764539
0.0768011
0.0771537
0.0775081
0.0778556
0.0781748
)
;

boundaryField
{
    inlet
    {
        type            fixedValue;
        value           uniform 0;
    }
    outlet
    {
        type            zeroGradient;
    }
    yzfaces
    {
        type            empty;
    }
}


// ************************************************************************* //
