/*--------------------------------*- C++ -*----------------------------------*\
| =========                 |                                                 |
| \\      /  F ield         | foam-extend: Open Source CFD                    |
|  \\    /   O peration     | Version:     5.0                                |
|   \\  /    A nd           | Web:         http://www.foam-extend.org         |
|    \\/     M anipulation  |                                                 |
\*---------------------------------------------------------------------------*/
FoamFile
{
    version     2.0;
    format      ascii;
    class       volScalarField;
    location    "1";
    object      H2O.gas;
}
// * * * * * * * * * * * * * * * * * * * * * * * * * * * * * * * * * * * * * //

dimensions      [0 0 0 0 0 0 0];

internalField   nonuniform List<scalar> 
100
(
0.000378495
0.000372287
0.000367184
0.000362362
0.000357887
0.000353788
0.000349863
0.00034621
0.000342916
0.000339947
0.000337041
0.000334191
0.000331383
0.000328585
0.000325888
0.00032332
0.000320949
0.00031868
0.000316511
0.00031439
0.000312277
0.000310268
0.000308368
0.000306589
0.000304791
0.000303042
0.000301363
0.000299774
0.000298211
0.000296662
0.000295106
0.000293594
0.000292127
0.000290694
0.000289226
0.000287782
0.000286341
0.00028494
0.000283508
0.000282056
0.000280635
0.000279308
0.000278014
0.000276734
0.00027553
0.000274386
0.000273275
0.000272138
0.000271036
0.000270027
0.000269028
0.000268012
0.000267025
0.000266081
0.000265205
0.000264334
0.000263458
0.000262612
0.000261805
0.000260984
0.00026012
0.000259282
0.00025845
0.000257661
0.000256837
0.000256019
0.00025523
0.000254467
0.000253703
0.000252924
0.000252176
0.000251442
0.000250716
0.000249958
0.000249239
0.000248564
0.000247882
0.000247181
0.000246495
0.000245855
0.00024523
0.00024459
0.000243938
0.000243343
0.000242783
0.000242203
0.000241616
0.000241046
0.000240455
0.000239844
0.000239216
0.000238575
0.000237926
0.000237269
0.000236586
0.000235892
0.000235187
0.000234478
0.000233783
0.000233144
)
;

boundaryField
{
    inlet
    {
        type            fixedValue;
        value           uniform 0;
    }
    outlet
    {
        type            zeroGradient;
    }
    yzfaces
    {
        type            empty;
    }
}


// ************************************************************************* //
