/*--------------------------------*- C++ -*----------------------------------*\
| =========                 |                                                 |
| \\      /  F ield         | foam-extend: Open Source CFD                    |
|  \\    /   O peration     | Version:     5.0                                |
|   \\  /    A nd           | Web:         http://www.foam-extend.org         |
|    \\/     M anipulation  |                                                 |
\*---------------------------------------------------------------------------*/
FoamFile
{
    version     2.0;
    format      ascii;
    class       surfaceScalarField;
    location    "1";
    object      phi;
}
// * * * * * * * * * * * * * * * * * * * * * * * * * * * * * * * * * * * * * //

dimensions      [0 3 -1 0 0 0 0];

internalField   nonuniform List<scalar> 
99
(
0.000122482
0.000122503
0.000122465
0.000122477
0.000122474
0.000122481
0.000122486
0.00012248
0.000122474
0.000122457
0.00012245
0.000122457
0.000122457
0.000122455
0.000122462
0.000122461
0.000122467
0.000122473
0.000122473
0.000122467
0.000122471
0.000122481
0.000122485
0.000122487
0.000122483
0.000122485
0.000122469
0.000122473
0.000122467
0.000122459
0.000122461
0.000122455
0.000122462
0.000122467
0.000122455
0.000122444
0.000122441
0.000122435
0.000122434
0.000122451
0.000122454
0.000122457
0.000122461
0.000122463
0.000122462
0.00012246
0.000122469
0.00012246
0.000122459
0.00012248
0.000122475
0.000122477
0.000122478
0.000122492
0.000122497
0.000122492
0.000122509
0.00012251
0.000122509
0.0001225
0.000122501
0.000122486
0.000122479
0.000122495
0.000122497
0.000122492
0.000122504
0.000122509
0.000122508
0.000122503
0.000122513
0.000122511
0.000122494
0.000122511
0.000122512
0.00012252
0.00012251
0.000122517
0.000122516
0.000122518
0.000122515
0.000122505
0.000122515
0.000122525
0.000122513
0.000122529
0.000122525
0.000122521
0.000122498
0.000122507
0.000122491
0.000122493
0.000122488
0.000122488
0.000122479
0.000122483
0.00012247
0.000122458
0.000122459
)
;

boundaryField
{
    inlet
    {
        type            calculated;
        value           uniform -0.0001225;
    }
    outlet
    {
        type            calculated;
        value           uniform 0.000122471;
    }
    yzfaces
    {
        type            empty;
    }
}


// ************************************************************************* //
