/*--------------------------------*- C++ -*----------------------------------*\
| =========                 |                                                 |
| \\      /  F ield         | foam-extend: Open Source CFD                    |
|  \\    /   O peration     | Version:     5.0                                |
|   \\  /    A nd           | Web:         http://www.foam-extend.org         |
|    \\/     M anipulation  |                                                 |
\*---------------------------------------------------------------------------*/
FoamFile
{
    version     2.0;
    format      ascii;
    class       surfaceScalarField;
    location    "1";
    object      phi.gas;
}
// * * * * * * * * * * * * * * * * * * * * * * * * * * * * * * * * * * * * * //

dimensions      [0 3 -1 0 0 0 0];

internalField   nonuniform List<scalar> 
99
(
0.000635379
0.000645154
0.000653677
0.000662138
0.000670003
0.00067759
0.000684893
0.00069163
0.000697826
0.00070367
0.000709572
0.000715528
0.000721455
0.000727348
0.000733121
0.000738591
0.00074383
0.000748903
0.000753813
0.000758711
0.000763609
0.000768308
0.000772738
0.000777098
0.00078142
0.000785678
0.000789681
0.000793685
0.000797586
0.000801536
0.000805541
0.000809396
0.000813274
0.000817166
0.000820964
0.000824817
0.000828679
0.000832521
0.000836545
0.000840693
0.000844576
0.00084832
0.00085203
0.000855609
0.000859023
0.000862326
0.000865685
0.000868923
0.000872105
0.000875282
0.000878263
0.000881314
0.000884296
0.000887199
0.000889909
0.000892593
0.00089542
0.000898008
0.000900549
0.000903168
0.000905869
0.000908433
0.000911015
0.000913753
0.000916421
0.000919007
0.000921652
0.000924203
0.000926758
0.000929264
0.000931809
0.000934227
0.000936632
0.000939265
0.000941636
0.00094401
0.000946304
0.000948761
0.000951037
0.000953229
0.000955412
0.000957617
0.000959887
0.000961981
0.000963923
0.000966124
0.000968126
0.000970158
0.000972164
0.000974475
0.000976627
0.000978992
0.000981341
0.000983787
0.000986252
0.000988869
0.000991366
0.000993892
0.000996389
)
;

boundaryField
{
    inlet
    {
        type            fixedValue;
        value           uniform -0.0006125;
    }
    outlet
    {
        type            calculated;
        value           uniform 0.000997523;
    }
    yzfaces
    {
        type            empty;
    }
}


// ************************************************************************* //
