/*--------------------------------*- C++ -*----------------------------------*\
| =========                 |                                                 |
| \\      /  F ield         | foam-extend: Open Source CFD                    |
|  \\    /   O peration     | Version:     5.0                                |
|   \\  /    A nd           | Web:         http://www.foam-extend.org         |
|    \\/     M anipulation  |                                                 |
\*---------------------------------------------------------------------------*/
FoamFile
{
    version     2.0;
    format      ascii;
    class       surfaceScalarField;
    location    "1";
    object      phi.water;
}
// * * * * * * * * * * * * * * * * * * * * * * * * * * * * * * * * * * * * * //

dimensions      [0 3 -1 0 0 0 0];

internalField   nonuniform List<scalar> 
99
(
8.11463e-07
1.46547e-06
2.02318e-06
2.5861e-06
3.1392e-06
3.66287e-06
4.1918e-06
4.71032e-06
5.19631e-06
5.63688e-06
6.08257e-06
6.53387e-06
6.98925e-06
7.46418e-06
7.93722e-06
8.40724e-06
8.84789e-06
9.28112e-06
9.70225e-06
1.01213e-05
1.05563e-05
1.09809e-05
1.13923e-05
1.17766e-05
1.21774e-05
1.25775e-05
1.29698e-05
1.33458e-05
1.37192e-05
1.40956e-05
1.44857e-05
1.48707e-05
1.52517e-05
1.56241e-05
1.60156e-05
1.6406e-05
1.68064e-05
1.71954e-05
1.76029e-05
1.8029e-05
1.84581e-05
1.886e-05
1.92565e-05
1.96609e-05
2.00456e-05
2.04138e-05
2.07731e-05
2.11481e-05
2.15247e-05
2.18706e-05
2.22095e-05
2.25644e-05
2.29151e-05
2.32583e-05
2.35764e-05
2.38901e-05
2.42183e-05
2.45364e-05
2.48369e-05
2.51424e-05
2.54755e-05
2.5798e-05
2.61268e-05
2.64381e-05
2.67689e-05
2.71009e-05
2.74287e-05
2.77437e-05
2.806e-05
2.83899e-05
2.87112e-05
2.90261e-05
2.93335e-05
2.96726e-05
2.99942e-05
3.02956e-05
3.05982e-05
3.0919e-05
3.12387e-05
3.15339e-05
3.18217e-05
3.212e-05
3.24369e-05
3.2726e-05
3.29905e-05
3.32752e-05
3.35619e-05
3.38382e-05
3.41234e-05
3.44278e-05
3.47389e-05
3.50648e-05
3.53949e-05
3.57297e-05
3.60818e-05
3.64478e-05
3.68163e-05
3.7196e-05
3.75791e-05
)
;

boundaryField
{
    inlet
    {
        type            fixedValue;
        value           uniform 0;
    }
    outlet
    {
        type            calculated;
        value           uniform 3.80097e-05;
    }
    yzfaces
    {
        type            empty;
    }
}


// ************************************************************************* //
