/*--------------------------------*- C++ -*----------------------------------*\
| =========                 |                                                 |
| \\      /  F ield         | foam-extend: Open Source CFD                    |
|  \\    /   O peration     | Version:     5.0                                |
|   \\  /    A nd           | Web:         http://www.foam-extend.org         |
|    \\/     M anipulation  |                                                 |
\*---------------------------------------------------------------------------*/
FoamFile
{
    version     2.0;
    format      ascii;
    class       volVectorField;
    location    "1";
    object      U.water;
}
// * * * * * * * * * * * * * * * * * * * * * * * * * * * * * * * * * * * * * //

dimensions      [0 1 -1 0 0 0 0];

internalField   nonuniform List<vector> 
100
(
(0.000424695 0 0)
(0.000958314 0 0)
(0.00144479 0 0)
(0.00189499 0 0)
(0.00234516 0 0)
(0.00278493 0 0)
(0.00321074 0 0)
(0.0036345 0 0)
(0.00404322 0 0)
(0.00442572 0 0)
(0.00478719 0 0)
(0.00515317 0 0)
(0.00552378 0 0)
(0.00590122 0 0)
(0.00628708 0 0)
(0.00666984 0 0)
(0.00704324 0 0)
(0.00739963 0 0)
(0.00774956 0 0)
(0.00809349 0 0)
(0.00843928 0 0)
(0.00878959 0 0)
(0.00913039 0 0)
(0.009459 0 0)
(0.00977751 0 0)
(0.0101037 0 0)
(0.0104263 0 0)
(0.0107416 0 0)
(0.0110479 0 0)
(0.0113547 0 0)
(0.0116659 0 0)
(0.0119821 0 0)
(0.0122949 0 0)
(0.0126046 0 0)
(0.0129149 0 0)
(0.0132346 0 0)
(0.013556 0 0)
(0.0138806 0 0)
(0.0142053 0 0)
(0.0145435 0 0)
(0.0148903 0 0)
(0.0152316 0 0)
(0.0155581 0 0)
(0.015883 0 0)
(0.0162055 0 0)
(0.0165134 0 0)
(0.0168124 0 0)
(0.0171104 0 0)
(0.0174147 0 0)
(0.0177119 0 0)
(0.0179927 0 0)
(0.0182745 0 0)
(0.0185617 0 0)
(0.0188436 0 0)
(0.019116 0 0)
(0.0193745 0 0)
(0.0196349 0 0)
(0.0198984 0 0)
(0.0201532 0 0)
(0.020402 0 0)
(0.0206601 0 0)
(0.0209286 0 0)
(0.0211926 0 0)
(0.0214566 0 0)
(0.0217172 0 0)
(0.0219871 0 0)
(0.0222562 0 0)
(0.0225196 0 0)
(0.022778 0 0)
(0.0230397 0 0)
(0.0233062 0 0)
(0.0235665 0 0)
(0.023822 0 0)
(0.0240825 0 0)
(0.0243518 0 0)
(0.0246085 0 0)
(0.0248557 0 0)
(0.0251086 0 0)
(0.0253686 0 0)
(0.0256211 0 0)
(0.0258606 0 0)
(0.0260995 0 0)
(0.0263473 0 0)
(0.0265955 0 0)
(0.026824 0 0)
(0.0270473 0 0)
(0.0272798 0 0)
(0.0275119 0 0)
(0.027741 0 0)
(0.0279813 0 0)
(0.0282325 0 0)
(0.0284924 0 0)
(0.0287601 0 0)
(0.0290323 0 0)
(0.0293121 0 0)
(0.0296052 0 0)
(0.0299049 0 0)
(0.0302095 0 0)
(0.0305183 0 0)
(0.0308212 0 0)
)
;

boundaryField
{
    inlet
    {
        type            fixedValue;
        value           uniform (0 0 0);
    }
    outlet
    {
        type            zeroGradient;
    }
    yzfaces
    {
        type            empty;
    }
}


// ************************************************************************* //
