/*--------------------------------*- C++ -*----------------------------------*\
| =========                 |                                                 |
| \\      /  F ield         | foam-extend: Open Source CFD                    |
|  \\    /   O peration     | Version:     5.0                                |
|   \\  /    A nd           | Web:         http://www.foam-extend.org         |
|    \\/     M anipulation  |                                                 |
\*---------------------------------------------------------------------------*/
FoamFile
{
    version     2.0;
    format      ascii;
    class       surfaceScalarField;
    location    "5";
    object      phi;
}
// * * * * * * * * * * * * * * * * * * * * * * * * * * * * * * * * * * * * * //

dimensions      [0 3 -1 0 0 0 0];

internalField   nonuniform List<scalar> 
99
(
1.22926e-06
1.24294e-06
1.23975e-06
1.24175e-06
1.23143e-06
1.23791e-06
1.22702e-06
1.22479e-06
1.21498e-06
1.21668e-06
1.20976e-06
1.21342e-06
1.21188e-06
1.21563e-06
1.22021e-06
1.21568e-06
1.21468e-06
1.20337e-06
1.20381e-06
1.19672e-06
1.19861e-06
1.20159e-06
1.19851e-06
1.19389e-06
1.19662e-06
1.19465e-06
1.19372e-06
1.19503e-06
1.19201e-06
1.19358e-06
1.19403e-06
1.19341e-06
1.1879e-06
1.18973e-06
1.18724e-06
1.18683e-06
1.18562e-06
1.18216e-06
1.17781e-06
1.17826e-06
1.17952e-06
1.17938e-06
1.17964e-06
1.1742e-06
1.17916e-06
1.18168e-06
1.1811e-06
1.1818e-06
1.17953e-06
1.17924e-06
1.17766e-06
1.17759e-06
1.17771e-06
1.17871e-06
1.17852e-06
1.17462e-06
1.17323e-06
1.17206e-06
1.17337e-06
1.172e-06
1.16958e-06
1.16897e-06
1.16672e-06
1.16035e-06
1.16326e-06
1.15994e-06
1.16105e-06
1.16173e-06
1.16233e-06
1.16227e-06
1.16353e-06
1.16376e-06
1.16394e-06
1.16198e-06
1.16378e-06
1.16334e-06
1.16212e-06
1.16247e-06
1.16051e-06
1.16171e-06
1.1616e-06
1.16259e-06
1.16149e-06
1.16289e-06
1.16253e-06
1.16318e-06
1.16288e-06
1.16555e-06
1.16636e-06
1.16663e-06
1.16687e-06
1.16707e-06
1.16682e-06
1.168e-06
1.16798e-06
1.16598e-06
1.16587e-06
1.1645e-06
1.16408e-06
)
;

boundaryField
{
    inlet
    {
        type            calculated;
        value           uniform -1.225e-06;
    }
    outlet
    {
        type            calculated;
        value           uniform 1.16337e-06;
    }
    yzfaces
    {
        type            empty;
    }
}


// ************************************************************************* //
