/*--------------------------------*- C++ -*----------------------------------*\
| =========                 |                                                 |
| \\      /  F ield         | foam-extend: Open Source CFD                    |
|  \\    /   O peration     | Version:     5.0                                |
|   \\  /    A nd           | Web:         http://www.foam-extend.org         |
|    \\/     M anipulation  |                                                 |
\*---------------------------------------------------------------------------*/
FoamFile
{
    version     2.0;
    format      ascii;
    class       volScalarField;
    location    "7";
    object      alpha.gas;
}
// * * * * * * * * * * * * * * * * * * * * * * * * * * * * * * * * * * * * * //

dimensions      [0 0 0 0 0 0 0];

internalField   nonuniform List<scalar> 
100
(
0.181861
0.173504
0.167055
0.161766
0.157217
0.153291
0.149755
0.146612
0.143701
0.141087
0.138717
0.136532
0.134472
0.132529
0.130696
0.128987
0.127414
0.12586
0.1244
0.123024
0.121762
0.120507
0.119259
0.118114
0.117034
0.115944
0.114898
0.113998
0.113071
0.112142
0.111258
0.110414
0.109644
0.108793
0.108006
0.107287
0.106536
0.105835
0.105168
0.104497
0.103879
0.103287
0.102646
0.102038
0.101503
0.100967
0.100412
0.0998656
0.0993103
0.0987925
0.0982733
0.0977306
0.0972259
0.0967513
0.0962814
0.0958375
0.0953908
0.0949538
0.0945154
0.0940809
0.0936715
0.0932381
0.0928452
0.0924348
0.0920447
0.0916368
0.091288
0.0909398
0.0905868
0.0902341
0.0898915
0.0895413
0.0892043
0.0888558
0.0885256
0.0881721
0.0878579
0.0875689
0.087279
0.0869675
0.0866685
0.0863747
0.0861046
0.0858044
0.0855049
0.0852424
0.0849989
0.0847216
0.0844669
0.084199
0.0839362
0.083681
0.0834208
0.0831537
0.0828815
0.0826181
0.0823692
0.082138
0.0819137
0.0816759
)
;

boundaryField
{
    inlet
    {
        type            fixedValue;
        value           uniform 0.2;
    }
    outlet
    {
        type            zeroGradient;
    }
    yzfaces
    {
        type            empty;
    }
}


// ************************************************************************* //
