/*--------------------------------*- C++ -*----------------------------------*\
| =========                 |                                                 |
| \\      /  F ield         | foam-extend: Open Source CFD                    |
|  \\    /   O peration     | Version:     5.0                                |
|   \\  /    A nd           | Web:         http://www.foam-extend.org         |
|    \\/     M anipulation  |                                                 |
\*---------------------------------------------------------------------------*/
FoamFile
{
    version     2.0;
    format      ascii;
    class       volScalarField;
    location    "7";
    object      CO2.gas;
}
// * * * * * * * * * * * * * * * * * * * * * * * * * * * * * * * * * * * * * //

dimensions      [0 0 0 0 0 0 0];

internalField   nonuniform List<scalar> 
100
(
0.181947
0.173646
0.167144
0.161984
0.157363
0.153542
0.149914
0.14679
0.143752
0.141115
0.13884
0.136721
0.134648
0.132673
0.130788
0.129075
0.127544
0.125925
0.124424
0.123036
0.121812
0.12054
0.119218
0.118053
0.11699
0.115843
0.114763
0.113948
0.113034
0.112051
0.111164
0.110322
0.109602
0.108684
0.107884
0.107193
0.10642
0.105715
0.105058
0.104387
0.10379
0.103236
0.102559
0.101966
0.101483
0.100962
0.100411
0.0998696
0.0992999
0.0987861
0.0982451
0.0976724
0.0971507
0.09668
0.0962161
0.0957788
0.095343
0.094911
0.0944597
0.0940268
0.0936181
0.093164
0.0927865
0.0923663
0.0919675
0.0915512
0.0912188
0.0908839
0.0905434
0.0901837
0.0898556
0.0895102
0.0891684
0.0888106
0.0884881
0.0881095
0.0878145
0.0875424
0.0872679
0.0869519
0.0866511
0.0863599
0.086108
0.0857932
0.085486
0.0852298
0.0850133
0.0847329
0.0844948
0.0842203
0.0839648
0.0837088
0.083461
0.0831761
0.0828876
0.0826276
0.0823773
0.0821526
0.0819394
0.0816968
)
;

boundaryField
{
    inlet
    {
        type            fixedValue;
        value           uniform 0.2;
    }
    outlet
    {
        type            zeroGradient;
    }
    yzfaces
    {
        type            empty;
    }
}


// ************************************************************************* //
