/*--------------------------------*- C++ -*----------------------------------*\
| =========                 |                                                 |
| \\      /  F ield         | foam-extend: Open Source CFD                    |
|  \\    /   O peration     | Version:     5.0                                |
|   \\  /    A nd           | Web:         http://www.foam-extend.org         |
|    \\/     M anipulation  |                                                 |
\*---------------------------------------------------------------------------*/
FoamFile
{
    version     2.0;
    format      ascii;
    class       volScalarField;
    location    "7";
    object      H2O.water;
}
// * * * * * * * * * * * * * * * * * * * * * * * * * * * * * * * * * * * * * //

dimensions      [0 0 0 0 0 0 0];

internalField   nonuniform List<scalar> 
100
(
0.0181475
0.0265178
0.0329626
0.0382856
0.0428224
0.0467853
0.0502987
0.0534525
0.0563182
0.058924
0.0613372
0.0635554
0.0656134
0.0675446
0.0693533
0.0710609
0.0726601
0.0741787
0.0756149
0.0769841
0.0782699
0.0795153
0.0807122
0.0818445
0.0829352
0.0839827
0.0850016
0.0859644
0.086901
0.0877865
0.0886666
0.0895116
0.0903209
0.0911151
0.0918893
0.0926309
0.093363
0.0940578
0.0947318
0.0954024
0.0960395
0.0966639
0.0972718
0.0978929
0.0984776
0.0990288
0.0995876
0.100138
0.100679
0.101201
0.101697
0.102208
0.102694
0.103173
0.103648
0.104099
0.104557
0.104999
0.105422
0.105858
0.106268
0.106677
0.107087
0.107486
0.107865
0.108262
0.10863
0.108993
0.109361
0.109705
0.110065
0.11042
0.110751
0.111088
0.111427
0.111748
0.112087
0.112397
0.112707
0.113012
0.113309
0.113606
0.1139
0.114181
0.11447
0.114741
0.115021
0.115294
0.115571
0.11583
0.116103
0.116358
0.116635
0.116878
0.117127
0.117396
0.117642
0.117883
0.118123
0.118354
)
;

boundaryField
{
    inlet
    {
        type            fixedValue;
        value           uniform 0;
    }
    outlet
    {
        type            zeroGradient;
    }
    yzfaces
    {
        type            empty;
    }
}


// ************************************************************************* //
