/*--------------------------------*- C++ -*----------------------------------*\
| =========                 |                                                 |
| \\      /  F ield         | foam-extend: Open Source CFD                    |
|  \\    /   O peration     | Version:     5.0                                |
|   \\  /    A nd           | Web:         http://www.foam-extend.org         |
|    \\/     M anipulation  |                                                 |
\*---------------------------------------------------------------------------*/
FoamFile
{
    version     2.0;
    format      ascii;
    class       surfaceScalarField;
    location    "7";
    object      phi;
}
// * * * * * * * * * * * * * * * * * * * * * * * * * * * * * * * * * * * * * //

dimensions      [0 3 -1 0 0 0 0];

internalField   nonuniform List<scalar> 
99
(
1.2257e-05
1.22378e-05
1.22457e-05
1.22409e-05
1.22337e-05
1.22586e-05
1.2279e-05
1.22757e-05
1.22754e-05
1.22824e-05
1.22731e-05
1.22904e-05
1.22748e-05
1.2273e-05
1.22747e-05
1.22765e-05
1.22849e-05
1.22661e-05
1.22602e-05
1.22741e-05
1.2282e-05
1.22603e-05
1.22653e-05
1.22597e-05
1.22642e-05
1.22513e-05
1.2252e-05
1.22403e-05
1.22324e-05
1.22363e-05
1.22367e-05
1.22398e-05
1.22431e-05
1.2236e-05
1.22279e-05
1.22291e-05
1.22379e-05
1.22332e-05
1.22351e-05
1.22357e-05
1.2239e-05
1.22317e-05
1.22254e-05
1.2245e-05
1.22367e-05
1.22445e-05
1.22374e-05
1.22247e-05
1.22317e-05
1.22372e-05
1.22276e-05
1.22249e-05
1.22185e-05
1.22232e-05
1.22236e-05
1.22318e-05
1.2226e-05
1.22255e-05
1.22267e-05
1.22223e-05
1.22292e-05
1.22315e-05
1.22287e-05
1.22296e-05
1.2229e-05
1.22297e-05
1.22305e-05
1.22308e-05
1.22256e-05
1.22317e-05
1.22367e-05
1.22376e-05
1.22474e-05
1.22468e-05
1.22494e-05
1.2248e-05
1.22519e-05
1.22489e-05
1.22445e-05
1.22472e-05
1.22483e-05
1.22486e-05
1.22443e-05
1.22404e-05
1.22442e-05
1.22443e-05
1.22468e-05
1.22449e-05
1.22471e-05
1.22513e-05
1.22533e-05
1.2248e-05
1.22488e-05
1.22532e-05
1.2257e-05
1.22511e-05
1.22501e-05
1.22518e-05
1.22574e-05
)
;

boundaryField
{
    inlet
    {
        type            calculated;
        value           uniform -1.225e-05;
    }
    outlet
    {
        type            calculated;
        value           uniform 1.22589e-05;
    }
    yzfaces
    {
        type            empty;
    }
}


// ************************************************************************* //
