/*--------------------------------*- C++ -*----------------------------------*\
| =========                 |                                                 |
| \\      /  F ield         | foam-extend: Open Source CFD                    |
|  \\    /   O peration     | Version:     5.0                                |
|   \\  /    A nd           | Web:         http://www.foam-extend.org         |
|    \\/     M anipulation  |                                                 |
\*---------------------------------------------------------------------------*/
FoamFile
{
    version     2.0;
    format      ascii;
    class       surfaceScalarField;
    location    "7";
    object      phi.water;
}
// * * * * * * * * * * * * * * * * * * * * * * * * * * * * * * * * * * * * * //

dimensions      [0 3 -1 0 0 0 0];

internalField   nonuniform List<scalar> 
99
(
9.60292e-08
1.68931e-07
2.35084e-07
2.96575e-07
3.55483e-07
4.12198e-07
4.68172e-07
5.20989e-07
5.73785e-07
6.25096e-07
6.72769e-07
7.21229e-07
7.67168e-07
8.14245e-07
8.60998e-07
9.06796e-07
9.5058e-07
9.94011e-07
1.03753e-06
1.08199e-06
1.12257e-06
1.16325e-06
1.20706e-06
1.24803e-06
1.2885e-06
1.32893e-06
1.37068e-06
1.40449e-06
1.44181e-06
1.48243e-06
1.52071e-06
1.55945e-06
1.59416e-06
1.63393e-06
1.67099e-06
1.70623e-06
1.74536e-06
1.7809e-06
1.81542e-06
1.85164e-06
1.88542e-06
1.91667e-06
1.95354e-06
1.9901e-06
2.02063e-06
2.05318e-06
2.08557e-06
2.1177e-06
2.15376e-06
2.18715e-06
2.21976e-06
2.25609e-06
2.2897e-06
2.32246e-06
2.35576e-06
2.38791e-06
2.41826e-06
2.44977e-06
2.48279e-06
2.51463e-06
2.5465e-06
2.58079e-06
2.61131e-06
2.64398e-06
2.67494e-06
2.70894e-06
2.7373e-06
2.76595e-06
2.79424e-06
2.82545e-06
2.85591e-06
2.88654e-06
2.91824e-06
2.95019e-06
2.9802e-06
3.01283e-06
3.0431e-06
3.0679e-06
3.09401e-06
3.12486e-06
3.15413e-06
3.18275e-06
3.20752e-06
3.23712e-06
3.26829e-06
3.29443e-06
3.31894e-06
3.34774e-06
3.37426e-06
3.40352e-06
3.43191e-06
3.45767e-06
3.48587e-06
3.51709e-06
3.54913e-06
3.57619e-06
3.60479e-06
3.63096e-06
3.65816e-06
)
;

boundaryField
{
    inlet
    {
        type            fixedValue;
        value           uniform 0;
    }
    outlet
    {
        type            calculated;
        value           uniform 3.69056e-06;
    }
    yzfaces
    {
        type            empty;
    }
}


// ************************************************************************* //
