/*--------------------------------*- C++ -*----------------------------------*\
| =========                 |                                                 |
| \\      /  F ield         | foam-extend: Open Source CFD                    |
|  \\    /   O peration     | Version:     5.0                                |
|   \\  /    A nd           | Web:         http://www.foam-extend.org         |
|    \\/     M anipulation  |                                                 |
\*---------------------------------------------------------------------------*/
FoamFile
{
    version     2.0;
    format      ascii;
    class       surfaceScalarField;
    location    "7";
    object      phi.gas;
}
// * * * * * * * * * * * * * * * * * * * * * * * * * * * * * * * * * * * * * //

dimensions      [0 3 -1 0 0 0 0];

internalField   nonuniform List<scalar> 
99
(
6.89263e-05
7.17906e-05
7.43623e-05
7.6587e-05
7.85948e-05
8.06616e-05
8.26055e-05
8.43051e-05
8.59515e-05
8.7477e-05
8.87722e-05
9.02376e-05
9.14537e-05
9.27445e-05
9.40054e-05
9.51709e-05
9.63831e-05
9.73978e-05
9.84491e-05
9.95728e-05
0.000100626
0.000101495
0.000102559
0.000103444
0.000104424
0.000105279
0.000106115
0.000106783
0.000107573
0.000108465
0.000109273
0.000110035
0.000110851
0.000111619
0.000112274
0.000113012
0.000113836
0.000114485
0.000115185
0.000115848
0.000116481
0.000117067
0.000117685
0.000118453
0.000118918
0.000119585
0.000120123
0.000120621
0.000121303
0.000121963
0.000122513
0.000123125
0.000123642
0.000124244
0.000124784
0.000125393
0.000125859
0.000126395
0.000126952
0.000127428
0.000128043
0.00012859
0.000129066
0.0001296
0.000130122
0.000130611
0.000131054
0.0001315
0.000131907
0.000132429
0.000132934
0.000133406
0.00013399
0.000134446
0.000134961
0.000135409
0.000135841
0.000136189
0.000136555
0.000137021
0.000137453
0.00013784
0.000138201
0.000138607
0.000139057
0.000139398
0.000139792
0.000140148
0.000140552
0.000140994
0.000141398
0.000141715
0.000142127
0.000142616
0.000143078
0.000143399
0.00014375
0.000144107
0.000144526
)
;

boundaryField
{
    inlet
    {
        type            fixedValue;
        value           uniform -6.125e-05;
    }
    outlet
    {
        type            calculated;
        value           uniform 0.000144707;
    }
    yzfaces
    {
        type            empty;
    }
}


// ************************************************************************* //
