/*--------------------------------*- C++ -*----------------------------------*\
| =========                 |                                                 |
| \\      /  F ield         | foam-extend: Open Source CFD                    |
|  \\    /   O peration     | Version:     5.0                                |
|   \\  /    A nd           | Web:         http://www.foam-extend.org         |
|    \\/     M anipulation  |                                                 |
\*---------------------------------------------------------------------------*/
FoamFile
{
    version     2.0;
    format      ascii;
    class       volVectorField;
    location    "7";
    object      U.gas;
}
// * * * * * * * * * * * * * * * * * * * * * * * * * * * * * * * * * * * * * //

dimensions      [0 1 -1 0 0 0 0];

internalField   nonuniform List<vector> 
100
(
(0.054998 0 0)
(0.0576064 0 0)
(0.0597875 0 0)
(0.0617325 0 0)
(0.0634677 0 0)
(0.0651191 0 0)
(0.0667576 0 0)
(0.0682121 0 0)
(0.0695586 0 0)
(0.0708409 0 0)
(0.0720182 0 0)
(0.0731678 0 0)
(0.0742665 0 0)
(0.0752736 0 0)
(0.0762999 0 0)
(0.0772915 0 0)
(0.0782486 0 0)
(0.0791512 0 0)
(0.0799686 0 0)
(0.0808578 0 0)
(0.0817369 0 0)
(0.0825105 0 0)
(0.0832834 0 0)
(0.0840562 0 0)
(0.0847952 0 0)
(0.0855292 0 0)
(0.0862301 0 0)
(0.086839 0 0)
(0.0874489 0 0)
(0.0881242 0 0)
(0.0888051 0 0)
(0.0894625 0 0)
(0.0900803 0 0)
(0.0907358 0 0)
(0.0913031 0 0)
(0.0918537 0 0)
(0.0925042 0 0)
(0.093096 0 0)
(0.0936401 0 0)
(0.0942157 0 0)
(0.0947563 0 0)
(0.0952489 0 0)
(0.0957547 0 0)
(0.0963402 0 0)
(0.0968577 0 0)
(0.097336 0 0)
(0.0978411 0 0)
(0.0982594 0 0)
(0.0987477 0 0)
(0.0992786 0 0)
(0.0997492 0 0)
(0.100213 0 0)
(0.100656 0 0)
(0.101105 0 0)
(0.101581 0 0)
(0.10205 0 0)
(0.102501 0 0)
(0.102909 0 0)
(0.103351 0 0)
(0.103775 0 0)
(0.104201 0 0)
(0.104686 0 0)
(0.105087 0 0)
(0.105506 0 0)
(0.105915 0 0)
(0.106346 0 0)
(0.10672 0 0)
(0.107097 0 0)
(0.107455 0 0)
(0.107841 0 0)
(0.108262 0 0)
(0.108673 0 0)
(0.109092 0 0)
(0.109521 0 0)
(0.109898 0 0)
(0.110302 0 0)
(0.110666 0 0)
(0.110998 0 0)
(0.111296 0 0)
(0.111648 0 0)
(0.11201 0 0)
(0.112358 0 0)
(0.112654 0 0)
(0.11297 0 0)
(0.113324 0 0)
(0.113651 0 0)
(0.113953 0 0)
(0.114291 0 0)
(0.114597 0 0)
(0.114952 0 0)
(0.115301 0 0)
(0.115597 0 0)
(0.115896 0 0)
(0.116251 0 0)
(0.116628 0 0)
(0.116946 0 0)
(0.117224 0 0)
(0.117517 0 0)
(0.117835 0 0)
(0.118172 0 0)
)
;

boundaryField
{
    inlet
    {
        type            fixedValue;
        value           uniform (0.05 0 0);
    }
    outlet
    {
        type            zeroGradient;
    }
    yzfaces
    {
        type            empty;
    }
}


// ************************************************************************* //
