/*--------------------------------*- C++ -*----------------------------------*\
| =========                 |                                                 |
| \\      /  F ield         | foam-extend: Open Source CFD                    |
|  \\    /   O peration     | Version:     5.0                                |
|   \\  /    A nd           | Web:         http://www.foam-extend.org         |
|    \\/     M anipulation  |                                                 |
\*---------------------------------------------------------------------------*/
FoamFile
{
    version     2.0;
    format      ascii;
    class       volVectorField;
    location    "7";
    object      U.water;
}
// * * * * * * * * * * * * * * * * * * * * * * * * * * * * * * * * * * * * * //

dimensions      [0 1 -1 0 0 0 0];

internalField   nonuniform List<vector> 
100
(
(4.82576e-05 0 0)
(0.00011043 0 0)
(0.000165999 0 0)
(0.000217798 0 0)
(0.000266695 0 0)
(0.000314024 0 0)
(0.000359832 0 0)
(0.000404291 0 0)
(0.000447011 0 0)
(0.00048948 0 0)
(0.000530156 0 0)
(0.00056974 0 0)
(0.000608294 0 0)
(0.000646151 0 0)
(0.000684247 0 0)
(0.000721982 0 0)
(0.000758869 0 0)
(0.000794077 0 0)
(0.000829342 0 0)
(0.00086512 0 0)
(0.00090021 0 0)
(0.00093323 0 0)
(0.000967069 0 0)
(0.00100155 0 0)
(0.0010349 0 0)
(0.00106742 0 0)
(0.0011005 0 0)
(0.00113222 0 0)
(0.00116129 0 0)
(0.00119266 0 0)
(0.00122469 0 0)
(0.00125611 0 0)
(0.0012867 0 0)
(0.00131626 0 0)
(0.00134736 0 0)
(0.00137727 0 0)
(0.0014072 0 0)
(0.00143762 0 0)
(0.00146638 0 0)
(0.0014951 0 0)
(0.00152403 0 0)
(0.00155107 0 0)
(0.00157844 0 0)
(0.00160841 0 0)
(0.0016366 0 0)
(0.00166277 0 0)
(0.00168928 0 0)
(0.00171568 0 0)
(0.00174323 0 0)
(0.00177161 0 0)
(0.00179832 0 0)
(0.00182571 0 0)
(0.00185398 0 0)
(0.00188115 0 0)
(0.00190809 0 0)
(0.00193507 0 0)
(0.00196067 0 0)
(0.001986 0 0)
(0.00201219 0 0)
(0.00203849 0 0)
(0.00206461 0 0)
(0.00209114 0 0)
(0.00211785 0 0)
(0.00214336 0 0)
(0.00216928 0 0)
(0.00219532 0 0)
(0.00222127 0 0)
(0.00224488 0 0)
(0.00226827 0 0)
(0.00229258 0 0)
(0.002318 0 0)
(0.00234293 0 0)
(0.00236839 0 0)
(0.00239409 0 0)
(0.00241946 0 0)
(0.00244451 0 0)
(0.00247045 0 0)
(0.00249354 0 0)
(0.00251474 0 0)
(0.00253783 0 0)
(0.00256236 0 0)
(0.00258604 0 0)
(0.00260831 0 0)
(0.00263018 0 0)
(0.00265459 0 0)
(0.00267833 0 0)
(0.00269976 0 0)
(0.0027215 0 0)
(0.00274448 0 0)
(0.00276724 0 0)
(0.00279083 0 0)
(0.00281316 0 0)
(0.00283526 0 0)
(0.00285918 0 0)
(0.00288452 0 0)
(0.00290851 0 0)
(0.00293127 0 0)
(0.0029539 0 0)
(0.00297604 0 0)
(0.00299878 0 0)
)
;

boundaryField
{
    inlet
    {
        type            fixedValue;
        value           uniform (0 0 0);
    }
    outlet
    {
        type            zeroGradient;
    }
    yzfaces
    {
        type            empty;
    }
}


// ************************************************************************* //
