/*--------------------------------*- C++ -*----------------------------------*\
| =========                 |                                                 |
| \\      /  F ield         | foam-extend: Open Source CFD                    |
|  \\    /   O peration     | Version:     5.0                                |
|   \\  /    A nd           | Web:         http://www.foam-extend.org         |
|    \\/     M anipulation  |                                                 |
\*---------------------------------------------------------------------------*/
FoamFile
{
    version     2.0;
    format      ascii;
    class       volScalarField;
    location    "10";
    object      alpha.water;
}
// * * * * * * * * * * * * * * * * * * * * * * * * * * * * * * * * * * * * * //

dimensions      [0 0 0 0 0 0 0];

internalField   nonuniform List<scalar> 
100
(
0.014143
0.02105
0.0265398
0.0311389
0.03522
0.0387394
0.0419921
0.0449107
0.0476057
0.0500495
0.0523061
0.0544447
0.0564463
0.0583135
0.060128
0.0617622
0.0633434
0.0648221
0.0662032
0.0675074
0.0687948
0.0699844
0.071156
0.0722848
0.0734004
0.074478
0.0754693
0.0764974
0.0774215
0.0783376
0.0792248
0.0801399
0.0809122
0.0817332
0.0825176
0.0832624
0.0839876
0.0847146
0.0854092
0.0860654
0.0867266
0.0873929
0.088021
0.0886767
0.0892692
0.0898591
0.0904117
0.0909402
0.0914649
0.0919761
0.0924813
0.0930036
0.0934865
0.0939949
0.0944843
0.0949409
0.0953591
0.0958119
0.0963073
0.0967515
0.0971921
0.0975781
0.0979653
0.098374
0.0988288
0.0992007
0.0995947
0.100006
0.100379
0.100771
0.101125
0.101515
0.101882
0.10227
0.102639
0.102955
0.103287
0.103614
0.103888
0.104205
0.104532
0.104821
0.105101
0.105378
0.105649
0.10591
0.106194
0.106476
0.106721
0.107001
0.107272
0.107536
0.107809
0.108071
0.108367
0.108652
0.108903
0.109144
0.109435
0.109706
)
;

boundaryField
{
    inlet
    {
        type            fixedValue;
        value           uniform 0;
    }
    outlet
    {
        type            zeroGradient;
    }
    yzfaces
    {
        type            empty;
    }
}


// ************************************************************************* //
