/*--------------------------------*- C++ -*----------------------------------*\
| =========                 |                                                 |
| \\      /  F ield         | foam-extend: Open Source CFD                    |
|  \\    /   O peration     | Version:     5.0                                |
|   \\  /    A nd           | Web:         http://www.foam-extend.org         |
|    \\/     M anipulation  |                                                 |
\*---------------------------------------------------------------------------*/
FoamFile
{
    version     2.0;
    format      ascii;
    class       volScalarField;
    location    "10";
    object      H2O.water;
}
// * * * * * * * * * * * * * * * * * * * * * * * * * * * * * * * * * * * * * //

dimensions      [0 0 0 0 0 0 0];

internalField   nonuniform List<scalar> 
100
(
0.014146
0.0210517
0.0265447
0.0311725
0.0352073
0.0387858
0.0419827
0.0449027
0.0475705
0.050019
0.0522987
0.0544085
0.056401
0.0582576
0.0599982
0.0616647
0.0632248
0.064706
0.0661202
0.067461
0.0687525
0.0699806
0.0711626
0.0722954
0.0733763
0.0744258
0.075431
0.0764046
0.0773498
0.0782608
0.079138
0.079993
0.0808262
0.0816166
0.0823971
0.083158
0.0838857
0.0846021
0.085292
0.085969
0.0866211
0.0872785
0.0879096
0.0885225
0.0891018
0.0896957
0.09026
0.0908157
0.0913651
0.0918848
0.0924041
0.0929109
0.0934264
0.0939064
0.0943925
0.0948708
0.0953405
0.0957769
0.096243
0.0966788
0.0971187
0.0975465
0.0979462
0.0983574
0.0987661
0.0991676
0.0995654
0.0999521
0.10033
0.100693
0.101066
0.101421
0.101774
0.102134
0.102484
0.102828
0.103164
0.103503
0.103819
0.104133
0.104458
0.104774
0.105076
0.105368
0.105663
0.105961
0.106241
0.106522
0.10681
0.107081
0.107368
0.107627
0.107887
0.108154
0.10843
0.108702
0.108969
0.10921
0.109459
0.10974
)
;

boundaryField
{
    inlet
    {
        type            fixedValue;
        value           uniform 0;
    }
    outlet
    {
        type            zeroGradient;
    }
    yzfaces
    {
        type            empty;
    }
}


// ************************************************************************* //
