/*--------------------------------*- C++ -*----------------------------------*\
| =========                 |                                                 |
| \\      /  F ield         | foam-extend: Open Source CFD                    |
|  \\    /   O peration     | Version:     5.0                                |
|   \\  /    A nd           | Web:         http://www.foam-extend.org         |
|    \\/     M anipulation  |                                                 |
\*---------------------------------------------------------------------------*/
FoamFile
{
    version     2.0;
    format      ascii;
    class       surfaceScalarField;
    location    "10";
    object      phi;
}
// * * * * * * * * * * * * * * * * * * * * * * * * * * * * * * * * * * * * * //

dimensions      [0 3 -1 0 0 0 0];

internalField   nonuniform List<scalar> 
99
(
1.22487e-05
1.2264e-05
1.22605e-05
1.22644e-05
1.22826e-05
1.2275e-05
1.22537e-05
1.22563e-05
1.22456e-05
1.22497e-05
1.22351e-05
1.22381e-05
1.22517e-05
1.22551e-05
1.22589e-05
1.22372e-05
1.22483e-05
1.22564e-05
1.22634e-05
1.22727e-05
1.22797e-05
1.2282e-05
1.22785e-05
1.22837e-05
1.22854e-05
1.22904e-05
1.22911e-05
1.22942e-05
1.22948e-05
1.22953e-05
1.22947e-05
1.22852e-05
1.22853e-05
1.22888e-05
1.22881e-05
1.22863e-05
1.22859e-05
1.22845e-05
1.22861e-05
1.22803e-05
1.22867e-05
1.229e-05
1.22753e-05
1.22818e-05
1.22716e-05
1.2279e-05
1.2284e-05
1.2295e-05
1.22961e-05
1.2295e-05
1.22995e-05
1.22994e-05
1.23043e-05
1.23119e-05
1.23039e-05
1.23136e-05
1.23148e-05
1.23143e-05
1.23015e-05
1.231e-05
1.23096e-05
1.23249e-05
1.23213e-05
1.23173e-05
1.2311e-05
1.23132e-05
1.23038e-05
1.23072e-05
1.23057e-05
1.23178e-05
1.2316e-05
1.23146e-05
1.23176e-05
1.23094e-05
1.23147e-05
1.2317e-05
1.23159e-05
1.23187e-05
1.23238e-05
1.2321e-05
1.23212e-05
1.23235e-05
1.23247e-05
1.23217e-05
1.2326e-05
1.23247e-05
1.23289e-05
1.23287e-05
1.23325e-05
1.23305e-05
1.23278e-05
1.23254e-05
1.23221e-05
1.23174e-05
1.23278e-05
1.23261e-05
1.23309e-05
1.23244e-05
1.23268e-05
)
;

boundaryField
{
    inlet
    {
        type            calculated;
        value           uniform -1.225e-05;
    }
    outlet
    {
        type            calculated;
        value           uniform 1.23028e-05;
    }
    yzfaces
    {
        type            empty;
    }
}


// ************************************************************************* //
