/*--------------------------------*- C++ -*----------------------------------*\
| =========                 |                                                 |
| \\      /  F ield         | foam-extend: Open Source CFD                    |
|  \\    /   O peration     | Version:     5.0                                |
|   \\  /    A nd           | Web:         http://www.foam-extend.org         |
|    \\/     M anipulation  |                                                 |
\*---------------------------------------------------------------------------*/
FoamFile
{
    version     2.0;
    format      ascii;
    class       surfaceScalarField;
    location    "10";
    object      phi.gas;
}
// * * * * * * * * * * * * * * * * * * * * * * * * * * * * * * * * * * * * * //

dimensions      [0 3 -1 0 0 0 0];

internalField   nonuniform List<scalar> 
99
(
6.71348e-05
6.95744e-05
7.15569e-05
7.34477e-05
7.52527e-05
7.67787e-05
7.81927e-05
7.9639e-05
8.09197e-05
8.21808e-05
8.3295e-05
8.45147e-05
8.57466e-05
8.69286e-05
8.80375e-05
8.88737e-05
8.99413e-05
9.09058e-05
9.17997e-05
9.27185e-05
9.35968e-05
9.44097e-05
9.5194e-05
9.60698e-05
9.69331e-05
9.77558e-05
9.85563e-05
9.93559e-05
0.000100071
0.0001008
0.000101566
0.000102173
0.000102812
0.000103533
0.000104166
0.000104767
0.000105397
0.000106016
0.000106617
0.000107148
0.000107815
0.000108437
0.000108925
0.000109596
0.000110066
0.000110664
0.000111203
0.00011178
0.000112274
0.00011275
0.000113302
0.000113793
0.000114337
0.000114934
0.000115332
0.00011583
0.000116275
0.000116798
0.000117194
0.000117752
0.000118166
0.000118698
0.000119088
0.000119551
0.000119952
0.000120382
0.000120752
0.000121239
0.000121673
0.000122223
0.000122645
0.000123097
0.000123594
0.000123982
0.000124432
0.00012482
0.000125192
0.000125545
0.000125933
0.000126298
0.000126659
0.000127001
0.000127335
0.000127618
0.000127957
0.000128266
0.000128668
0.000128971
0.000129327
0.000129652
0.000129958
0.00013029
0.000130605
0.000130929
0.00013144
0.000131768
0.000132134
0.000132445
0.000132863
)
;

boundaryField
{
    inlet
    {
        type            fixedValue;
        value           uniform -6.125e-05;
    }
    outlet
    {
        type            calculated;
        value           uniform 0.000132759;
    }
    yzfaces
    {
        type            empty;
    }
}


// ************************************************************************* //
