/*--------------------------------*- C++ -*----------------------------------*\
| =========                 |                                                 |
| \\      /  F ield         | foam-extend: Open Source CFD                    |
|  \\    /   O peration     | Version:     5.0                                |
|   \\  /    A nd           | Web:         http://www.foam-extend.org         |
|    \\/     M anipulation  |                                                 |
\*---------------------------------------------------------------------------*/
FoamFile
{
    version     2.0;
    format      ascii;
    class       volVectorField;
    location    "10";
    object      U.gas;
}
// * * * * * * * * * * * * * * * * * * * * * * * * * * * * * * * * * * * * * //

dimensions      [0 1 -1 0 0 0 0];

internalField   nonuniform List<vector> 
100
(
(0.0537992 0 0)
(0.0559008 0 0)
(0.0576887 0 0)
(0.0592505 0 0)
(0.0607609 0 0)
(0.0621008 0 0)
(0.0632907 0 0)
(0.0644178 0 0)
(0.0655197 0 0)
(0.0665534 0 0)
(0.067525 0 0)
(0.0684675 0 0)
(0.0694512 0 0)
(0.0703973 0 0)
(0.0713127 0 0)
(0.0720838 0 0)
(0.0728672 0 0)
(0.0737025 0 0)
(0.0744895 0 0)
(0.075253 0 0)
(0.076022 0 0)
(0.0767263 0 0)
(0.0773996 0 0)
(0.0780685 0 0)
(0.0787573 0 0)
(0.0794327 0 0)
(0.0800615 0 0)
(0.0807183 0 0)
(0.0813166 0 0)
(0.0819104 0 0)
(0.0824894 0 0)
(0.0830615 0 0)
(0.0835451 0 0)
(0.0841149 0 0)
(0.0846629 0 0)
(0.0851713 0 0)
(0.0856728 0 0)
(0.0861834 0 0)
(0.0866829 0 0)
(0.087144 0 0)
(0.0876317 0 0)
(0.0881604 0 0)
(0.0885894 0 0)
(0.0890564 0 0)
(0.0894942 0 0)
(0.0899387 0 0)
(0.0904141 0 0)
(0.0908881 0 0)
(0.0913489 0 0)
(0.0917575 0 0)
(0.0921775 0 0)
(0.0926197 0 0)
(0.0930333 0 0)
(0.0935018 0 0)
(0.0939081 0 0)
(0.0942978 0 0)
(0.0946929 0 0)
(0.0950836 0 0)
(0.0954597 0 0)
(0.0958265 0 0)
(0.0962432 0 0)
(0.0966395 0 0)
(0.0970286 0 0)
(0.0973641 0 0)
(0.097733 0 0)
(0.0980504 0 0)
(0.0983815 0 0)
(0.0987349 0 0)
(0.0990858 0 0)
(0.0994931 0 0)
(0.0998647 0 0)
(0.10022 0 0)
(0.100574 0 0)
(0.100923 0 0)
(0.101265 0 0)
(0.101599 0 0)
(0.101927 0 0)
(0.102253 0 0)
(0.102553 0 0)
(0.102878 0 0)
(0.103191 0 0)
(0.103489 0 0)
(0.103785 0 0)
(0.104056 0 0)
(0.104336 0 0)
(0.104614 0 0)
(0.104919 0 0)
(0.105225 0 0)
(0.105493 0 0)
(0.105793 0 0)
(0.106054 0 0)
(0.106309 0 0)
(0.106572 0 0)
(0.106814 0 0)
(0.107156 0 0)
(0.107498 0 0)
(0.107779 0 0)
(0.108032 0 0)
(0.108331 0 0)
(0.10853 0 0)
)
;

boundaryField
{
    inlet
    {
        type            fixedValue;
        value           uniform (0.05 0 0);
    }
    outlet
    {
        type            zeroGradient;
    }
    yzfaces
    {
        type            empty;
    }
}


// ************************************************************************* //
