/*--------------------------------*- C++ -*----------------------------------*\
| =========                 |                                                 |
| \\      /  F ield         | foam-extend: Open Source CFD                    |
|  \\    /   O peration     | Version:     5.0                                |
|   \\  /    A nd           | Web:         http://www.foam-extend.org         |
|    \\/     M anipulation  |                                                 |
\*---------------------------------------------------------------------------*/
FoamFile
{
    version     2.0;
    format      ascii;
    class       volVectorField;
    location    "10";
    object      U.water;
}
// * * * * * * * * * * * * * * * * * * * * * * * * * * * * * * * * * * * * * //

dimensions      [0 1 -1 0 0 0 0];

internalField   nonuniform List<vector> 
100
(
(3.60119e-05 0 0)
(8.21099e-05 0 0)
(0.000123593 0 0)
(0.000162323 0 0)
(0.000199334 0 0)
(0.000235194 0 0)
(0.000268957 0 0)
(0.000302396 0 0)
(0.000334873 0 0)
(0.000366824 0 0)
(0.000397438 0 0)
(0.000427427 0 0)
(0.000457833 0 0)
(0.000487685 0 0)
(0.000516927 0 0)
(0.000545665 0 0)
(0.00057339 0 0)
(0.000601537 0 0)
(0.000628917 0 0)
(0.000655658 0 0)
(0.000681894 0 0)
(0.000708157 0 0)
(0.000733561 0 0)
(0.000759075 0 0)
(0.000784599 0 0)
(0.000810723 0 0)
(0.000836284 0 0)
(0.000861225 0 0)
(0.000886696 0 0)
(0.00091075 0 0)
(0.000935034 0 0)
(0.000959047 0 0)
(0.000983223 0 0)
(0.00100604 0 0)
(0.00103002 0 0)
(0.00105307 0 0)
(0.00107565 0 0)
(0.00109838 0 0)
(0.00112115 0 0)
(0.00114312 0 0)
(0.00116509 0 0)
(0.00118812 0 0)
(0.00121017 0 0)
(0.00123217 0 0)
(0.00125485 0 0)
(0.00127626 0 0)
(0.00129828 0 0)
(0.0013197 0 0)
(0.00134071 0 0)
(0.00136104 0 0)
(0.00138131 0 0)
(0.00140193 0 0)
(0.00142291 0 0)
(0.0014445 0 0)
(0.00146595 0 0)
(0.00148642 0 0)
(0.00150633 0 0)
(0.00152501 0 0)
(0.0015453 0 0)
(0.00156668 0 0)
(0.00158696 0 0)
(0.0016077 0 0)
(0.00162678 0 0)
(0.00164516 0 0)
(0.00166547 0 0)
(0.00168605 0 0)
(0.00170422 0 0)
(0.00172407 0 0)
(0.00174416 0 0)
(0.00176445 0 0)
(0.00178485 0 0)
(0.00180396 0 0)
(0.00182447 0 0)
(0.00184429 0 0)
(0.00186516 0 0)
(0.00188531 0 0)
(0.00190343 0 0)
(0.00192218 0 0)
(0.00194045 0 0)
(0.00195735 0 0)
(0.00197598 0 0)
(0.00199457 0 0)
(0.00201165 0 0)
(0.00202844 0 0)
(0.0020453 0 0)
(0.00206157 0 0)
(0.00207839 0 0)
(0.00209655 0 0)
(0.00211377 0 0)
(0.00213043 0 0)
(0.00214788 0 0)
(0.00216449 0 0)
(0.00218149 0 0)
(0.00219864 0 0)
(0.00221734 0 0)
(0.00223774 0 0)
(0.00225622 0 0)
(0.00227277 0 0)
(0.00229037 0 0)
(0.00230856 0 0)
)
;

boundaryField
{
    inlet
    {
        type            fixedValue;
        value           uniform (0 0 0);
    }
    outlet
    {
        type            zeroGradient;
    }
    yzfaces
    {
        type            empty;
    }
}


// ************************************************************************* //
