/*--------------------------------*- C++ -*----------------------------------*\
| =========                 |                                                 |
| \\      /  F ield         | foam-extend: Open Source CFD                    |
|  \\    /   O peration     | Version:     5.0                                |
|   \\  /    A nd           | Web:         http://www.foam-extend.org         |
|    \\/     M anipulation  |                                                 |
\*---------------------------------------------------------------------------*/
FoamFile
{
    version     2.0;
    format      ascii;
    class       volScalarField;
    location    "9";
    object      alpha.gas;
}
// * * * * * * * * * * * * * * * * * * * * * * * * * * * * * * * * * * * * * //

dimensions      [0 0 0 0 0 0 0];

internalField   nonuniform List<scalar> 
100
(
0.169905
0.157601
0.148407
0.141307
0.135537
0.131342
0.127822
0.124855
0.121135
0.118294
0.114844
0.111642
0.109338
0.10702
0.104981
0.103302
0.102022
0.100168
0.0982051
0.0964987
0.0957494
0.0940168
0.0927393
0.0916694
0.0902948
0.0885079
0.0872524
0.0864073
0.0852119
0.084287
0.0836376
0.0835821
0.0833515
0.082237
0.0810156
0.0801358
0.0795065
0.078621
0.0775894
0.0768088
0.0760502
0.0754523
0.074874
0.0744425
0.0736211
0.0730011
0.0722414
0.0715057
0.0708156
0.0701361
0.0697224
0.0692437
0.0687254
0.0682479
0.067743
0.0669825
0.0662779
0.0658555
0.0652297
0.0645965
0.0640134
0.0634238
0.0627519
0.0620643
0.0614544
0.0608905
0.0603514
0.0597432
0.0590901
0.0584327
0.0576333
0.0568989
0.0560337
0.0552853
0.0542937
0.0532167
0.0518293
0.0499676
0.0475933
0.0441195
0.0381507
0.0260624
0.0236157
0.0230664
0.0231169
0.0232646
0.0234198
0.023543
0.0236287
0.0236923
0.0237431
0.0237857
0.0238161
0.0238408
0.023873
0.023903
0.0239314
0.0239652
0.0240081
0.0240587
)
;

boundaryField
{
    inlet
    {
        type            fixedValue;
        value           uniform 0.2;
    }
    outlet
    {
        type            zeroGradient;
    }
    yzfaces
    {
        type            empty;
    }
}


// ************************************************************************* //
