/*--------------------------------*- C++ -*----------------------------------*\
| =========                 |                                                 |
| \\      /  F ield         | foam-extend: Open Source CFD                    |
|  \\    /   O peration     | Version:     5.0                                |
|   \\  /    A nd           | Web:         http://www.foam-extend.org         |
|    \\/     M anipulation  |                                                 |
\*---------------------------------------------------------------------------*/
FoamFile
{
    version     2.0;
    format      ascii;
    class       volScalarField;
    location    "9";
    object      CO2.water;
}
// * * * * * * * * * * * * * * * * * * * * * * * * * * * * * * * * * * * * * //

dimensions      [0 0 0 0 0 0 0];

internalField   nonuniform List<scalar> 
100
(
0.000790258
0.00111232
0.00134511
0.00150387
0.00164121
0.00176868
0.00186665
0.00195017
0.00205
0.00213789
0.00223655
0.00231386
0.00238019
0.00243748
0.00249503
0.00253923
0.00257239
0.00261341
0.00266097
0.00271396
0.00273657
0.00276743
0.00280174
0.00282938
0.00285444
0.00289414
0.00294399
0.00297894
0.00300229
0.00303599
0.00305537
0.00305096
0.00306051
0.00309293
0.0031135
0.00314182
0.00315984
0.00318326
0.00320443
0.00322866
0.00324809
0.00326524
0.00327982
0.00329061
0.00330245
0.00332712
0.00334143
0.00336276
0.00338866
0.00341061
0.00342136
0.00343169
0.00344564
0.00345385
0.0034628
0.00347682
0.00349622
0.00351693
0.00352969
0.00354688
0.00356591
0.00357981
0.00360115
0.00361994
0.00363665
0.0036499
0.00366141
0.00367778
0.0036964
0.00370913
0.00373141
0.00375223
0.00378115
0.00379773
0.00382397
0.00385064
0.00388665
0.00393988
0.00400216
0.00409131
0.00424631
0.00455625
0.001992
0.000760375
0.000277456
9.96966e-05
3.56171e-05
1.26974e-05
4.51957e-06
1.60967e-06
5.74414e-07
2.05226e-07
7.3429e-08
2.62805e-08
9.42337e-09
3.37924e-09
1.21412e-09
4.37549e-10
1.58104e-10
5.86555e-11
)
;

boundaryField
{
    inlet
    {
        type            fixedValue;
        value           uniform 0;
    }
    outlet
    {
        type            zeroGradient;
    }
    yzfaces
    {
        type            empty;
    }
}


// ************************************************************************* //
