/*--------------------------------*- C++ -*----------------------------------*\
| =========                 |                                                 |
| \\      /  F ield         | foam-extend: Open Source CFD                    |
|  \\    /   O peration     | Version:     5.0                                |
|   \\  /    A nd           | Web:         http://www.foam-extend.org         |
|    \\/     M anipulation  |                                                 |
\*---------------------------------------------------------------------------*/
FoamFile
{
    version     2.0;
    format      ascii;
    class       volScalarField;
    location    "9";
    object      CO2.gas;
}
// * * * * * * * * * * * * * * * * * * * * * * * * * * * * * * * * * * * * * //

dimensions      [0 0 0 0 0 0 0];

internalField   nonuniform List<scalar> 
100
(
0.169574
0.157294
0.147079
0.137617
0.131172
0.12862
0.12574
0.123221
0.119713
0.117641
0.11462
0.111114
0.109125
0.106624
0.104777
0.103101
0.101823
0.0996358
0.0975769
0.0961482
0.0955629
0.093301
0.092057
0.0910119
0.0893097
0.0873246
0.0865317
0.0860842
0.0846905
0.0840381
0.0834747
0.0832347
0.0831892
0.0820768
0.0805974
0.0798593
0.0792596
0.0783623
0.07718
0.0765187
0.0757528
0.0751991
0.0746225
0.0742028
0.0731557
0.0726879
0.0718263
0.0711161
0.0705823
0.0699995
0.0695866
0.0690864
0.0685548
0.0680045
0.0674209
0.0665438
0.0658761
0.0656476
0.0649479
0.0643297
0.063798
0.0631772
0.0625602
0.0618966
0.0612951
0.0607078
0.0601283
0.0595504
0.0589033
0.0581829
0.0573889
0.0566918
0.0559246
0.0551413
0.0541559
0.0530618
0.0516483
0.0498703
0.0475006
0.0440336
0.0380764
0.0260117
0.0232696
0.022424
0.0221247
0.02189
0.0216054
0.0212598
0.0208255
0.0203267
0.01979
0.0192111
0.0185896
0.0179163
0.0172297
0.0165128
0.0157695
0.0150242
0.0142715
0.0135138
)
;

boundaryField
{
    inlet
    {
        type            fixedValue;
        value           uniform 0.2;
    }
    outlet
    {
        type            zeroGradient;
    }
    yzfaces
    {
        type            empty;
    }
}


// ************************************************************************* //
