/*--------------------------------*- C++ -*----------------------------------*\
| =========                 |                                                 |
| \\      /  F ield         | foam-extend: Open Source CFD                    |
|  \\    /   O peration     | Version:     5.0                                |
|   \\  /    A nd           | Web:         http://www.foam-extend.org         |
|    \\/     M anipulation  |                                                 |
\*---------------------------------------------------------------------------*/
FoamFile
{
    version     2.0;
    format      ascii;
    class       volScalarField;
    location    "9";
    object      H2O.gas;
}
// * * * * * * * * * * * * * * * * * * * * * * * * * * * * * * * * * * * * * //

dimensions      [0 0 0 0 0 0 0];

internalField   nonuniform List<scalar> 
100
(
0.000330886
0.000306924
0.000224522
0.000207411
0.00019106
0.000176754
0.000160448
0.000155644
0.000168977
0.000211971
0.000223655
0.000204779
0.000212933
0.00020572
0.000204448
0.000201178
0.000198684
0.000193103
0.000186602
0.000185478
0.000186469
0.00017437
0.000168367
0.000164362
0.000160437
0.000156559
0.000155486
0.000155578
0.00015421
0.000157997
0.000162882
0.000161742
0.000162325
0.000160154
0.000157058
0.000155559
0.000154228
0.000152451
0.000150154
0.000148961
0.000147669
0.000146553
0.000145434
0.000144648
0.000142649
0.000141713
0.000140046
0.000138649
0.000137542
0.000136588
0.000135782
0.000134818
0.000133777
0.000132619
0.000131387
0.00012974
0.000128492
0.000128164
0.000126771
0.000125486
0.000124439
0.00012303
0.000121938
0.00012072
0.000119636
0.000118468
0.000117256
0.000116124
0.000114858
0.000113386
0.000111885
0.000110552
0.000109124
0.000107539
0.000105642
0.000103478
0.000100711
9.73105e-05
9.26866e-05
8.59214e-05
7.42974e-05
5.07558e-05
0.000293281
0.000607036
0.000960572
0.00135424
0.00178827
0.00226508
0.00278193
0.00333598
0.00393279
0.00456467
0.00523045
0.00592438
0.00664876
0.00739427
0.00815808
0.00894179
0.00974205
0.010543
)
;

boundaryField
{
    inlet
    {
        type            fixedValue;
        value           uniform 0;
    }
    outlet
    {
        type            zeroGradient;
    }
    yzfaces
    {
        type            empty;
    }
}


// ************************************************************************* //
