/*--------------------------------*- C++ -*----------------------------------*\
| =========                 |                                                 |
| \\      /  F ield         | foam-extend: Open Source CFD                    |
|  \\    /   O peration     | Version:     5.0                                |
|   \\  /    A nd           | Web:         http://www.foam-extend.org         |
|    \\/     M anipulation  |                                                 |
\*---------------------------------------------------------------------------*/
FoamFile
{
    version     2.0;
    format      ascii;
    class       volScalarField;
    location    "9";
    object      Ns;
}
// * * * * * * * * * * * * * * * * * * * * * * * * * * * * * * * * * * * * * //

dimensions      [0 -3 0 0 1 0 0];

internalField   nonuniform List<scalar> 
100
(
0.232635
1.78695
2.36076
1.67026
1.013
1.19261
3.72073
2.96821
0.519747
2.75156
0.0519464
0.746981
1.40403
0.651726
0.840904
0.697127
1.3651
0.262783
1.29131
0.173188
2.14009
0.48626
0.0541448
0.555032
0.540392
1.094
1.16481
1.11227
0.825282
1.18131
1.17366
4.20252
4.51077
0.093516
0.119287
0.357677
0.231452
0.0566913
0.72507
0.170901
1.13117
0.316293
0.773168
0.898334
0.138585
0.383724
0.549162
0.13971
0.172453
0.286147
0.459546
0.327273
1.05037
0.0352027
0.0896779
0.811496
0.018182
0.882142
1.73797
0.548017
0.0629042
0.280075
1.23112
0.163082
0.0656252
0.357091
0.188996
0.0642964
0.319235
0.0455114
0.00574674
1.78164
0.0866917
0.556321
0.689738
0.226712
0.62728
0.919549
1.03444
3.97458
6.45949
17.0835
2
2
2
2
2
2
2
2
2
2
2
2
2
2
2
2
2
2
)
;

boundaryField
{
    inlet
    {
        type            fixedValue;
        value           uniform 0;
    }
    outlet
    {
        type            zeroGradient;
    }
    yzfaces
    {
        type            empty;
    }
}


// ************************************************************************* //
