/*--------------------------------*- C++ -*----------------------------------*\
| =========                 |                                                 |
| \\      /  F ield         | foam-extend: Open Source CFD                    |
|  \\    /   O peration     | Version:     5.0                                |
|   \\  /    A nd           | Web:         http://www.foam-extend.org         |
|    \\/     M anipulation  |                                                 |
\*---------------------------------------------------------------------------*/
FoamFile
{
    version     2.0;
    format      ascii;
    class       volScalarField;
    location    "10";
    object      alpha.water;
}
// * * * * * * * * * * * * * * * * * * * * * * * * * * * * * * * * * * * * * //

dimensions      [0 0 0 0 0 0 0];

internalField   nonuniform List<scalar> 
100
(
0.000682387
0.00108893
0.00158041
0.00182819
0.00222165
0.00259065
0.00298456
0.00334892
0.00378123
0.00416867
0.00445348
0.00458104
0.00468496
0.00489529
0.00515094
0.00547241
0.00586946
0.00626954
0.00665398
0.00702521
0.00737763
0.0076616
0.00780009
0.00791746
0.00813518
0.0084349
0.0088029
0.00918466
0.00951221
0.00980434
0.00996102
0.0100924
0.0103331
0.0106399
0.0109904
0.0112973
0.0115881
0.0117268
0.0118759
0.0121565
0.0124615
0.012771
0.0130368
0.0131967
0.0133594
0.0136268
0.013937
0.0142225
0.0144059
0.014566
0.014804
0.0151069
0.0153608
0.0155678
0.015754
0.0159922
0.016301
0.0165269
0.0167253
0.0169651
0.0173048
0.0176037
0.0179536
0.0183698
0.0188362
0.0193075
0.0197524
0.0201588
0.0205235
0.0208966
0.0212327
0.021558
0.0218692
0.0221819
0.0224614
0.0227289
0.0230241
0.0232618
0.0235675
0.0237868
0.0240078
0.0242652
0.0244938
0.0247212
0.0249291
0.0249747
0.0249622
0.0249816
0.0249611
0.0249703
0.0249753
0.0249731
0.024977
0.024972
0.024975
0.0249664
0.0249718
0.024972
0.0249716
0.0250622
)
;

boundaryField
{
    inlet
    {
        type            fixedValue;
        value           uniform 0;
    }
    outlet
    {
        type            zeroGradient;
    }
    yzfaces
    {
        type            empty;
    }
}


// ************************************************************************* //
