/*--------------------------------*- C++ -*----------------------------------*\
| =========                 |                                                 |
| \\      /  F ield         | foam-extend: Open Source CFD                    |
|  \\    /   O peration     | Version:     5.0                                |
|   \\  /    A nd           | Web:         http://www.foam-extend.org         |
|    \\/     M anipulation  |                                                 |
\*---------------------------------------------------------------------------*/
FoamFile
{
    version     2.0;
    format      ascii;
    class       volScalarField;
    location    "10";
    object      CO2.water;
}
// * * * * * * * * * * * * * * * * * * * * * * * * * * * * * * * * * * * * * //

dimensions      [0 0 0 0 0 0 0];

internalField   nonuniform List<scalar> 
100
(
1.79226e-05
2.86003e-05
4.15087e-05
4.80165e-05
5.83507e-05
6.80423e-05
7.8388e-05
8.79579e-05
9.93123e-05
0.000109488
0.000116969
0.000120319
0.000123048
0.000128573
0.000135287
0.00014373
0.000154159
0.000164667
0.000174764
0.000184514
0.00019377
0.000201228
0.000204866
0.000207948
0.000213667
0.000221539
0.000231204
0.000241231
0.000249834
0.000257506
0.000261622
0.000265072
0.000271394
0.000279453
0.000288657
0.000296719
0.000304355
0.000307999
0.000311915
0.000319286
0.000327296
0.000335425
0.000342405
0.000346606
0.00035088
0.000357902
0.000366049
0.000373547
0.000378363
0.00038257
0.000388821
0.000396775
0.000403443
0.000408881
0.000413772
0.000420028
0.000428139
0.000434071
0.000439283
0.000445582
0.000454502
0.000462354
0.000471542
0.000482475
0.000494723
0.000507102
0.000518789
0.000529463
0.000539041
0.000548839
0.000557668
0.000566211
0.000574384
0.000582598
0.000589939
0.000596963
0.000604716
0.000610961
0.000618989
0.000624749
0.000630553
0.000637315
0.000643317
0.00064929
0.000654751
0.00065595
0.000655621
0.000656131
0.000655592
0.000655834
0.000655965
0.000655907
0.000656009
0.000655877
0.000655957
0.00065573
0.000655872
0.000655878
0.000655868
0.000658247
)
;

boundaryField
{
    inlet
    {
        type            fixedValue;
        value           uniform 0;
    }
    outlet
    {
        type            zeroGradient;
    }
    yzfaces
    {
        type            empty;
    }
}


// ************************************************************************* //
