/*--------------------------------*- C++ -*----------------------------------*\
| =========                 |                                                 |
| \\      /  F ield         | foam-extend: Open Source CFD                    |
|  \\    /   O peration     | Version:     5.0                                |
|   \\  /    A nd           | Web:         http://www.foam-extend.org         |
|    \\/     M anipulation  |                                                 |
\*---------------------------------------------------------------------------*/
FoamFile
{
    version     2.0;
    format      ascii;
    class       volScalarField;
    location    "10";
    object      H2O.gas;
}
// * * * * * * * * * * * * * * * * * * * * * * * * * * * * * * * * * * * * * //

dimensions      [0 0 0 0 0 0 0];

internalField   nonuniform List<scalar> 
100
(
0.000388165
0.000387374
0.000386416
0.000385934
0.000385168
0.000384449
0.000383682
0.000382972
0.00038213
0.000381376
0.000380821
0.000380573
0.00038037
0.000379961
0.000379463
0.000378837
0.000378064
0.000377284
0.000376536
0.000375813
0.000375126
0.000374573
0.000374304
0.000374075
0.000373651
0.000373067
0.000372351
0.000371607
0.000370969
0.000370401
0.000370095
0.00036984
0.000369371
0.000368773
0.000368091
0.000367493
0.000366927
0.000366657
0.000366366
0.00036582
0.000365226
0.000364623
0.000364105
0.000363794
0.000363477
0.000362956
0.000362352
0.000361796
0.000361439
0.000361127
0.000360664
0.000360074
0.00035958
0.000359176
0.000358814
0.00035835
0.000357748
0.000357309
0.000356922
0.000356455
0.000355794
0.000355211
0.00035453
0.00035372
0.000352811
0.000351893
0.000351027
0.000350235
0.000349525
0.000348799
0.000348144
0.000347511
0.000346905
0.000346296
0.000345751
0.00034523
0.000344655
0.000344192
0.000343597
0.00034317
0.00034274
0.000342238
0.000341793
0.00034135
0.000340946
0.000340857
0.000340881
0.000340843
0.000340883
0.000340865
0.000340856
0.00034086
0.000340852
0.000340862
0.000340856
0.000340873
0.000340862
0.000340862
0.000340863
0.000340686
)
;

boundaryField
{
    inlet
    {
        type            fixedValue;
        value           uniform 0;
    }
    outlet
    {
        type            zeroGradient;
    }
    yzfaces
    {
        type            empty;
    }
}


// ************************************************************************* //
