/*--------------------------------*- C++ -*----------------------------------*\
| =========                 |                                                 |
| \\      /  F ield         | foam-extend: Open Source CFD                    |
|  \\    /   O peration     | Version:     5.0                                |
|   \\  /    A nd           | Web:         http://www.foam-extend.org         |
|    \\/     M anipulation  |                                                 |
\*---------------------------------------------------------------------------*/
FoamFile
{
    version     2.0;
    format      ascii;
    class       volScalarField;
    location    "10";
    object      H2O.water;
}
// * * * * * * * * * * * * * * * * * * * * * * * * * * * * * * * * * * * * * //

dimensions      [0 0 0 0 0 0 0];

internalField   nonuniform List<scalar> 
100
(
0.000664465
0.00106033
0.0015389
0.00178017
0.0021633
0.00252261
0.00290617
0.00326096
0.00368192
0.00405918
0.00433651
0.00446072
0.00456191
0.00476672
0.00501565
0.00532868
0.0057153
0.00610488
0.00647922
0.00684069
0.00718386
0.00746037
0.00759523
0.00770951
0.00792152
0.00821336
0.0085717
0.00894343
0.00926238
0.00954683
0.0096994
0.00982733
0.0100617
0.0103605
0.0107017
0.0110006
0.0112837
0.0114188
0.011564
0.0118373
0.0121342
0.0124356
0.0126944
0.0128501
0.0130086
0.0132689
0.013571
0.0138489
0.0140275
0.0141834
0.0144152
0.0147101
0.0149573
0.0151589
0.0153402
0.0155722
0.0158729
0.0160928
0.016286
0.0165196
0.0168503
0.0171414
0.017482
0.0178873
0.0183414
0.0188004
0.0192336
0.0196294
0.0199845
0.0203477
0.020675
0.0209918
0.0212948
0.0215993
0.0218715
0.0221319
0.0224193
0.0226509
0.0229485
0.0231621
0.0233772
0.0236279
0.0238504
0.0240719
0.0242743
0.0243188
0.0243066
0.0243255
0.0243055
0.0243145
0.0243193
0.0243172
0.024321
0.0243161
0.0243191
0.0243106
0.0243159
0.0243161
0.0243157
0.0244039
)
;

boundaryField
{
    inlet
    {
        type            fixedValue;
        value           uniform 0;
    }
    outlet
    {
        type            zeroGradient;
    }
    yzfaces
    {
        type            empty;
    }
}


// ************************************************************************* //
