/*--------------------------------*- C++ -*----------------------------------*\
| =========                 |                                                 |
| \\      /  F ield         | foam-extend: Open Source CFD                    |
|  \\    /   O peration     | Version:     5.0                                |
|   \\  /    A nd           | Web:         http://www.foam-extend.org         |
|    \\/     M anipulation  |                                                 |
\*---------------------------------------------------------------------------*/
FoamFile
{
    version     2.0;
    format      ascii;
    class       surfaceScalarField;
    location    "10";
    object      phi;
}
// * * * * * * * * * * * * * * * * * * * * * * * * * * * * * * * * * * * * * //

dimensions      [0 3 -1 0 0 0 0];

internalField   nonuniform List<scalar> 
99
(
0.000122499
0.000122512
0.000122517
0.000122517
0.00012253
0.000122529
0.000122545
0.000122537
0.00012253
0.000122534
0.000122555
0.000122562
0.000122551
0.000122558
0.000122549
0.00012257
0.000122549
0.00012255
0.000122539
0.000122555
0.000122549
0.000122553
0.00012255
0.000122579
0.000122564
0.00012256
0.000122557
0.000122591
0.000122572
0.000122617
0.000122617
0.000122621
0.000122617
0.000122614
0.000122637
0.000122629
0.000122646
0.000122653
0.000122664
0.000122636
0.00012262
0.000122622
0.000122632
0.000122635
0.000122632
0.000122642
0.000122637
0.000122642
0.00012264
0.000122636
0.000122632
0.000122642
0.000122662
0.000122671
0.000122654
0.000122647
0.000122658
0.000122665
0.000122694
0.000122679
0.000122682
0.000122705
0.000122721
0.000122695
0.00012271
0.000122754
0.000122766
0.00012277
0.000122794
0.000122816
0.00012285
0.000122886
0.000122917
0.000122928
0.000122924
0.000122931
0.000122958
0.000122965
0.000122981
0.000122992
0.000122981
0.000123009
0.000123039
0.000123032
0.000123053
0.000123059
0.00012303
0.000123056
0.000123035
0.000123036
0.000123045
0.00012303
0.00012302
0.000123024
0.000123006
0.000123001
0.000122997
0.000123009
0.000123021
)
;

boundaryField
{
    inlet
    {
        type            calculated;
        value           uniform -0.0001225;
    }
    outlet
    {
        type            calculated;
        value           uniform 0.000122997;
    }
    yzfaces
    {
        type            empty;
    }
}


// ************************************************************************* //
