/*--------------------------------*- C++ -*----------------------------------*\
| =========                 |                                                 |
| \\      /  F ield         | foam-extend: Open Source CFD                    |
|  \\    /   O peration     | Version:     5.0                                |
|   \\  /    A nd           | Web:         http://www.foam-extend.org         |
|    \\/     M anipulation  |                                                 |
\*---------------------------------------------------------------------------*/
FoamFile
{
    version     2.0;
    format      ascii;
    class       surfaceScalarField;
    location    "10";
    object      phi.gas;
}
// * * * * * * * * * * * * * * * * * * * * * * * * * * * * * * * * * * * * * //

dimensions      [0 3 -1 0 0 0 0];

internalField   nonuniform List<scalar> 
99
(
0.000615236
0.000616683
0.000617864
0.00061887
0.000620125
0.000621337
0.000622579
0.000623761
0.000625037
0.000626157
0.000626952
0.000627312
0.000627751
0.000628552
0.000629444
0.000630691
0.000631879
0.000633172
0.000634366
0.00063564
0.000636605
0.000637367
0.000637778
0.000638434
0.000639221
0.000640326
0.000641592
0.000642949
0.000643882
0.000644898
0.000645333
0.00064595
0.000646886
0.000648027
0.000649251
0.000650213
0.000651055
0.000651605
0.000652347
0.000653178
0.000654192
0.000655213
0.000655998
0.0006566
0.000657358
0.000658375
0.000659404
0.000660275
0.000660847
0.00066155
0.000662501
0.00066355
0.00066447
0.000665187
0.00066585
0.000666802
0.00066782
0.000668652
0.000669592
0.000670529
0.000671721
0.000673066
0.000674519
0.000675982
0.000677855
0.000679797
0.000681419
0.000682914
0.00068445
0.000685921
0.000687353
0.000688754
0.000690126
0.000691229
0.000692257
0.000693451
0.00069461
0.000695704
0.000696808
0.000697671
0.000698601
0.000699744
0.000700767
0.000701582
0.000702207
0.000702214
0.000702096
0.000702253
0.000702068
0.000702159
0.000702197
0.000702119
0.000702049
0.000702048
0.000701944
0.000701919
0.000701921
0.000702012
0.000702257
)
;

boundaryField
{
    inlet
    {
        type            fixedValue;
        value           uniform -0.0006125;
    }
    outlet
    {
        type            calculated;
        value           uniform 0.000702271;
    }
    yzfaces
    {
        type            empty;
    }
}


// ************************************************************************* //
