/*--------------------------------*- C++ -*----------------------------------*\
| =========                 |                                                 |
| \\      /  F ield         | foam-extend: Open Source CFD                    |
|  \\    /   O peration     | Version:     5.0                                |
|   \\  /    A nd           | Web:         http://www.foam-extend.org         |
|    \\/     M anipulation  |                                                 |
\*---------------------------------------------------------------------------*/
FoamFile
{
    version     2.0;
    format      ascii;
    class       surfaceScalarField;
    location    "10";
    object      phi.water;
}
// * * * * * * * * * * * * * * * * * * * * * * * * * * * * * * * * * * * * * //

dimensions      [0 3 -1 0 0 0 0];

internalField   nonuniform List<scalar> 
99
(
9.21172e-08
1.56302e-07
2.59129e-07
2.92567e-07
3.65097e-07
4.30145e-07
5.04584e-07
5.66367e-07
6.50366e-07
7.31767e-07
7.99563e-07
8.26003e-07
8.36338e-07
8.72733e-07
9.1607e-07
9.71773e-07
1.04866e-06
1.12855e-06
1.20554e-06
1.28149e-06
1.35821e-06
1.42909e-06
1.45931e-06
1.47412e-06
1.51096e-06
1.56615e-06
1.64116e-06
1.72614e-06
1.79802e-06
1.87314e-06
1.9087e-06
1.92614e-06
1.97151e-06
2.0334e-06
2.11376e-06
2.18201e-06
2.26063e-06
2.29056e-06
2.31082e-06
2.37003e-06
2.43769e-06
2.51137e-06
2.58197e-06
2.61835e-06
2.64509e-06
2.702e-06
2.77584e-06
2.85234e-06
2.89709e-06
2.92685e-06
2.97629e-06
3.0528e-06
3.11804e-06
3.16975e-06
3.20855e-06
3.25858e-06
3.34207e-06
3.39982e-06
3.44471e-06
3.49292e-06
3.58109e-06
3.65105e-06
3.73205e-06
3.83104e-06
3.94992e-06
4.07499e-06
4.1948e-06
4.30596e-06
4.4022e-06
4.50666e-06
4.59931e-06
4.68986e-06
4.77577e-06
4.86483e-06
4.94323e-06
5.01521e-06
5.10454e-06
5.1641e-06
5.26077e-06
5.32264e-06
5.38207e-06
5.4605e-06
5.52742e-06
5.5955e-06
5.67524e-06
5.69497e-06
5.68645e-06
5.6979e-06
5.68732e-06
5.69088e-06
5.69341e-06
5.69175e-06
5.69297e-06
5.6907e-06
5.6923e-06
5.68797e-06
5.69011e-06
5.6912e-06
5.68092e-06
)
;

boundaryField
{
    inlet
    {
        type            fixedValue;
        value           uniform 0;
    }
    outlet
    {
        type            calculated;
        value           uniform 5.71788e-06;
    }
    yzfaces
    {
        type            empty;
    }
}


// ************************************************************************* //
