/*--------------------------------*- C++ -*----------------------------------*\
| =========                 |                                                 |
| \\      /  F ield         | foam-extend: Open Source CFD                    |
|  \\    /   O peration     | Version:     5.0                                |
|   \\  /    A nd           | Web:         http://www.foam-extend.org         |
|    \\/     M anipulation  |                                                 |
\*---------------------------------------------------------------------------*/
FoamFile
{
    version     2.0;
    format      ascii;
    class       volScalarField;
    location    "10";
    object      S.water;
}
// * * * * * * * * * * * * * * * * * * * * * * * * * * * * * * * * * * * * * //

dimensions      [0 0 0 0 0 0 0];

internalField   nonuniform List<scalar> 
100
(
0.00341194
0.00544466
0.00790204
0.00914094
0.0111083
0.0129533
0.0149228
0.0167446
0.0189062
0.0208433
0.0222674
0.0229052
0.0234248
0.0244765
0.0257547
0.0273621
0.0293473
0.0313477
0.0332699
0.035126
0.0368882
0.038308
0.0390005
0.0395873
0.0406759
0.0421745
0.0440145
0.0459233
0.047561
0.0490217
0.0498051
0.050462
0.0516655
0.0531996
0.0549519
0.0564867
0.0579403
0.058634
0.0593796
0.0607827
0.0623076
0.063855
0.0651839
0.0659836
0.0667972
0.0681341
0.069685
0.0711125
0.0720293
0.0728301
0.0740202
0.0755344
0.0768038
0.077839
0.0787701
0.079961
0.0815052
0.0826345
0.0836266
0.0848257
0.0865239
0.0880187
0.0897678
0.091849
0.0941808
0.0965373
0.0987622
0.100794
0.102618
0.104483
0.106164
0.10779
0.109346
0.11091
0.112307
0.113644
0.11512
0.116309
0.117837
0.118934
0.120039
0.121326
0.122469
0.123606
0.124645
0.124874
0.124811
0.124908
0.124806
0.124852
0.124876
0.124865
0.124885
0.12486
0.124875
0.124832
0.124859
0.12486
0.124858
0.125311
)
;

boundaryField
{
    inlet
    {
        type            calculated;
        value           uniform 0;
    }
    outlet
    {
        type            calculated;
        value           uniform 0.125311;
    }
    yzfaces
    {
        type            empty;
    }
}


// ************************************************************************* //
