/*--------------------------------*- C++ -*----------------------------------*\
| =========                 |                                                 |
| \\      /  F ield         | foam-extend: Open Source CFD                    |
|  \\    /   O peration     | Version:     5.0                                |
|   \\  /    A nd           | Web:         http://www.foam-extend.org         |
|    \\/     M anipulation  |                                                 |
\*---------------------------------------------------------------------------*/
FoamFile
{
    version     2.0;
    format      ascii;
    class       volVectorField;
    location    "10";
    object      U.water;
}
// * * * * * * * * * * * * * * * * * * * * * * * * * * * * * * * * * * * * * //

dimensions      [0 1 -1 0 0 0 0];

internalField   nonuniform List<vector> 
100
(
(4.87971e-05 0 0)
(0.000108772 0 0)
(0.000167931 0 0)
(0.000230858 0 0)
(0.000270227 0 0)
(0.000327307 0 0)
(0.000382497 0 0)
(0.000440852 0 0)
(0.000497033 0 0)
(0.000562011 0 0)
(0.000620136 0 0)
(0.000662766 0 0)
(0.000682446 0 0)
(0.000699559 0 0)
(0.000732949 0 0)
(0.00077396 0 0)
(0.000825853 0 0)
(0.000889127 0 0)
(0.000953091 0 0)
(0.0010152 0 0)
(0.0010756 0 0)
(0.00113267 0 0)
(0.0011782 0 0)
(0.00120118 0 0)
(0.00122175 0 0)
(0.00125897 0 0)
(0.00131024 0 0)
(0.00137299 0 0)
(0.00143753 0 0)
(0.00149355 0 0)
(0.00154269 0 0)
(0.00156961 0 0)
(0.00159374 0 0)
(0.00163671 0 0)
(0.00169149 0 0)
(0.00175312 0 0)
(0.00180767 0 0)
(0.00185806 0 0)
(0.0018834 0 0)
(0.00191193 0 0)
(0.00196297 0 0)
(0.00201869 0 0)
(0.00207497 0 0)
(0.0021228 0 0)
(0.00215258 0 0)
(0.00218443 0 0)
(0.00223522 0 0)
(0.00229334 0 0)
(0.00234586 0 0)
(0.00238037 0 0)
(0.0024122 0 0)
(0.00245903 0 0)
(0.00251687 0 0)
(0.00256568 0 0)
(0.00260568 0 0)
(0.00264277 0 0)
(0.00269102 0 0)
(0.00275076 0 0)
(0.00279544 0 0)
(0.00283602 0 0)
(0.00288602 0 0)
(0.0029542 0 0)
(0.00301657 0 0)
(0.0030896 0 0)
(0.00317664 0 0)
(0.00327474 0 0)
(0.00337414 0 0)
(0.00346816 0 0)
(0.00355476 0 0)
(0.00363462 0 0)
(0.00371612 0 0)
(0.00379077 0 0)
(0.00386346 0 0)
(0.00393356 0 0)
(0.00400303 0 0)
(0.00406595 0 0)
(0.00412786 0 0)
(0.00419424 0 0)
(0.00425113 0 0)
(0.00431989 0 0)
(0.00437097 0 0)
(0.004424 0 0)
(0.00448457 0 0)
(0.00453895 0 0)
(0.0045926 0 0)
(0.00463817 0 0)
(0.00464714 0 0)
(0.00464484 0 0)
(0.00464853 0 0)
(0.00464403 0 0)
(0.00464625 0 0)
(0.00464728 0 0)
(0.00464644 0 0)
(0.00464689 0 0)
(0.00464571 0 0)
(0.00464573 0 0)
(0.00464387 0 0)
(0.00464529 0 0)
(0.00464574 0 0)
(0.00464828 0 0)
)
;

boundaryField
{
    inlet
    {
        type            fixedValue;
        value           uniform (0 0 0);
    }
    outlet
    {
        type            zeroGradient;
    }
    yzfaces
    {
        type            empty;
    }
}


// ************************************************************************* //
