/*--------------------------------*- C++ -*----------------------------------*\
| =========                 |                                                 |
| \\      /  F ield         | foam-extend: Open Source CFD                    |
|  \\    /   O peration     | Version:     5.0                                |
|   \\  /    A nd           | Web:         http://www.foam-extend.org         |
|    \\/     M anipulation  |                                                 |
\*---------------------------------------------------------------------------*/
FoamFile
{
    version     2.0;
    format      ascii;
    class       volScalarField;
    location    "1";
    object      alpha.gas;
}
// * * * * * * * * * * * * * * * * * * * * * * * * * * * * * * * * * * * * * //

dimensions      [0 0 0 0 0 0 0];

internalField   nonuniform List<scalar> 
100
(
0.115592
0.0972783
0.0862061
0.0783818
0.0722979
0.0674367
0.0630761
0.059287
0.0557165
0.0525802
0.0496094
0.0468272
0.0439832
0.0412768
0.0385653
0.0358376
0.0330533
0.0301955
0.027278
0.0242968
0.0213383
0.018515
0.0159894
0.0139214
0.0123959
0.0113756
0.0107558
0.0104006
0.01021
0.0101076
0.0100529
0.010026
0.0100126
0.0100027
0.0100001
0.0100021
0.00999983
0.0100002
0.00999956
0.00999913
0.00999998
0.0100015
0.0100001
0.0100005
0.00999862
0.00999875
0.0100011
0.0100011
0.00999969
0.0100008
0.0100029
0.0100006
0.0100018
0.0100032
0.0100033
0.0100035
0.010002
0.0100022
0.0099998
0.00999936
0.00999834
0.0100014
0.0100011
0.0100011
0.0100006
0.010001
0.00999957
0.0100013
0.00999981
0.00999969
0.00999988
0.0100013
0.0100015
0.0100034
0.010001
0.00999976
0.0100019
0.0100028
0.0100011
0.0099988
0.00999926
0.009999
0.0100018
0.0100018
0.010001
0.0100015
0.0100009
0.0100004
0.0100019
0.0100015
0.0100039
0.0100007
0.00999987
0.0100004
0.0100023
0.010003
0.0100026
0.0100015
0.0100009
0.0100005
)
;

boundaryField
{
    inlet
    {
        type            fixedValue;
        value           uniform 0.2;
    }
    outlet
    {
        type            zeroGradient;
    }
    yzfaces
    {
        type            empty;
    }
}


// ************************************************************************* //
