/*--------------------------------*- C++ -*----------------------------------*\
| =========                 |                                                 |
| \\      /  F ield         | foam-extend: Open Source CFD                    |
|  \\    /   O peration     | Version:     5.0                                |
|   \\  /    A nd           | Web:         http://www.foam-extend.org         |
|    \\/     M anipulation  |                                                 |
\*---------------------------------------------------------------------------*/
FoamFile
{
    version     2.0;
    format      ascii;
    class       surfaceScalarField;
    location    "1";
    object      phi;
}
// * * * * * * * * * * * * * * * * * * * * * * * * * * * * * * * * * * * * * //

dimensions      [0 3 -1 0 0 0 0];

internalField   nonuniform List<scalar> 
99
(
1.22438e-06
1.22846e-06
1.22535e-06
1.22655e-06
1.22597e-06
1.22363e-06
1.22778e-06
1.22532e-06
1.2273e-06
1.22567e-06
1.22526e-06
1.22195e-06
1.22365e-06
1.22279e-06
1.22294e-06
1.22276e-06
1.22275e-06
1.22314e-06
1.22261e-06
1.22486e-06
1.2243e-06
1.22331e-06
1.2241e-06
1.2251e-06
1.22488e-06
1.22592e-06
1.22523e-06
1.22714e-06
1.22834e-06
1.22824e-06
1.22718e-06
1.22547e-06
1.22573e-06
1.2244e-06
1.22444e-06
1.22388e-06
1.2245e-06
1.22145e-06
1.22296e-06
1.22226e-06
1.22174e-06
1.22473e-06
1.22347e-06
1.22424e-06
1.2267e-06
1.22451e-06
1.22489e-06
1.22293e-06
1.22335e-06
1.22161e-06
1.22171e-06
1.22001e-06
1.2194e-06
1.22104e-06
1.22131e-06
1.221e-06
1.22207e-06
1.22012e-06
1.21914e-06
1.21818e-06
1.22056e-06
1.22054e-06
1.22141e-06
1.22119e-06
1.22085e-06
1.22223e-06
1.22265e-06
1.22493e-06
1.22469e-06
1.22346e-06
1.22245e-06
1.22298e-06
1.22374e-06
1.22405e-06
1.22164e-06
1.21956e-06
1.2196e-06
1.21875e-06
1.21854e-06
1.21762e-06
1.21785e-06
1.21603e-06
1.21519e-06
1.21505e-06
1.21589e-06
1.21467e-06
1.21396e-06
1.21329e-06
1.2139e-06
1.21364e-06
1.21642e-06
1.21596e-06
1.21563e-06
1.21565e-06
1.21375e-06
1.21313e-06
1.21422e-06
1.21517e-06
1.21411e-06
)
;

boundaryField
{
    inlet
    {
        type            calculated;
        value           uniform -1.225e-06;
    }
    outlet
    {
        type            calculated;
        value           uniform 1.21534e-06;
    }
    yzfaces
    {
        type            empty;
    }
}


// ************************************************************************* //
