/*--------------------------------*- C++ -*----------------------------------*\
| =========                 |                                                 |
| \\      /  F ield         | foam-extend: Open Source CFD                    |
|  \\    /   O peration     | Version:     5.0                                |
|   \\  /    A nd           | Web:         http://www.foam-extend.org         |
|    \\/     M anipulation  |                                                 |
\*---------------------------------------------------------------------------*/
FoamFile
{
    version     2.0;
    format      ascii;
    class       surfaceScalarField;
    location    "1";
    object      phi;
}
// * * * * * * * * * * * * * * * * * * * * * * * * * * * * * * * * * * * * * //

dimensions      [0 3 -1 0 0 0 0];

internalField   nonuniform List<scalar> 
99
(
1.22281e-06
1.22314e-06
1.22452e-06
1.22107e-06
1.2233e-06
1.22198e-06
1.22184e-06
1.22401e-06
1.2231e-06
1.22465e-06
1.22299e-06
1.22094e-06
1.22123e-06
1.21837e-06
1.21798e-06
1.21893e-06
1.21943e-06
1.21973e-06
1.22028e-06
1.21973e-06
1.21953e-06
1.21604e-06
1.21654e-06
1.21726e-06
1.21714e-06
1.21819e-06
1.21898e-06
1.21949e-06
1.21901e-06
1.21763e-06
1.21718e-06
1.21522e-06
1.21644e-06
1.21678e-06
1.21611e-06
1.21818e-06
1.21737e-06
1.21848e-06
1.21871e-06
1.2184e-06
1.21633e-06
1.21626e-06
1.21744e-06
1.21874e-06
1.21805e-06
1.21819e-06
1.21968e-06
1.21977e-06
1.21959e-06
1.21807e-06
1.21876e-06
1.21876e-06
1.21807e-06
1.2185e-06
1.21815e-06
1.21876e-06
1.22068e-06
1.21676e-06
1.21617e-06
1.21577e-06
1.21463e-06
1.21526e-06
1.21765e-06
1.21727e-06
1.21873e-06
1.2176e-06
1.21661e-06
1.2167e-06
1.21713e-06
1.21787e-06
1.21714e-06
1.21675e-06
1.2156e-06
1.2175e-06
1.21888e-06
1.21829e-06
1.21907e-06
1.22024e-06
1.21948e-06
1.21973e-06
1.21943e-06
1.22008e-06
1.21943e-06
1.21695e-06
1.21596e-06
1.21562e-06
1.21673e-06
1.21597e-06
1.21651e-06
1.21549e-06
1.21589e-06
1.21337e-06
1.21309e-06
1.21376e-06
1.21258e-06
1.2146e-06
1.21322e-06
1.21238e-06
1.21186e-06
)
;

boundaryField
{
    inlet
    {
        type            calculated;
        value           uniform -1.225e-06;
    }
    outlet
    {
        type            calculated;
        value           uniform 1.21338e-06;
    }
    yzfaces
    {
        type            empty;
    }
}


// ************************************************************************* //
