/*--------------------------------*- C++ -*----------------------------------*\
| =========                 |                                                 |
| \\      /  F ield         | foam-extend: Open Source CFD                    |
|  \\    /   O peration     | Version:     5.0                                |
|   \\  /    A nd           | Web:         http://www.foam-extend.org         |
|    \\/     M anipulation  |                                                 |
\*---------------------------------------------------------------------------*/
FoamFile
{
    version     2.0;
    format      ascii;
    class       volVectorField;
    location    "1";
    object      U.water;
}
// * * * * * * * * * * * * * * * * * * * * * * * * * * * * * * * * * * * * * //

dimensions      [0 1 -1 0 0 0 0];

internalField   nonuniform List<vector> 
100
(
(0.000173981 0 0)
(0.000433879 0 0)
(0.000658454 0 0)
(0.000865539 0 0)
(0.00106153 0 0)
(0.00124658 0 0)
(0.00142965 0 0)
(0.0016139 0 0)
(0.00179841 0 0)
(0.00198525 0 0)
(0.00216788 0 0)
(0.00235105 0 0)
(0.00254306 0 0)
(0.00274749 0 0)
(0.00295415 0 0)
(0.00317033 0 0)
(0.00339473 0 0)
(0.00362822 0 0)
(0.00386482 0 0)
(0.00410258 0 0)
(0.00432928 0 0)
(0.00452625 0 0)
(0.00469021 0 0)
(0.0048164 0 0)
(0.00490117 0 0)
(0.0049545 0 0)
(0.00498536 0 0)
(0.00500459 0 0)
(0.00501999 0 0)
(0.0050269 0 0)
(0.00502704 0 0)
(0.00502269 0 0)
(0.00502034 0 0)
(0.00501846 0 0)
(0.00501605 0 0)
(0.00501503 0 0)
(0.0050151 0 0)
(0.00501018 0 0)
(0.00500707 0 0)
(0.00500876 0 0)
(0.00500624 0 0)
(0.00501129 0 0)
(0.00501478 0 0)
(0.0050138 0 0)
(0.00502041 0 0)
(0.00502101 0 0)
(0.0050173 0 0)
(0.00501401 0 0)
(0.00501084 0 0)
(0.00500815 0 0)
(0.00500478 0 0)
(0.00500147 0 0)
(0.00499682 0 0)
(0.00499892 0 0)
(0.00500279 0 0)
(0.00500265 0 0)
(0.00500416 0 0)
(0.0050024 0 0)
(0.00499641 0 0)
(0.00499249 0 0)
(0.0049954 0 0)
(0.0050003 0 0)
(0.00500199 0 0)
(0.0050033 0 0)
(0.00500219 0 0)
(0.00500437 0 0)
(0.00500799 0 0)
(0.00501353 0 0)
(0.0050177 0 0)
(0.00501477 0 0)
(0.00501015 0 0)
(0.00500911 0 0)
(0.00501175 0 0)
(0.00501396 0 0)
(0.00500957 0 0)
(0.00500043 0 0)
(0.00499629 0 0)
(0.00499457 0 0)
(0.00499239 0 0)
(0.00499012 0 0)
(0.00498875 0 0)
(0.00498548 0 0)
(0.00498005 0 0)
(0.00497798 0 0)
(0.00497942 0 0)
(0.00497864 0 0)
(0.00497468 0 0)
(0.00497184 0 0)
(0.00497172 0 0)
(0.00497243 0 0)
(0.00497756 0 0)
(0.00498227 0 0)
(0.00498076 0 0)
(0.00498012 0 0)
(0.00497625 0 0)
(0.00497104 0 0)
(0.004972 0 0)
(0.00497619 0 0)
(0.004976 0 0)
(0.00497638 0 0)
)
;

boundaryField
{
    inlet
    {
        type            fixedValue;
        value           uniform (0 0 0);
    }
    outlet
    {
        type            zeroGradient;
    }
    yzfaces
    {
        type            empty;
    }
}


// ************************************************************************* //
