/*--------------------------------*- C++ -*----------------------------------*\
| =========                 |                                                 |
| \\      /  F ield         | foam-extend: Open Source CFD                    |
|  \\    /   O peration     | Version:     5.0                                |
|   \\  /    A nd           | Web:         http://www.foam-extend.org         |
|    \\/     M anipulation  |                                                 |
\*---------------------------------------------------------------------------*/
FoamFile
{
    version     2.0;
    format      ascii;
    class       volScalarField;
    location    "9";
    object      alpha.gas;
}
// * * * * * * * * * * * * * * * * * * * * * * * * * * * * * * * * * * * * * //

dimensions      [0 0 0 0 0 0 0];

internalField   nonuniform List<scalar> 
100
(
0.167863
0.155244
0.146813
0.139077
0.135046
0.134443
0.133806
0.12974
0.125237
0.120701
0.116796
0.114029
0.111308
0.108623
0.105832
0.10362
0.101504
0.0993116
0.0974968
0.096177
0.0947739
0.0933112
0.092059
0.0908463
0.08945
0.0882537
0.0874012
0.0866739
0.0864197
0.0861424
0.0857021
0.0848726
0.0838014
0.0827713
0.0817359
0.0807403
0.0797577
0.0790279
0.0782433
0.0775455
0.0768139
0.0761958
0.0754238
0.0750129
0.0744108
0.0737911
0.0731382
0.0724058
0.0718322
0.0713114
0.0707231
0.0702194
0.069725
0.0692575
0.06876
0.0681507
0.067533
0.066915
0.0665163
0.0660737
0.0657068
0.0652838
0.0648596
0.0644841
0.0640301
0.0636927
0.0631763
0.0627334
0.0622942
0.061739
0.0613605
0.0609541
0.0605436
0.0602049
0.0598611
0.0595137
0.0591355
0.0587352
0.0583294
0.057999
0.057654
0.0573348
0.0569759
0.0566407
0.0562943
0.0560303
0.0556976
0.0553713
0.0550673
0.0547533
0.0544543
0.0541579
0.0538526
0.0535756
0.0532676
0.0530196
0.0526935
0.0524264
0.0521464
0.0518474
)
;

boundaryField
{
    inlet
    {
        type            fixedValue;
        value           uniform 0.2;
    }
    outlet
    {
        type            zeroGradient;
    }
    yzfaces
    {
        type            empty;
    }
}


// ************************************************************************* //
