/*--------------------------------*- C++ -*----------------------------------*\
| =========                 |                                                 |
| \\      /  F ield         | foam-extend: Open Source CFD                    |
|  \\    /   O peration     | Version:     5.0                                |
|   \\  /    A nd           | Web:         http://www.foam-extend.org         |
|    \\/     M anipulation  |                                                 |
\*---------------------------------------------------------------------------*/
FoamFile
{
    version     2.0;
    format      ascii;
    class       volScalarField;
    location    "9";
    object      alpha.gas;
}
// * * * * * * * * * * * * * * * * * * * * * * * * * * * * * * * * * * * * * //

dimensions      [0 0 0 0 0 0 0];

internalField   nonuniform List<scalar> 
100
(
0.168061
0.155556
0.147822
0.140414
0.135514
0.134964
0.133299
0.128857
0.125359
0.119839
0.116315
0.113303
0.111379
0.108969
0.106045
0.104321
0.102119
0.100039
0.0981103
0.0968592
0.0953745
0.0932905
0.0918505
0.0908707
0.0893535
0.087942
0.0873185
0.0870565
0.0868937
0.0865717
0.0859702
0.0845693
0.0837078
0.0830317
0.0819121
0.0806646
0.079815
0.0789238
0.0779757
0.077059
0.0764275
0.0758589
0.0753716
0.0748734
0.0742478
0.0736006
0.0728888
0.0722181
0.0716729
0.0710865
0.0706304
0.0702021
0.069877
0.0693764
0.0687374
0.0681907
0.0675546
0.067075
0.0666212
0.0660972
0.0656944
0.0652571
0.0648399
0.0643961
0.0639184
0.0633568
0.0629109
0.0624868
0.0621232
0.061719
0.0613759
0.0609607
0.0604937
0.0600838
0.0596559
0.0592692
0.0588266
0.0585257
0.0581773
0.0578653
0.0575464
0.057169
0.0568573
0.0565657
0.0562145
0.0558699
0.055561
0.0552428
0.0549944
0.0547211
0.0544296
0.0540817
0.0538123
0.0534537
0.0532197
0.0529607
0.0526799
0.0523769
0.0520588
0.0517184
)
;

boundaryField
{
    inlet
    {
        type            fixedValue;
        value           uniform 0.2;
    }
    outlet
    {
        type            zeroGradient;
    }
    yzfaces
    {
        type            empty;
    }
}


// ************************************************************************* //
