/*--------------------------------*- C++ -*----------------------------------*\
| =========                 |                                                 |
| \\      /  F ield         | foam-extend: Open Source CFD                    |
|  \\    /   O peration     | Version:     5.0                                |
|   \\  /    A nd           | Web:         http://www.foam-extend.org         |
|    \\/     M anipulation  |                                                 |
\*---------------------------------------------------------------------------*/
FoamFile
{
    version     2.0;
    format      ascii;
    class       volScalarField;
    location    "9";
    object      alpha.gas;
}
// * * * * * * * * * * * * * * * * * * * * * * * * * * * * * * * * * * * * * //

dimensions      [0 0 0 0 0 0 0];

internalField   nonuniform List<scalar> 
100
(
0.16783
0.155144
0.147105
0.139397
0.135334
0.134569
0.133128
0.130203
0.126252
0.121076
0.116804
0.114036
0.111831
0.109369
0.106618
0.104485
0.101974
0.0999824
0.0978877
0.0965581
0.0950242
0.0933957
0.0917911
0.0902217
0.0886259
0.0874
0.0868889
0.0866318
0.0863341
0.0860475
0.0855505
0.0847249
0.0838326
0.0832999
0.0824984
0.0812333
0.0801656
0.0792006
0.078257
0.0774259
0.0766467
0.0759557
0.0753972
0.0747313
0.0741784
0.0735708
0.072816
0.0721211
0.0715185
0.0709383
0.0704262
0.0700522
0.0697734
0.0692357
0.0687126
0.0682239
0.0678088
0.0673239
0.0667772
0.0662069
0.065803
0.0653951
0.0650916
0.0645812
0.0640663
0.0635949
0.0631367
0.0626076
0.0621868
0.0617435
0.0613652
0.0609412
0.0605853
0.0601711
0.0597647
0.0593111
0.0589141
0.0586094
0.0582274
0.0578464
0.0574708
0.0570473
0.0566784
0.0563722
0.0560445
0.0557716
0.0554194
0.0550821
0.0547866
0.0545246
0.0542363
0.0539263
0.0536375
0.0533118
0.0530633
0.0527569
0.0524883
0.0522491
0.0519401
0.0516606
)
;

boundaryField
{
    inlet
    {
        type            fixedValue;
        value           uniform 0.2;
    }
    outlet
    {
        type            zeroGradient;
    }
    yzfaces
    {
        type            empty;
    }
}


// ************************************************************************* //
