/*--------------------------------*- C++ -*----------------------------------*\
| =========                 |                                                 |
| \\      /  F ield         | foam-extend: Open Source CFD                    |
|  \\    /   O peration     | Version:     5.0                                |
|   \\  /    A nd           | Web:         http://www.foam-extend.org         |
|    \\/     M anipulation  |                                                 |
\*---------------------------------------------------------------------------*/
FoamFile
{
    version     2.0;
    format      ascii;
    class       volScalarField;
    location    "9";
    object      Cl.water;
}
// * * * * * * * * * * * * * * * * * * * * * * * * * * * * * * * * * * * * * //

dimensions      [0 0 0 0 0 0 0];

internalField   nonuniform List<scalar> 
100
(
0.00369248
0.00515821
0.00607821
0.0069572
0.00741844
0.0075098
0.00767839
0.00801874
0.00847831
0.00906499
0.00955666
0.00986834
0.0101262
0.0104057
0.0107222
0.0109657
0.0112558
0.0114874
0.0117203
0.0118775
0.0120553
0.0122451
0.0124273
0.0126069
0.0127877
0.012926
0.0129904
0.0130277
0.0130585
0.0130872
0.0131435
0.0132355
0.0133387
0.0134021
0.0134932
0.0136346
0.0137553
0.0138651
0.0139736
0.0140696
0.0141606
0.0142394
0.0143077
0.014382
0.0144501
0.0145204
0.0146075
0.014689
0.0147598
0.0148196
0.0148737
0.0149223
0.0149632
0.015021
0.0150803
0.015135
0.0151851
0.015244
0.0153082
0.0153743
0.0154191
0.0154637
0.015503
0.0155596
0.0156166
0.0156735
0.0157254
0.0157863
0.0158372
0.0158861
0.0159249
0.0159692
0.0160126
0.0160576
0.0161026
0.0161533
0.016199
0.0162336
0.0162794
0.0163229
0.0163656
0.0164143
0.0164606
0.0164934
0.0165265
0.0165605
0.0166003
0.0166336
0.016665
0.0167037
0.0167394
0.0167742
0.0168067
0.01684
0.0168726
0.016908
0.0169409
0.0169696
0.0169992
0.0170362
)
;

boundaryField
{
    inlet
    {
        type            fixedValue;
        value           uniform 0;
    }
    outlet
    {
        type            zeroGradient;
    }
    yzfaces
    {
        type            empty;
    }
}


// ************************************************************************* //
