/*--------------------------------*- C++ -*----------------------------------*\
| =========                 |                                                 |
| \\      /  F ield         | foam-extend: Open Source CFD                    |
|  \\    /   O peration     | Version:     5.0                                |
|   \\  /    A nd           | Web:         http://www.foam-extend.org         |
|    \\/     M anipulation  |                                                 |
\*---------------------------------------------------------------------------*/
FoamFile
{
    version     2.0;
    format      ascii;
    class       volScalarField;
    location    "9";
    object      Cl.water;
}
// * * * * * * * * * * * * * * * * * * * * * * * * * * * * * * * * * * * * * //

dimensions      [0 0 0 0 0 0 0];

internalField   nonuniform List<scalar> 
100
(
0.0036855
0.00513735
0.00610383
0.00698626
0.00744304
0.00752549
0.00761334
0.00807476
0.00858837
0.00911685
0.00955323
0.00987493
0.010189
0.0104942
0.010814
0.0110691
0.0113149
0.0115636
0.0117647
0.0119142
0.01208
0.0122502
0.0123917
0.0125299
0.0126902
0.0128291
0.0129267
0.0130021
0.0130378
0.0130724
0.0131308
0.0132228
0.0133423
0.0134597
0.0135832
0.0136992
0.0138084
0.0138928
0.0139855
0.0140683
0.0141523
0.0142244
0.0143116
0.014361
0.0144277
0.0144996
0.0145769
0.0146537
0.0147151
0.0147781
0.0148396
0.0148995
0.0149571
0.015013
0.0150691
0.015146
0.0152143
0.0152819
0.0153305
0.0153834
0.0154258
0.0154716
0.0155203
0.015564
0.0156118
0.0156545
0.0157141
0.0157656
0.0158187
0.0158767
0.0159249
0.0159705
0.0160204
0.0160569
0.0160948
0.0161306
0.016178
0.0162232
0.0162647
0.0163044
0.0163389
0.0163716
0.0164163
0.0164587
0.0164972
0.0165316
0.0165653
0.0166008
0.0166431
0.0166754
0.016715
0.0167433
0.0167809
0.0168146
0.0168483
0.0168772
0.0169147
0.0169495
0.0169843
0.0170146
)
;

boundaryField
{
    inlet
    {
        type            fixedValue;
        value           uniform 0;
    }
    outlet
    {
        type            zeroGradient;
    }
    yzfaces
    {
        type            empty;
    }
}


// ************************************************************************* //
