/*--------------------------------*- C++ -*----------------------------------*\
| =========                 |                                                 |
| \\      /  F ield         | foam-extend: Open Source CFD                    |
|  \\    /   O peration     | Version:     5.0                                |
|   \\  /    A nd           | Web:         http://www.foam-extend.org         |
|    \\/     M anipulation  |                                                 |
\*---------------------------------------------------------------------------*/
FoamFile
{
    version     2.0;
    format      ascii;
    class       volScalarField;
    location    "9";
    object      Cl.water;
}
// * * * * * * * * * * * * * * * * * * * * * * * * * * * * * * * * * * * * * //

dimensions      [0 0 0 0 0 0 0];

internalField   nonuniform List<scalar> 
100
(
0.00367075
0.00509836
0.00599182
0.00684964
0.00740208
0.0074749
0.00766853
0.00816986
0.00858228
0.00920115
0.00961128
0.00995046
0.0101778
0.0104546
0.0107891
0.0109849
0.0112394
0.0114798
0.0116956
0.0118369
0.0120124
0.0122499
0.0124157
0.0125337
0.0127032
0.0128648
0.0129408
0.0129708
0.0129887
0.0130267
0.0130994
0.0132574
0.0133518
0.0134358
0.0135584
0.0136974
0.0138043
0.013902
0.0140093
0.0141181
0.0141947
0.0142606
0.0143171
0.0143759
0.0144463
0.0145183
0.0145995
0.0146776
0.0147381
0.0148053
0.0148566
0.0149042
0.0149413
0.0149998
0.0150715
0.0151351
0.0152079
0.0152671
0.0153199
0.0153805
0.0154296
0.0154751
0.0155242
0.0155739
0.0156271
0.0156889
0.0157392
0.0157844
0.0158296
0.0158741
0.0159141
0.0159598
0.0160098
0.0160567
0.0161045
0.0161497
0.0162008
0.0162402
0.0162841
0.0163216
0.0163547
0.0163946
0.0164321
0.0164667
0.0165109
0.016551
0.016589
0.0166207
0.0166539
0.0166818
0.0167187
0.0167554
0.0167907
0.0168251
0.0168516
0.0168815
0.0169179
0.0169487
0.0169916
0.0170251
)
;

boundaryField
{
    inlet
    {
        type            fixedValue;
        value           uniform 0;
    }
    outlet
    {
        type            zeroGradient;
    }
    yzfaces
    {
        type            empty;
    }
}


// ************************************************************************* //
