/*--------------------------------*- C++ -*----------------------------------*\
| =========                 |                                                 |
| \\      /  F ield         | foam-extend: Open Source CFD                    |
|  \\    /   O peration     | Version:     5.0                                |
|   \\  /    A nd           | Web:         http://www.foam-extend.org         |
|    \\/     M anipulation  |                                                 |
\*---------------------------------------------------------------------------*/
FoamFile
{
    version     2.0;
    format      ascii;
    class       volScalarField;
    location    "9";
    object      CO2.gas;
}
// * * * * * * * * * * * * * * * * * * * * * * * * * * * * * * * * * * * * * //

dimensions      [0 0 0 0 0 0 0];

internalField   nonuniform List<scalar> 
100
(
0.167503
0.154842
0.146818
0.139125
0.135071
0.134307
0.132869
0.129949
0.126006
0.120841
0.116576
0.113814
0.111613
0.109156
0.106411
0.104282
0.101775
0.0997877
0.0976971
0.09637
0.0948392
0.0932138
0.0916124
0.090046
0.0884533
0.0872298
0.0867197
0.0864631
0.0861659
0.0858799
0.0853839
0.0845599
0.0836693
0.0831377
0.0823377
0.0810751
0.0800095
0.0790464
0.0781045
0.0772751
0.0764974
0.0758077
0.0752504
0.0745858
0.0740339
0.0734276
0.0726742
0.0719807
0.0713792
0.0708001
0.0702891
0.0699157
0.0696375
0.0691009
0.0685788
0.068091
0.0676768
0.0671928
0.0666471
0.0660779
0.0656749
0.0652678
0.0649648
0.0644554
0.0639415
0.063471
0.0630138
0.0624857
0.0620657
0.0616232
0.0612456
0.0608226
0.0604673
0.0600539
0.0596483
0.0591956
0.0587994
0.0584952
0.058114
0.0577337
0.0573588
0.0569362
0.056568
0.0562624
0.0559353
0.055663
0.0553115
0.0549748
0.0546799
0.0544185
0.0541307
0.0538213
0.053533
0.053208
0.0529599
0.0526541
0.0523861
0.0521473
0.051839
0.05156
)
;

boundaryField
{
    inlet
    {
        type            fixedValue;
        value           uniform 0.2;
    }
    outlet
    {
        type            zeroGradient;
    }
    yzfaces
    {
        type            empty;
    }
}


// ************************************************************************* //
