/*--------------------------------*- C++ -*----------------------------------*\
| =========                 |                                                 |
| \\      /  F ield         | foam-extend: Open Source CFD                    |
|  \\    /   O peration     | Version:     5.0                                |
|   \\  /    A nd           | Web:         http://www.foam-extend.org         |
|    \\/     M anipulation  |                                                 |
\*---------------------------------------------------------------------------*/
FoamFile
{
    version     2.0;
    format      ascii;
    class       volScalarField;
    location    "9";
    object      CO2.water;
}
// * * * * * * * * * * * * * * * * * * * * * * * * * * * * * * * * * * * * * //

dimensions      [0 0 0 0 0 0 0];

internalField   nonuniform List<scalar> 
100
(
0.000844921
0.00117812
0.00138927
0.00159171
0.00169841
0.0017185
0.00175635
0.00183319
0.00193696
0.00207289
0.00218511
0.0022578
0.00231571
0.00238037
0.00245263
0.00250866
0.00257461
0.00262692
0.00268193
0.00271685
0.00275714
0.00279991
0.00284206
0.00288328
0.00292519
0.00295739
0.00297081
0.00297756
0.00298538
0.00299291
0.00300596
0.00302765
0.00305108
0.00306507
0.00308613
0.00311935
0.00314739
0.00317274
0.00319753
0.00321935
0.00323982
0.00325797
0.00327264
0.00329012
0.00330465
0.0033206
0.00334043
0.00335868
0.00337451
0.00338975
0.0034032
0.00341302
0.00342034
0.00343446
0.0034482
0.00346104
0.00347194
0.00348468
0.00349904
0.00351402
0.00352462
0.00353534
0.00354331
0.00355671
0.00357024
0.00358262
0.00359465
0.00360855
0.0036196
0.00363124
0.00364118
0.00365231
0.00366166
0.00367254
0.00368322
0.00369513
0.00370556
0.00371356
0.00372359
0.0037336
0.00374346
0.00375459
0.00376428
0.00377232
0.00378093
0.00378809
0.00379734
0.0038062
0.00381396
0.00382084
0.00382842
0.00383656
0.00384414
0.0038527
0.00385923
0.00386727
0.00387433
0.00388061
0.00388872
0.00389607
)
;

boundaryField
{
    inlet
    {
        type            fixedValue;
        value           uniform 0;
    }
    outlet
    {
        type            zeroGradient;
    }
    yzfaces
    {
        type            empty;
    }
}


// ************************************************************************* //
