/*--------------------------------*- C++ -*----------------------------------*\
| =========                 |                                                 |
| \\      /  F ield         | foam-extend: Open Source CFD                    |
|  \\    /   O peration     | Version:     5.0                                |
|   \\  /    A nd           | Web:         http://www.foam-extend.org         |
|    \\/     M anipulation  |                                                 |
\*---------------------------------------------------------------------------*/
FoamFile
{
    version     2.0;
    format      ascii;
    class       volScalarField;
    location    "9";
    object      CO2.gas;
}
// * * * * * * * * * * * * * * * * * * * * * * * * * * * * * * * * * * * * * //

dimensions      [0 0 0 0 0 0 0];

internalField   nonuniform List<scalar> 
100
(
0.167734
0.155253
0.147535
0.140141
0.13525
0.134701
0.133039
0.128606
0.125115
0.119606
0.116088
0.113083
0.111162
0.108756
0.105839
0.104118
0.10192
0.099844
0.0979193
0.0966706
0.0951888
0.0931089
0.0916716
0.0906937
0.0891795
0.0877707
0.0871484
0.086887
0.0867245
0.0864031
0.0858028
0.0844046
0.0835447
0.08287
0.0817526
0.0805075
0.0796596
0.0787701
0.0778238
0.0769089
0.0762786
0.0757112
0.0752248
0.0747276
0.0741032
0.0734573
0.0727468
0.0720775
0.0715333
0.0709481
0.0704928
0.0700654
0.069741
0.0692413
0.0686036
0.068058
0.067423
0.0669444
0.0664915
0.0659685
0.0655665
0.0651301
0.0647136
0.0642707
0.0637939
0.0632334
0.0627884
0.0623651
0.0620022
0.0615988
0.0612563
0.060842
0.0603759
0.0599668
0.0595397
0.0591538
0.058712
0.0584118
0.058064
0.0577526
0.0574344
0.0570576
0.0567466
0.0564556
0.056105
0.0557611
0.0554528
0.0551352
0.0548873
0.0546146
0.0543236
0.0539764
0.0537075
0.0533496
0.0531161
0.0528576
0.0525773
0.0522749
0.0519574
0.0516176
)
;

boundaryField
{
    inlet
    {
        type            fixedValue;
        value           uniform 0.2;
    }
    outlet
    {
        type            zeroGradient;
    }
    yzfaces
    {
        type            empty;
    }
}


// ************************************************************************* //
