/*--------------------------------*- C++ -*----------------------------------*\
| =========                 |                                                 |
| \\      /  F ield         | foam-extend: Open Source CFD                    |
|  \\    /   O peration     | Version:     5.0                                |
|   \\  /    A nd           | Web:         http://www.foam-extend.org         |
|    \\/     M anipulation  |                                                 |
\*---------------------------------------------------------------------------*/
FoamFile
{
    version     2.0;
    format      ascii;
    class       volScalarField;
    location    "9";
    object      CO2.gas;
}
// * * * * * * * * * * * * * * * * * * * * * * * * * * * * * * * * * * * * * //

dimensions      [0 0 0 0 0 0 0];

internalField   nonuniform List<scalar> 
100
(
0.167536
0.154942
0.146527
0.138806
0.134783
0.134181
0.133545
0.129487
0.124993
0.120466
0.116569
0.113807
0.111091
0.108411
0.105626
0.103418
0.101306
0.0991182
0.0973069
0.0959897
0.0945893
0.0931295
0.0918797
0.0906693
0.0892758
0.0880819
0.087231
0.0865051
0.0862514
0.0859746
0.0855352
0.0847074
0.0836382
0.0826101
0.0815767
0.0805831
0.0796024
0.078874
0.0780909
0.0773945
0.0766643
0.0760474
0.0752769
0.0748668
0.0742659
0.0736473
0.0729958
0.0722647
0.0716923
0.0711725
0.0705854
0.0700826
0.0695892
0.0691226
0.0686261
0.068018
0.0674014
0.0667847
0.0663868
0.065945
0.0655788
0.0651567
0.0647332
0.0643585
0.0639054
0.0635687
0.0630533
0.0626112
0.0621729
0.0616188
0.061241
0.0608354
0.0604257
0.0600877
0.0597446
0.0593978
0.0590203
0.0586208
0.0582158
0.0578861
0.0575417
0.0572231
0.056865
0.0565304
0.0561846
0.0559212
0.0555891
0.0552634
0.05496
0.0546466
0.0543482
0.0540524
0.0537477
0.0534713
0.0531639
0.0529164
0.0525909
0.0523243
0.0520448
0.0517464
)
;

boundaryField
{
    inlet
    {
        type            fixedValue;
        value           uniform 0.2;
    }
    outlet
    {
        type            zeroGradient;
    }
    yzfaces
    {
        type            empty;
    }
}


// ************************************************************************* //
