/*--------------------------------*- C++ -*----------------------------------*\
| =========                 |                                                 |
| \\      /  F ield         | foam-extend: Open Source CFD                    |
|  \\    /   O peration     | Version:     5.0                                |
|   \\  /    A nd           | Web:         http://www.foam-extend.org         |
|    \\/     M anipulation  |                                                 |
\*---------------------------------------------------------------------------*/
FoamFile
{
    version     2.0;
    format      ascii;
    class       volScalarField;
    location    "9";
    object      CO2.water;
}
// * * * * * * * * * * * * * * * * * * * * * * * * * * * * * * * * * * * * * //

dimensions      [0 0 0 0 0 0 0];

internalField   nonuniform List<scalar> 
100
(
0.000838852
0.0011673
0.00137042
0.00156499
0.00169369
0.00170815
0.00175188
0.00186855
0.00196041
0.00210538
0.00219796
0.00227705
0.00232759
0.0023909
0.00246767
0.00251297
0.00257079
0.00262543
0.00267609
0.00270895
0.00274794
0.00280267
0.0028405
0.00286623
0.00290608
0.00294315
0.00295953
0.00296641
0.00297069
0.00297914
0.00299494
0.00303174
0.00305436
0.00307212
0.00310152
0.00313429
0.0031566
0.00318001
0.00320491
0.00322899
0.00324558
0.00326051
0.00327331
0.00328639
0.00330282
0.00331982
0.00333852
0.00335613
0.00337045
0.00338585
0.00339783
0.00340908
0.00341762
0.00343077
0.00344755
0.00346191
0.00347862
0.00349121
0.00350313
0.0035169
0.00352748
0.00353896
0.00354992
0.00356157
0.00357412
0.00358887
0.00360058
0.00361172
0.00362127
0.00363189
0.0036409
0.0036518
0.00366407
0.00367483
0.00368607
0.00369623
0.00370785
0.00371576
0.00372491
0.0037331
0.00374148
0.00375139
0.00375958
0.00376724
0.00377646
0.00378551
0.00379363
0.00380198
0.00380851
0.00381568
0.00382334
0.00383248
0.00383955
0.00384897
0.00385512
0.00386192
0.0038693
0.00387725
0.00388561
0.00389455
)
;

boundaryField
{
    inlet
    {
        type            fixedValue;
        value           uniform 0;
    }
    outlet
    {
        type            zeroGradient;
    }
    yzfaces
    {
        type            empty;
    }
}


// ************************************************************************* //
