/*--------------------------------*- C++ -*----------------------------------*\
| =========                 |                                                 |
| \\      /  F ield         | foam-extend: Open Source CFD                    |
|  \\    /   O peration     | Version:     5.0                                |
|   \\  /    A nd           | Web:         http://www.foam-extend.org         |
|    \\/     M anipulation  |                                                 |
\*---------------------------------------------------------------------------*/
FoamFile
{
    version     2.0;
    format      ascii;
    class       volScalarField;
    location    "9";
    object      CO2.water;
}
// * * * * * * * * * * * * * * * * * * * * * * * * * * * * * * * * * * * * * //

dimensions      [0 0 0 0 0 0 0];

internalField   nonuniform List<scalar> 
100
(
0.000844058
0.00117549
0.00139694
0.00160011
0.00170597
0.00172183
0.00173855
0.00184535
0.00196363
0.00208276
0.00218532
0.00225799
0.00232946
0.00239998
0.00247328
0.00253138
0.00258696
0.00264453
0.0026922
0.00272686
0.00276371
0.00280213
0.00283502
0.00286687
0.00290355
0.00293496
0.00295736
0.00297646
0.00298313
0.00299042
0.00300198
0.00302377
0.0030519
0.00307896
0.00310615
0.0031323
0.00315811
0.00317728
0.00319788
0.00321621
0.00323543
0.00325166
0.00327194
0.00328273
0.00329854
0.00331482
0.00333197
0.0033512
0.00336627
0.00337995
0.0033954
0.00340863
0.00342161
0.00343389
0.00344696
0.00346296
0.00347919
0.00349542
0.00350589
0.00351751
0.00352715
0.00353826
0.0035494
0.00355926
0.00357119
0.00358005
0.00359361
0.00360525
0.00361678
0.00363136
0.0036413
0.00365198
0.00366276
0.00367165
0.00368068
0.00368981
0.00369974
0.00371025
0.00372091
0.00372959
0.00373865
0.00374704
0.00375646
0.00376526
0.00377437
0.0037813
0.00379004
0.00379861
0.00380659
0.00381484
0.00382269
0.00383048
0.00383849
0.00384577
0.00385386
0.00386037
0.00386894
0.00387595
0.00388331
0.00389116
)
;

boundaryField
{
    inlet
    {
        type            fixedValue;
        value           uniform 0;
    }
    outlet
    {
        type            zeroGradient;
    }
    yzfaces
    {
        type            empty;
    }
}


// ************************************************************************* //
