/*--------------------------------*- C++ -*----------------------------------*\
| =========                 |                                                 |
| \\      /  F ield         | foam-extend: Open Source CFD                    |
|  \\    /   O peration     | Version:     5.0                                |
|   \\  /    A nd           | Web:         http://www.foam-extend.org         |
|    \\/     M anipulation  |                                                 |
\*---------------------------------------------------------------------------*/
FoamFile
{
    version     2.0;
    format      ascii;
    class       volScalarField;
    location    "9";
    object      H2O.water;
}
// * * * * * * * * * * * * * * * * * * * * * * * * * * * * * * * * * * * * * //

dimensions      [0 0 0 0 0 0 0];

internalField   nonuniform List<scalar> 
100
(
0.023759
0.0330826
0.0388317
0.044328
0.0479894
0.0483807
0.0496154
0.0529353
0.0555168
0.0596424
0.062256
0.0645089
0.0659317
0.0677312
0.0699132
0.0711935
0.0728305
0.0743744
0.075817
0.0767496
0.0778459
0.0794014
0.0804766
0.0811936
0.0823318
0.0833888
0.0838514
0.0840472
0.0841622
0.0843948
0.0848375
0.0858894
0.0865333
0.087024
0.087863
0.0887976
0.0894166
0.0900855
0.0907982
0.0914836
0.0919539
0.0923704
0.0927329
0.0930994
0.0935665
0.0940482
0.0945785
0.0950806
0.0954834
0.0959247
0.0962617
0.0965829
0.0968155
0.0971944
0.0976713
0.0980768
0.098552
0.098906
0.0992419
0.0996384
0.0999302
0.100261
0.100568
0.1009
0.101258
0.101676
0.102006
0.102323
0.102588
0.102893
0.103143
0.103454
0.103802
0.104109
0.10443
0.104717
0.105051
0.105266
0.105525
0.10576
0.105998
0.106281
0.106509
0.106727
0.106987
0.107246
0.107472
0.107711
0.107893
0.1081
0.108314
0.10858
0.108772
0.109048
0.109212
0.109406
0.109614
0.109842
0.110079
0.110334
)
;

boundaryField
{
    inlet
    {
        type            fixedValue;
        value           uniform 0;
    }
    outlet
    {
        type            zeroGradient;
    }
    yzfaces
    {
        type            empty;
    }
}


// ************************************************************************* //
