/*--------------------------------*- C++ -*----------------------------------*\
| =========                 |                                                 |
| \\      /  F ield         | foam-extend: Open Source CFD                    |
|  \\    /   O peration     | Version:     5.0                                |
|   \\  /    A nd           | Web:         http://www.foam-extend.org         |
|    \\/     M anipulation  |                                                 |
\*---------------------------------------------------------------------------*/
FoamFile
{
    version     2.0;
    format      ascii;
    class       volScalarField;
    location    "9";
    object      H2O.water;
}
// * * * * * * * * * * * * * * * * * * * * * * * * * * * * * * * * * * * * * //

dimensions      [0 0 0 0 0 0 0];

internalField   nonuniform List<scalar> 
100
(
0.0239228
0.0333058
0.0395777
0.0453436
0.0483525
0.0487853
0.049231
0.0522652
0.05562
0.0589854
0.0619109
0.0639673
0.0659924
0.067996
0.0700766
0.0717168
0.073283
0.0749171
0.0762779
0.0772621
0.0782972
0.0793849
0.0803209
0.0812294
0.0822583
0.0831468
0.0837816
0.0843381
0.0845143
0.084718
0.0850355
0.0856575
0.086459
0.0872339
0.0879977
0.0887334
0.089473
0.0900157
0.0905953
0.0911155
0.0916626
0.0921214
0.0927006
0.092996
0.0934463
0.0939043
0.0943911
0.0949457
0.0953699
0.0957566
0.0961975
0.0965692
0.0969365
0.097284
0.097655
0.098103
0.0985667
0.0990312
0.0993241
0.0996502
0.0999231
0.10024
0.100556
0.100833
0.101174
0.101419
0.101805
0.102137
0.102461
0.102883
0.103156
0.103462
0.103767
0.104017
0.104268
0.10453
0.104811
0.105112
0.105419
0.10566
0.105922
0.106157
0.106423
0.106665
0.106928
0.107116
0.107372
0.107618
0.107839
0.108074
0.108293
0.108516
0.108746
0.108947
0.109179
0.10936
0.109607
0.109806
0.110009
0.110236
)
;

boundaryField
{
    inlet
    {
        type            fixedValue;
        value           uniform 0;
    }
    outlet
    {
        type            zeroGradient;
    }
    yzfaces
    {
        type            empty;
    }
}


// ************************************************************************* //
