/*--------------------------------*- C++ -*----------------------------------*\
| =========                 |                                                 |
| \\      /  F ield         | foam-extend: Open Source CFD                    |
|  \\    /   O peration     | Version:     5.0                                |
|   \\  /    A nd           | Web:         http://www.foam-extend.org         |
|    \\/     M anipulation  |                                                 |
\*---------------------------------------------------------------------------*/
FoamFile
{
    version     2.0;
    format      ascii;
    class       volScalarField;
    location    "9";
    object      H2O.water;
}
// * * * * * * * * * * * * * * * * * * * * * * * * * * * * * * * * * * * * * //

dimensions      [0 0 0 0 0 0 0];

internalField   nonuniform List<scalar> 
100
(
0.0239389
0.033363
0.0393466
0.045092
0.0481264
0.0486882
0.0497539
0.0519194
0.0548527
0.058719
0.0618952
0.0639664
0.0655982
0.0674301
0.0694798
0.0710679
0.0729333
0.074413
0.075989
0.0769729
0.0781076
0.0793184
0.0805256
0.0816859
0.0828726
0.083794
0.0841676
0.0843458
0.0845693
0.0847835
0.085157
0.0857774
0.0864351
0.0868335
0.0874239
0.0883723
0.0891671
0.0898826
0.0905835
0.0912061
0.091785
0.0922996
0.0927097
0.0932082
0.0936193
0.0940716
0.0946368
0.0951561
0.0955983
0.0960371
0.0964175
0.0966954
0.0968949
0.0972976
0.0976885
0.0980534
0.0983577
0.0987204
0.0991285
0.0995566
0.0998534
0.100161
0.10038
0.100763
0.101147
0.101495
0.101835
0.102234
0.102541
0.102873
0.103153
0.103473
0.10373
0.104041
0.104346
0.104685
0.104982
0.105207
0.105493
0.105776
0.106054
0.106367
0.106645
0.10687
0.107117
0.107315
0.107577
0.107833
0.108054
0.108241
0.108455
0.108689
0.108902
0.109148
0.109327
0.10956
0.10976
0.109937
0.110169
0.110374
)
;

boundaryField
{
    inlet
    {
        type            fixedValue;
        value           uniform 0;
    }
    outlet
    {
        type            zeroGradient;
    }
    yzfaces
    {
        type            empty;
    }
}


// ************************************************************************* //
