/*--------------------------------*- C++ -*----------------------------------*\
| =========                 |                                                 |
| \\      /  F ield         | foam-extend: Open Source CFD                    |
|  \\    /   O peration     | Version:     5.0                                |
|   \\  /    A nd           | Web:         http://www.foam-extend.org         |
|    \\/     M anipulation  |                                                 |
\*---------------------------------------------------------------------------*/
FoamFile
{
    version     2.0;
    format      ascii;
    class       volScalarField;
    location    "9";
    object      H2O.gas;
}
// * * * * * * * * * * * * * * * * * * * * * * * * * * * * * * * * * * * * * //

dimensions      [0 0 0 0 0 0 0];

internalField   nonuniform List<scalar> 
100
(
0.000326909
0.000302334
0.000285914
0.000270849
0.000262999
0.000261823
0.000260583
0.000252665
0.000243895
0.000235061
0.000227457
0.000222068
0.000216769
0.000211539
0.000206105
0.000201797
0.000197675
0.000193407
0.000189872
0.000187302
0.000184569
0.000181721
0.000179282
0.00017692
0.000174201
0.000171872
0.000170211
0.000168795
0.0001683
0.00016776
0.000166902
0.000165287
0.000163201
0.000161195
0.000159178
0.000157239
0.000155326
0.000153905
0.000152377
0.000151018
0.000149593
0.000148389
0.000146886
0.000146085
0.000144913
0.000143706
0.000142435
0.000141008
0.000139891
0.000138877
0.000137731
0.00013675
0.000135787
0.000134877
0.000133908
0.000132722
0.000131518
0.000130315
0.000129539
0.000128677
0.000127962
0.000127138
0.000126312
0.000125581
0.000124697
0.00012404
0.000123034
0.000122171
0.000121316
0.000120235
0.000119498
0.000118706
0.000117907
0.000117247
0.000116578
0.000115901
0.000115165
0.000114385
0.000113595
0.000112951
0.00011228
0.000111658
0.000110959
0.000110306
0.000109631
0.000109117
0.000108469
0.000107834
0.000107242
0.00010663
0.000106048
0.000105471
0.000104876
0.000104337
0.000103737
0.000103254
0.000102619
0.000102099
0.000101554
0.000100971
)
;

boundaryField
{
    inlet
    {
        type            fixedValue;
        value           uniform 0;
    }
    outlet
    {
        type            zeroGradient;
    }
    yzfaces
    {
        type            empty;
    }
}


// ************************************************************************* //
