/*--------------------------------*- C++ -*----------------------------------*\
| =========                 |                                                 |
| \\      /  F ield         | foam-extend: Open Source CFD                    |
|  \\    /   O peration     | Version:     5.0                                |
|   \\  /    A nd           | Web:         http://www.foam-extend.org         |
|    \\/     M anipulation  |                                                 |
\*---------------------------------------------------------------------------*/
FoamFile
{
    version     2.0;
    format      ascii;
    class       volScalarField;
    location    "9";
    object      H2O.gas;
}
// * * * * * * * * * * * * * * * * * * * * * * * * * * * * * * * * * * * * * //

dimensions      [0 0 0 0 0 0 0];

internalField   nonuniform List<scalar> 
100
(
0.000326845
0.000302138
0.000286482
0.000271471
0.00026356
0.00026207
0.000259264
0.000253566
0.000245872
0.000235793
0.000227472
0.000222082
0.000217788
0.000212994
0.000207636
0.000203482
0.000198591
0.000194713
0.000190633
0.000188044
0.000185057
0.000181885
0.000178761
0.000175704
0.000172596
0.000170209
0.000169214
0.000168713
0.000168133
0.000167575
0.000166607
0.000164999
0.000163261
0.000162224
0.000160663
0.0001582
0.00015612
0.000154241
0.000152403
0.000150785
0.000149267
0.000147921
0.000146834
0.000145537
0.00014446
0.000143277
0.000141807
0.000140454
0.00013928
0.00013815
0.000137153
0.000136425
0.000135882
0.000134835
0.000133816
0.000132864
0.000132056
0.000131111
0.000130047
0.000128936
0.000128149
0.000127355
0.000126764
0.00012577
0.000124767
0.000123849
0.000122957
0.000121927
0.000121107
0.000120244
0.000119507
0.000118681
0.000117988
0.000117181
0.00011639
0.000115507
0.000114733
0.00011414
0.000113396
0.000112654
0.000111923
0.000111098
0.00011038
0.000109783
0.000109145
0.000108614
0.000107928
0.000107271
0.000106695
0.000106185
0.000105624
0.00010502
0.000104457
0.000103823
0.000103339
0.000102743
0.00010222
0.000101754
0.000101152
0.000100607
)
;

boundaryField
{
    inlet
    {
        type            fixedValue;
        value           uniform 0;
    }
    outlet
    {
        type            zeroGradient;
    }
    yzfaces
    {
        type            empty;
    }
}


// ************************************************************************* //
