/*--------------------------------*- C++ -*----------------------------------*\
| =========                 |                                                 |
| \\      /  F ield         | foam-extend: Open Source CFD                    |
|  \\    /   O peration     | Version:     5.0                                |
|   \\  /    A nd           | Web:         http://www.foam-extend.org         |
|    \\/     M anipulation  |                                                 |
\*---------------------------------------------------------------------------*/
FoamFile
{
    version     2.0;
    format      ascii;
    class       volScalarField;
    location    "9";
    object      H2O.gas;
}
// * * * * * * * * * * * * * * * * * * * * * * * * * * * * * * * * * * * * * //

dimensions      [0 0 0 0 0 0 0];

internalField   nonuniform List<scalar> 
100
(
0.000327295
0.000302941
0.00028788
0.000273453
0.00026391
0.000262838
0.000259595
0.000250944
0.000244133
0.000233384
0.000226519
0.000220655
0.000216908
0.000212213
0.00020652
0.000203162
0.000198874
0.000194823
0.000191067
0.00018863
0.000185739
0.000181681
0.000178876
0.000176968
0.000174013
0.000171264
0.00017005
0.00016954
0.000169223
0.000168596
0.000167424
0.000164696
0.000163018
0.000161702
0.000159521
0.000157092
0.000155437
0.000153702
0.000151855
0.00015007
0.00014884
0.000147733
0.000146784
0.000145814
0.000144595
0.000143335
0.000141949
0.000140643
0.000139581
0.000138439
0.000137551
0.000136717
0.000136084
0.000135108
0.000133864
0.0001328
0.000131561
0.000130627
0.000129743
0.000128722
0.000127938
0.000127086
0.000126274
0.00012541
0.000124479
0.000123386
0.000122517
0.000121691
0.000120983
0.000120196
0.000119528
0.000118719
0.00011781
0.000117011
0.000116178
0.000115425
0.000114563
0.000113977
0.000113299
0.000112691
0.00011207
0.000111335
0.000110728
0.00011016
0.000109476
0.000108805
0.000108203
0.000107584
0.0001071
0.000106568
0.000106
0.000105323
0.000104798
0.0001041
0.000103644
0.000103139
0.000102593
0.000102002
0.000101383
0.00010072
)
;

boundaryField
{
    inlet
    {
        type            fixedValue;
        value           uniform 0;
    }
    outlet
    {
        type            zeroGradient;
    }
    yzfaces
    {
        type            empty;
    }
}


// ************************************************************************* //
