/*--------------------------------*- C++ -*----------------------------------*\
| =========                 |                                                 |
| \\      /  F ield         | foam-extend: Open Source CFD                    |
|  \\    /   O peration     | Version:     5.0                                |
|   \\  /    A nd           | Web:         http://www.foam-extend.org         |
|    \\/     M anipulation  |                                                 |
\*---------------------------------------------------------------------------*/
FoamFile
{
    version     2.0;
    format      ascii;
    class       volScalarField;
    location    "9";
    object      Na.water;
}
// * * * * * * * * * * * * * * * * * * * * * * * * * * * * * * * * * * * * * //

dimensions      [0 0 0 0 0 0 0];

internalField   nonuniform List<scalar> 
100
(
0.00368449
0.00513704
0.00610876
0.00699291
0.00745203
0.00752471
0.00761112
0.00807468
0.00859137
0.00911427
0.00955463
0.00987068
0.0101812
0.0104872
0.010804
0.0110629
0.0113115
0.0115631
0.0117684
0.0119198
0.0120852
0.0122516
0.0123934
0.0125276
0.0126979
0.0128354
0.0129332
0.0130095
0.013045
0.0130767
0.0131297
0.0132233
0.0133454
0.0134562
0.0135771
0.0136948
0.0138028
0.0138863
0.0139781
0.0140545
0.0141358
0.0142068
0.0142921
0.0143474
0.0144167
0.0144902
0.0145618
0.0146436
0.0147165
0.014774
0.0148444
0.0149032
0.0149598
0.0150116
0.015069
0.0151373
0.0152069
0.0152765
0.0153232
0.0153752
0.0154172
0.0154665
0.0155147
0.0155596
0.0156132
0.0156538
0.0157109
0.0157589
0.0158091
0.0158699
0.0159168
0.0159618
0.0160067
0.0160499
0.0160949
0.016136
0.0161756
0.016219
0.0162659
0.0163065
0.0163462
0.0163898
0.0164283
0.0164707
0.0165057
0.0165407
0.0165756
0.0166115
0.0166439
0.0166824
0.0167148
0.0167528
0.0167823
0.0168165
0.016851
0.0168832
0.0169155
0.0169424
0.0169774
0.0170104
)
;

boundaryField
{
    inlet
    {
        type            fixedValue;
        value           uniform 0;
    }
    outlet
    {
        type            zeroGradient;
    }
    yzfaces
    {
        type            empty;
    }
}


// ************************************************************************* //
