/*--------------------------------*- C++ -*----------------------------------*\
| =========                 |                                                 |
| \\      /  F ield         | foam-extend: Open Source CFD                    |
|  \\    /   O peration     | Version:     5.0                                |
|   \\  /    A nd           | Web:         http://www.foam-extend.org         |
|    \\/     M anipulation  |                                                 |
\*---------------------------------------------------------------------------*/
FoamFile
{
    version     2.0;
    format      ascii;
    class       volScalarField;
    location    "9";
    object      Na.water;
}
// * * * * * * * * * * * * * * * * * * * * * * * * * * * * * * * * * * * * * //

dimensions      [0 0 0 0 0 0 0];

internalField   nonuniform List<scalar> 
100
(
0.00369338
0.00515661
0.00608108
0.00696221
0.00742242
0.00751398
0.00768292
0.00802595
0.00848004
0.0090668
0.00955912
0.00987111
0.0101287
0.0104145
0.0107272
0.0109727
0.0112623
0.0114903
0.011721
0.0118747
0.0120557
0.0122409
0.0124139
0.0126022
0.0127886
0.0129226
0.0129823
0.0130171
0.0130528
0.0130889
0.013143
0.0132346
0.0133425
0.0133993
0.0134985
0.0136403
0.0137646
0.013879
0.0139884
0.0140791
0.014168
0.0142474
0.0143128
0.0143883
0.0144475
0.0145165
0.0145993
0.0146751
0.0147489
0.0148152
0.0148794
0.0149171
0.0149482
0.0150112
0.0150704
0.0151267
0.0151764
0.015227
0.0152871
0.0153483
0.0153999
0.0154447
0.0154823
0.0155398
0.0155997
0.0156543
0.0157079
0.0157638
0.0158154
0.015866
0.0159154
0.0159647
0.0160106
0.0160576
0.0161031
0.016156
0.0161997
0.0162368
0.0162766
0.0163208
0.0163657
0.0164167
0.016452
0.0164917
0.0165311
0.0165649
0.0166061
0.0166451
0.0166809
0.0167093
0.0167409
0.0167743
0.01681
0.0168472
0.0168782
0.0169079
0.0169363
0.0169635
0.0170032
0.0170335
)
;

boundaryField
{
    inlet
    {
        type            fixedValue;
        value           uniform 0;
    }
    outlet
    {
        type            zeroGradient;
    }
    yzfaces
    {
        type            empty;
    }
}


// ************************************************************************* //
