/*--------------------------------*- C++ -*----------------------------------*\
| =========                 |                                                 |
| \\      /  F ield         | foam-extend: Open Source CFD                    |
|  \\    /   O peration     | Version:     5.0                                |
|   \\  /    A nd           | Web:         http://www.foam-extend.org         |
|    \\/     M anipulation  |                                                 |
\*---------------------------------------------------------------------------*/
FoamFile
{
    version     2.0;
    format      ascii;
    class       volScalarField;
    location    "9";
    object      Na.water;
}
// * * * * * * * * * * * * * * * * * * * * * * * * * * * * * * * * * * * * * //

dimensions      [0 0 0 0 0 0 0];

internalField   nonuniform List<scalar> 
100
(
0.00367001
0.0050957
0.00598366
0.00684315
0.00740066
0.00747247
0.00766542
0.00816973
0.00858142
0.00921168
0.0096202
0.00996039
0.0101838
0.0104547
0.0107847
0.0109876
0.01124
0.0114814
0.0117009
0.0118454
0.0120192
0.0122555
0.0124168
0.0125359
0.0127055
0.0128613
0.0129297
0.0129591
0.0129848
0.0130277
0.013098
0.0132523
0.0133527
0.0134364
0.0135649
0.0137062
0.0138075
0.0139086
0.0140119
0.0141103
0.0141783
0.0142496
0.0143052
0.0143649
0.0144366
0.014513
0.0145947
0.0146674
0.0147352
0.0147975
0.0148534
0.0149017
0.0149485
0.0149987
0.0150723
0.0151354
0.0152069
0.0152606
0.0153138
0.015367
0.0154183
0.015468
0.0155183
0.0155687
0.0156225
0.0156895
0.0157437
0.0157941
0.0158385
0.015882
0.0159259
0.0159736
0.0160301
0.0160757
0.0161238
0.0161681
0.0162139
0.0162524
0.0162882
0.0163201
0.0163594
0.016404
0.0164424
0.0164738
0.0165106
0.0165475
0.0165841
0.0166233
0.0166505
0.0166813
0.0167139
0.0167503
0.0167858
0.0168242
0.0168618
0.0168901
0.0169189
0.0169547
0.0169849
0.0170278
)
;

boundaryField
{
    inlet
    {
        type            fixedValue;
        value           uniform 0;
    }
    outlet
    {
        type            zeroGradient;
    }
    yzfaces
    {
        type            empty;
    }
}


// ************************************************************************* //
