/*--------------------------------*- C++ -*----------------------------------*\
| =========                 |                                                 |
| \\      /  F ield         | foam-extend: Open Source CFD                    |
|  \\    /   O peration     | Version:     5.0                                |
|   \\  /    A nd           | Web:         http://www.foam-extend.org         |
|    \\/     M anipulation  |                                                 |
\*---------------------------------------------------------------------------*/
FoamFile
{
    version     2.0;
    format      ascii;
    class       volScalarField;
    location    "9";
    object      Ns;
}
// * * * * * * * * * * * * * * * * * * * * * * * * * * * * * * * * * * * * * //

dimensions      [0 -3 0 0 1 0 0];

internalField   nonuniform List<scalar> 
100
(
53.4325
58.8448
62.0618
97.4676
154.691
223.583
231.904
147.759
86.5827
98.1087
81.7022
94.5361
50.5631
52.6052
7.77022
2.58928
45.9644
18.5271
4.23065
48.6726
25.8
59.3243
64.3667
46.4614
53.204
55.1239
53.9877
53.7594
73.5479
62.7968
45.9301
35.3729
40.2153
42.447
47.2416
36.2024
52.6225
50.1795
64.2777
56.6134
48.3985
51.2438
45.9701
31.3482
54.9068
60.7753
52.0697
57.182
28.9033
60.554
43.5762
42.0027
50.428
51.2002
56.6641
44.6112
80.2595
37.3801
60.093
48.995
60.4142
50.6424
55.963
61.4352
44.0367
46.2854
34.212
58.2316
68.5363
57.357
68.9837
37.5759
68.5024
62.5944
59.7893
62.998
54.055
51.4169
56.3753
60.1273
72.2387
61.2425
62.3044
59.6563
71.7977
61.7065
57.8379
65.9043
46.8473
66.8818
58.8543
64.3919
54.8194
61.9477
78.4471
57.2937
62.7145
65.1183
55.6563
57.7143
)
;

boundaryField
{
    inlet
    {
        type            fixedValue;
        value           uniform 0;
    }
    outlet
    {
        type            zeroGradient;
    }
    yzfaces
    {
        type            empty;
    }
}


// ************************************************************************* //
