/*--------------------------------*- C++ -*----------------------------------*\
| =========                 |                                                 |
| \\      /  F ield         | foam-extend: Open Source CFD                    |
|  \\    /   O peration     | Version:     5.0                                |
|   \\  /    A nd           | Web:         http://www.foam-extend.org         |
|    \\/     M anipulation  |                                                 |
\*---------------------------------------------------------------------------*/
FoamFile
{
    version     2.0;
    format      ascii;
    class       volScalarField;
    location    "9";
    object      Ns;
}
// * * * * * * * * * * * * * * * * * * * * * * * * * * * * * * * * * * * * * //

dimensions      [0 -3 0 0 1 0 0];

internalField   nonuniform List<scalar> 
100
(
48.9824
100.754
68.2189
141.137
165.728
244.962
187.62
128.822
173.199
79.9335
29.8151
116.419
29.3754
56.9232
66.8638
52.0395
32.7175
38.2859
30.2191
18.1456
35.9971
36.9171
22.3687
12.7441
41.7069
37.1774
75.6404
76.6638
98.6319
45.5471
45.5012
68.2112
57.4273
60.3073
26.6754
40.466
18.5815
41.3328
21.0845
33.7497
42.3667
48.164
53.4729
69.6537
42.1547
59.1666
63.3729
45.0292
67.6594
60.4588
54.1284
52.31
46.9835
62.9756
42.7141
62.9555
42.4105
78.4325
64.0597
57.8798
51.8352
62.5545
35.887
60.9413
41.4034
53.6473
46.7796
55.6007
74.3754
71.4715
61.4704
54.4033
67.3418
63.386
64.2088
62.6589
69.15
69.3765
65.0922
64.3234
72.8296
70.4062
72.7959
58.775
59.1783
64.9299
59.8209
78.2702
71.6528
74.4186
68.2123
56.054
54.2999
63.2818
52.4104
67.5693
76.6038
59.0023
60.8691
64.4836
)
;

boundaryField
{
    inlet
    {
        type            fixedValue;
        value           uniform 0;
    }
    outlet
    {
        type            zeroGradient;
    }
    yzfaces
    {
        type            empty;
    }
}


// ************************************************************************* //
