/*--------------------------------*- C++ -*----------------------------------*\
| =========                 |                                                 |
| \\      /  F ield         | foam-extend: Open Source CFD                    |
|  \\    /   O peration     | Version:     5.0                                |
|   \\  /    A nd           | Web:         http://www.foam-extend.org         |
|    \\/     M anipulation  |                                                 |
\*---------------------------------------------------------------------------*/
FoamFile
{
    version     2.0;
    format      ascii;
    class       volScalarField;
    location    "9";
    object      Ns;
}
// * * * * * * * * * * * * * * * * * * * * * * * * * * * * * * * * * * * * * //

dimensions      [0 -3 0 0 1 0 0];

internalField   nonuniform List<scalar> 
100
(
39.442
44.9429
89.4098
109.195
170.124
254.432
208.992
151.948
129.245
61.6477
74.5282
113.583
77.781
63.687
53.7228
11.0757
43.3657
16.7695
58.986
21.296
27.4997
47.8619
3.3746
31.307
25.294
73.5603
28.6106
49.5879
67.748
67.0218
43.1305
61.5356
67.8086
80.4993
43.4347
54.1041
54.1839
55.8109
68.4877
44.3369
40.3077
26.9553
45.7502
60.381
48.276
31.7409
40.8922
53.1276
49.0554
33.845
25.0465
48.1358
54.4022
67.9558
68.5385
62.7092
34.9155
41.0307
65.6876
42.1152
73.2096
41.4965
49.3171
63.1185
39.5765
43.6428
56.5785
39.3348
37.5673
40.3482
57.7959
57.2267
39.4367
53.9183
59.217
56.8348
45.3793
59.9996
51.0993
68.5534
58.7092
51.1779
55.9493
52.6417
73.1217
53.0965
57.4306
59.7994
61.4315
51.584
64.5733
50.7851
65.1494
54.8738
52.1078
51.7995
66.6856
58.2674
52.2841
65.1484
)
;

boundaryField
{
    inlet
    {
        type            fixedValue;
        value           uniform 0;
    }
    outlet
    {
        type            zeroGradient;
    }
    yzfaces
    {
        type            empty;
    }
}


// ************************************************************************* //
