/*--------------------------------*- C++ -*----------------------------------*\
| =========                 |                                                 |
| \\      /  F ield         | foam-extend: Open Source CFD                    |
|  \\    /   O peration     | Version:     5.0                                |
|   \\  /    A nd           | Web:         http://www.foam-extend.org         |
|    \\/     M anipulation  |                                                 |
\*---------------------------------------------------------------------------*/
FoamFile
{
    version     2.0;
    format      ascii;
    class       surfaceScalarField;
    location    "9";
    object      phi;
}
// * * * * * * * * * * * * * * * * * * * * * * * * * * * * * * * * * * * * * //

dimensions      [0 3 -1 0 0 0 0];

internalField   nonuniform List<scalar> 
99
(
1.23374e-06
1.23476e-06
1.23555e-06
1.23941e-06
1.25561e-06
1.26384e-06
1.24977e-06
1.2397e-06
1.22663e-06
1.22131e-06
1.21886e-06
1.21121e-06
1.21121e-06
1.2069e-06
1.21539e-06
1.21983e-06
1.21941e-06
1.21493e-06
1.22034e-06
1.21913e-06
1.21927e-06
1.21775e-06
1.22049e-06
1.22615e-06
1.2225e-06
1.22264e-06
1.22406e-06
1.23104e-06
1.23267e-06
1.23035e-06
1.22545e-06
1.22099e-06
1.22004e-06
1.22302e-06
1.22009e-06
1.21866e-06
1.21961e-06
1.22219e-06
1.223e-06
1.22373e-06
1.22715e-06
1.22584e-06
1.22772e-06
1.22603e-06
1.22673e-06
1.22227e-06
1.21915e-06
1.22207e-06
1.2215e-06
1.2245e-06
1.22497e-06
1.22698e-06
1.22845e-06
1.22796e-06
1.22919e-06
1.22906e-06
1.22766e-06
1.22801e-06
1.23051e-06
1.22779e-06
1.22886e-06
1.22717e-06
1.22649e-06
1.22548e-06
1.22501e-06
1.22303e-06
1.21867e-06
1.21856e-06
1.21626e-06
1.21815e-06
1.21796e-06
1.21826e-06
1.21634e-06
1.21562e-06
1.21109e-06
1.20944e-06
1.20757e-06
1.20648e-06
1.20953e-06
1.20863e-06
1.21267e-06
1.21395e-06
1.21683e-06
1.21415e-06
1.21625e-06
1.21137e-06
1.20988e-06
1.21263e-06
1.2114e-06
1.21106e-06
1.20843e-06
1.20839e-06
1.21105e-06
1.20782e-06
1.20636e-06
1.20303e-06
1.20257e-06
1.20241e-06
1.19932e-06
)
;

boundaryField
{
    inlet
    {
        type            calculated;
        value           uniform -1.225e-06;
    }
    outlet
    {
        type            calculated;
        value           uniform 1.20083e-06;
    }
    yzfaces
    {
        type            empty;
    }
}


// ************************************************************************* //
