/*--------------------------------*- C++ -*----------------------------------*\
| =========                 |                                                 |
| \\      /  F ield         | foam-extend: Open Source CFD                    |
|  \\    /   O peration     | Version:     5.0                                |
|   \\  /    A nd           | Web:         http://www.foam-extend.org         |
|    \\/     M anipulation  |                                                 |
\*---------------------------------------------------------------------------*/
FoamFile
{
    version     2.0;
    format      ascii;
    class       surfaceScalarField;
    location    "9";
    object      phi;
}
// * * * * * * * * * * * * * * * * * * * * * * * * * * * * * * * * * * * * * //

dimensions      [0 3 -1 0 0 0 0];

internalField   nonuniform List<scalar> 
99
(
1.2143e-06
1.22371e-06
1.22077e-06
1.22257e-06
1.22789e-06
1.21871e-06
1.21191e-06
1.20186e-06
1.19202e-06
1.1807e-06
1.1754e-06
1.17295e-06
1.16493e-06
1.16025e-06
1.16233e-06
1.16407e-06
1.16044e-06
1.15586e-06
1.15899e-06
1.16205e-06
1.15683e-06
1.15941e-06
1.16311e-06
1.15853e-06
1.16079e-06
1.16236e-06
1.16678e-06
1.17415e-06
1.17472e-06
1.17169e-06
1.16719e-06
1.16469e-06
1.17103e-06
1.16307e-06
1.16305e-06
1.16031e-06
1.15583e-06
1.15288e-06
1.15564e-06
1.1612e-06
1.16544e-06
1.1614e-06
1.16394e-06
1.16067e-06
1.15803e-06
1.15589e-06
1.1563e-06
1.15535e-06
1.155e-06
1.15628e-06
1.15572e-06
1.15717e-06
1.15366e-06
1.15434e-06
1.15374e-06
1.15619e-06
1.15666e-06
1.15434e-06
1.15495e-06
1.15872e-06
1.15733e-06
1.15917e-06
1.15558e-06
1.15675e-06
1.15976e-06
1.15954e-06
1.15954e-06
1.16243e-06
1.16059e-06
1.16102e-06
1.15823e-06
1.15786e-06
1.15533e-06
1.15694e-06
1.15709e-06
1.15734e-06
1.1608e-06
1.16104e-06
1.15966e-06
1.1585e-06
1.16029e-06
1.16291e-06
1.16414e-06
1.16535e-06
1.1651e-06
1.16744e-06
1.16565e-06
1.16496e-06
1.16349e-06
1.1657e-06
1.1633e-06
1.16708e-06
1.16486e-06
1.16953e-06
1.16546e-06
1.16503e-06
1.16123e-06
1.16176e-06
1.16073e-06
)
;

boundaryField
{
    inlet
    {
        type            calculated;
        value           uniform -1.225e-06;
    }
    outlet
    {
        type            calculated;
        value           uniform 1.1629e-06;
    }
    yzfaces
    {
        type            empty;
    }
}


// ************************************************************************* //
