/*--------------------------------*- C++ -*----------------------------------*\
| =========                 |                                                 |
| \\      /  F ield         | foam-extend: Open Source CFD                    |
|  \\    /   O peration     | Version:     5.0                                |
|   \\  /    A nd           | Web:         http://www.foam-extend.org         |
|    \\/     M anipulation  |                                                 |
\*---------------------------------------------------------------------------*/
FoamFile
{
    version     2.0;
    format      ascii;
    class       surfaceScalarField;
    location    "9";
    object      phi;
}
// * * * * * * * * * * * * * * * * * * * * * * * * * * * * * * * * * * * * * //

dimensions      [0 3 -1 0 0 0 0];

internalField   nonuniform List<scalar> 
99
(
1.23263e-06
1.20996e-06
1.21218e-06
1.20925e-06
1.21384e-06
1.20984e-06
1.2091e-06
1.19036e-06
1.17554e-06
1.16855e-06
1.16483e-06
1.16981e-06
1.16374e-06
1.15831e-06
1.15982e-06
1.1588e-06
1.15498e-06
1.14855e-06
1.15529e-06
1.15411e-06
1.14688e-06
1.1532e-06
1.15833e-06
1.16197e-06
1.16007e-06
1.16961e-06
1.17122e-06
1.16708e-06
1.16049e-06
1.1553e-06
1.155e-06
1.15606e-06
1.15765e-06
1.1596e-06
1.15657e-06
1.15935e-06
1.16203e-06
1.16037e-06
1.15811e-06
1.15986e-06
1.15865e-06
1.15888e-06
1.15599e-06
1.1558e-06
1.15146e-06
1.15219e-06
1.15569e-06
1.1545e-06
1.15432e-06
1.15535e-06
1.15629e-06
1.15772e-06
1.15599e-06
1.15463e-06
1.15326e-06
1.15524e-06
1.15317e-06
1.15531e-06
1.15324e-06
1.15687e-06
1.15618e-06
1.15885e-06
1.15654e-06
1.15828e-06
1.15711e-06
1.15667e-06
1.15625e-06
1.15894e-06
1.15755e-06
1.1559e-06
1.15592e-06
1.15584e-06
1.1534e-06
1.15208e-06
1.15266e-06
1.15174e-06
1.15416e-06
1.15679e-06
1.15789e-06
1.16011e-06
1.16007e-06
1.15912e-06
1.15976e-06
1.15978e-06
1.16422e-06
1.16255e-06
1.15979e-06
1.16128e-06
1.1644e-06
1.16162e-06
1.15805e-06
1.15659e-06
1.1529e-06
1.15403e-06
1.15139e-06
1.15074e-06
1.15038e-06
1.15186e-06
1.15181e-06
)
;

boundaryField
{
    inlet
    {
        type            calculated;
        value           uniform -1.225e-06;
    }
    outlet
    {
        type            calculated;
        value           uniform 1.15255e-06;
    }
    yzfaces
    {
        type            empty;
    }
}


// ************************************************************************* //
