/*--------------------------------*- C++ -*----------------------------------*\
| =========                 |                                                 |
| \\      /  F ield         | foam-extend: Open Source CFD                    |
|  \\    /   O peration     | Version:     5.0                                |
|   \\  /    A nd           | Web:         http://www.foam-extend.org         |
|    \\/     M anipulation  |                                                 |
\*---------------------------------------------------------------------------*/
FoamFile
{
    version     2.0;
    format      ascii;
    class       surfaceScalarField;
    location    "9";
    object      phi.water;
}
// * * * * * * * * * * * * * * * * * * * * * * * * * * * * * * * * * * * * * //

dimensions      [0 3 -1 0 0 0 0];

internalField   nonuniform List<scalar> 
99
(
6.5329e-08
1.17053e-07
1.53858e-07
1.99728e-07
2.40352e-07
2.40223e-07
2.45996e-07
2.80896e-07
3.03614e-07
3.5751e-07
3.94373e-07
4.30635e-07
4.50075e-07
4.7934e-07
5.2373e-07
5.48072e-07
5.82548e-07
6.14697e-07
6.53473e-07
6.76389e-07
7.00548e-07
7.46757e-07
7.8182e-07
7.98467e-07
8.35777e-07
8.73801e-07
8.9491e-07
9.06682e-07
9.11499e-07
9.14198e-07
9.23053e-07
9.63903e-07
9.91956e-07
1.00049e-06
1.03428e-06
1.07093e-06
1.0921e-06
1.1185e-06
1.15251e-06
1.1906e-06
1.21723e-06
1.23344e-06
1.25255e-06
1.26704e-06
1.28674e-06
1.30825e-06
1.33584e-06
1.36208e-06
1.38369e-06
1.41036e-06
1.42917e-06
1.44848e-06
1.45621e-06
1.47804e-06
1.5059e-06
1.53303e-06
1.5627e-06
1.58161e-06
1.60352e-06
1.63436e-06
1.65139e-06
1.67479e-06
1.68974e-06
1.71351e-06
1.74193e-06
1.77154e-06
1.79622e-06
1.82169e-06
1.83769e-06
1.86142e-06
1.87387e-06
1.89505e-06
1.91892e-06
1.9457e-06
1.97029e-06
1.99429e-06
2.02702e-06
2.04176e-06
2.06113e-06
2.07899e-06
2.1016e-06
2.12955e-06
2.1511e-06
2.1715e-06
2.19311e-06
2.21971e-06
2.23571e-06
2.256e-06
2.26938e-06
2.29158e-06
2.30561e-06
2.3393e-06
2.35138e-06
2.38726e-06
2.39285e-06
2.40904e-06
2.4221e-06
2.44391e-06
2.4654e-06
)
;

boundaryField
{
    inlet
    {
        type            fixedValue;
        value           uniform 0;
    }
    outlet
    {
        type            calculated;
        value           uniform 2.49835e-06;
    }
    yzfaces
    {
        type            empty;
    }
}


// ************************************************************************* //
