/*--------------------------------*- C++ -*----------------------------------*\
| =========                 |                                                 |
| \\      /  F ield         | foam-extend: Open Source CFD                    |
|  \\    /   O peration     | Version:     5.0                                |
|   \\  /    A nd           | Web:         http://www.foam-extend.org         |
|    \\/     M anipulation  |                                                 |
\*---------------------------------------------------------------------------*/
FoamFile
{
    version     2.0;
    format      ascii;
    class       volVectorField;
    location    "9";
    object      U.gas;
}
// * * * * * * * * * * * * * * * * * * * * * * * * * * * * * * * * * * * * * //

dimensions      [0 1 -1 0 0 0 0];

internalField   nonuniform List<vector> 
100
(
(0.00591817 0 0)
(0.00637572 0 0)
(0.00671027 0 0)
(0.00704139 0 0)
(0.00729644 0 0)
(0.00730405 0 0)
(0.0073421 0 0)
(0.0075271 0 0)
(0.00765095 0 0)
(0.00790123 0 0)
(0.00804695 0 0)
(0.00820246 0 0)
(0.00828077 0 0)
(0.00839181 0 0)
(0.0085777 0 0)
(0.00870034 0 0)
(0.00884843 0 0)
(0.00896226 0 0)
(0.00909367 0 0)
(0.00920259 0 0)
(0.00930631 0 0)
(0.00945916 0 0)
(0.00958688 0 0)
(0.00965223 0 0)
(0.00976856 0 0)
(0.00989512 0 0)
(0.00995709 0 0)
(0.0100221 0 0)
(0.0100671 0 0)
(0.0100853 0 0)
(0.0101073 0 0)
(0.0102042 0 0)
(0.0102803 0 0)
(0.0103265 0 0)
(0.0103927 0 0)
(0.0104855 0 0)
(0.010514 0 0)
(0.0105548 0 0)
(0.0106337 0 0)
(0.0107475 0 0)
(0.0108373 0 0)
(0.0108832 0 0)
(0.0109144 0 0)
(0.0109526 0 0)
(0.0109804 0 0)
(0.0110122 0 0)
(0.0110654 0 0)
(0.0111168 0 0)
(0.0111502 0 0)
(0.0112035 0 0)
(0.0112384 0 0)
(0.0112763 0 0)
(0.011289 0 0)
(0.0113229 0 0)
(0.0113802 0 0)
(0.0114287 0 0)
(0.0114978 0 0)
(0.0115194 0 0)
(0.0115449 0 0)
(0.0116109 0 0)
(0.0116479 0 0)
(0.0116858 0 0)
(0.0117083 0 0)
(0.011731 0 0)
(0.01179 0 0)
(0.01185 0 0)
(0.0118734 0 0)
(0.0119178 0 0)
(0.0119473 0 0)
(0.0119707 0 0)
(0.0119789 0 0)
(0.0119975 0 0)
(0.0120173 0 0)
(0.0120345 0 0)
(0.0120732 0 0)
(0.0120972 0 0)
(0.0121476 0 0)
(0.0121779 0 0)
(0.012199 0 0)
(0.0122007 0 0)
(0.0122227 0 0)
(0.0122733 0 0)
(0.0123074 0 0)
(0.0123351 0 0)
(0.0123647 0 0)
(0.0123943 0 0)
(0.0124112 0 0)
(0.0124157 0 0)
(0.0124108 0 0)
(0.0124308 0 0)
(0.0124464 0 0)
(0.0124737 0 0)
(0.0124865 0 0)
(0.0125244 0 0)
(0.0125262 0 0)
(0.0125175 0 0)
(0.012508 0 0)
(0.0125039 0 0)
(0.0125149 0 0)
(0.0125338 0 0)
)
;

boundaryField
{
    inlet
    {
        type            fixedValue;
        value           uniform (0.005 0 0);
    }
    outlet
    {
        type            zeroGradient;
    }
    yzfaces
    {
        type            empty;
    }
}


// ************************************************************************* //
