/*--------------------------------*- C++ -*----------------------------------*\
| =========                 |                                                 |
| \\      /  F ield         | foam-extend: Open Source CFD                    |
|  \\    /   O peration     | Version:     5.0                                |
|   \\  /    A nd           | Web:         http://www.foam-extend.org         |
|    \\/     M anipulation  |                                                 |
\*---------------------------------------------------------------------------*/
FoamFile
{
    version     2.0;
    format      ascii;
    class       volVectorField;
    location    "9";
    object      U.gas;
}
// * * * * * * * * * * * * * * * * * * * * * * * * * * * * * * * * * * * * * //

dimensions      [0 1 -1 0 0 0 0];

internalField   nonuniform List<vector> 
100
(
(0.00597228 0 0)
(0.00646811 0 0)
(0.00682634 0 0)
(0.0071975 0 0)
(0.00745125 0 0)
(0.00754841 0 0)
(0.00756402 0 0)
(0.00771427 0 0)
(0.00789271 0 0)
(0.00809694 0 0)
(0.00830636 0 0)
(0.00844067 0 0)
(0.00858949 0 0)
(0.00875224 0 0)
(0.00895991 0 0)
(0.00916114 0 0)
(0.00932951 0 0)
(0.00947442 0 0)
(0.00961222 0 0)
(0.00972555 0 0)
(0.00983229 0 0)
(0.00994335 0 0)
(0.0100453 0 0)
(0.0101779 0 0)
(0.0103039 0 0)
(0.0103846 0 0)
(0.0104562 0 0)
(0.010552 0 0)
(0.0106019 0 0)
(0.0106219 0 0)
(0.0106303 0 0)
(0.0106682 0 0)
(0.0107414 0 0)
(0.0108376 0 0)
(0.0109273 0 0)
(0.0109931 0 0)
(0.011077 0 0)
(0.0111497 0 0)
(0.0112344 0 0)
(0.0113001 0 0)
(0.0113843 0 0)
(0.0114451 0 0)
(0.0115208 0 0)
(0.0115459 0 0)
(0.0115999 0 0)
(0.0116369 0 0)
(0.0116598 0 0)
(0.0117261 0 0)
(0.0117811 0 0)
(0.011835 0 0)
(0.0119052 0 0)
(0.0119569 0 0)
(0.0120165 0 0)
(0.0120609 0 0)
(0.0121071 0 0)
(0.0121691 0 0)
(0.0122151 0 0)
(0.0122625 0 0)
(0.012298 0 0)
(0.012335 0 0)
(0.0123526 0 0)
(0.0123866 0 0)
(0.0124096 0 0)
(0.0124276 0 0)
(0.0124614 0 0)
(0.0124698 0 0)
(0.0124869 0 0)
(0.0124931 0 0)
(0.0125129 0 0)
(0.0125593 0 0)
(0.012586 0 0)
(0.012618 0 0)
(0.0126384 0 0)
(0.0126452 0 0)
(0.0126421 0 0)
(0.012632 0 0)
(0.0126418 0 0)
(0.0126552 0 0)
(0.0126918 0 0)
(0.0127185 0 0)
(0.0127589 0 0)
(0.012805 0 0)
(0.0128528 0 0)
(0.0128719 0 0)
(0.0128894 0 0)
(0.0128839 0 0)
(0.0128736 0 0)
(0.0128968 0 0)
(0.0129204 0 0)
(0.0129291 0 0)
(0.0129277 0 0)
(0.0129268 0 0)
(0.0129565 0 0)
(0.0129658 0 0)
(0.0129575 0 0)
(0.0129367 0 0)
(0.0129375 0 0)
(0.012937 0 0)
(0.0129333 0 0)
(0.0129365 0 0)
)
;

boundaryField
{
    inlet
    {
        type            fixedValue;
        value           uniform (0.005 0 0);
    }
    outlet
    {
        type            zeroGradient;
    }
    yzfaces
    {
        type            empty;
    }
}


// ************************************************************************* //
