/*--------------------------------*- C++ -*----------------------------------*\
| =========                 |                                                 |
| \\      /  F ield         | foam-extend: Open Source CFD                    |
|  \\    /   O peration     | Version:     5.0                                |
|   \\  /    A nd           | Web:         http://www.foam-extend.org         |
|    \\/     M anipulation  |                                                 |
\*---------------------------------------------------------------------------*/
FoamFile
{
    version     2.0;
    format      ascii;
    class       volVectorField;
    location    "9";
    object      U.gas;
}
// * * * * * * * * * * * * * * * * * * * * * * * * * * * * * * * * * * * * * //

dimensions      [0 1 -1 0 0 0 0];

internalField   nonuniform List<vector> 
100
(
(0.00597073 0 0)
(0.00640433 0 0)
(0.00668016 0 0)
(0.00702666 0 0)
(0.00722246 0 0)
(0.00725558 0 0)
(0.00731474 0 0)
(0.0074083 0 0)
(0.00751476 0 0)
(0.00773388 0 0)
(0.0079433 0 0)
(0.00810865 0 0)
(0.00823885 0 0)
(0.00835546 0 0)
(0.00852224 0 0)
(0.00866267 0 0)
(0.00882003 0 0)
(0.00891643 0 0)
(0.0090685 0 0)
(0.00917954 0 0)
(0.009261 0 0)
(0.00937969 0 0)
(0.00954888 0 0)
(0.00970642 0 0)
(0.00983928 0 0)
(0.00996283 0 0)
(0.0100394 0 0)
(0.0100453 0 0)
(0.0100235 0 0)
(0.00999533 0 0)
(0.0100147 0 0)
(0.0100895 0 0)
(0.0101749 0 0)
(0.0102266 0 0)
(0.0102923 0 0)
(0.0104051 0 0)
(0.010514 0 0)
(0.0105967 0 0)
(0.0106559 0 0)
(0.0107193 0 0)
(0.0107858 0 0)
(0.0108358 0 0)
(0.0108659 0 0)
(0.01091 0 0)
(0.0109297 0 0)
(0.0109642 0 0)
(0.0110513 0 0)
(0.0111177 0 0)
(0.0111571 0 0)
(0.0112069 0 0)
(0.0112558 0 0)
(0.0112933 0 0)
(0.0113107 0 0)
(0.0113494 0 0)
(0.011377 0 0)
(0.0114176 0 0)
(0.0114466 0 0)
(0.011488 0 0)
(0.0115349 0 0)
(0.0115872 0 0)
(0.0116241 0 0)
(0.0116667 0 0)
(0.011686 0 0)
(0.0117316 0 0)
(0.0117735 0 0)
(0.0117981 0 0)
(0.0118276 0 0)
(0.0118816 0 0)
(0.0119126 0 0)
(0.0119315 0 0)
(0.0119462 0 0)
(0.0119754 0 0)
(0.0119805 0 0)
(0.0119937 0 0)
(0.0120165 0 0)
(0.0120472 0 0)
(0.0120765 0 0)
(0.0121166 0 0)
(0.0121662 0 0)
(0.0122066 0 0)
(0.0122389 0 0)
(0.0122619 0 0)
(0.0122775 0 0)
(0.0122923 0 0)
(0.0123372 0 0)
(0.0123634 0 0)
(0.0123638 0 0)
(0.0123739 0 0)
(0.0124095 0 0)
(0.0124192 0 0)
(0.012403 0 0)
(0.0123932 0 0)
(0.0123771 0 0)
(0.0123818 0 0)
(0.0123762 0 0)
(0.0123751 0 0)
(0.0123769 0 0)
(0.012391 0 0)
(0.0124158 0 0)
(0.0124236 0 0)
)
;

boundaryField
{
    inlet
    {
        type            fixedValue;
        value           uniform (0.005 0 0);
    }
    outlet
    {
        type            zeroGradient;
    }
    yzfaces
    {
        type            empty;
    }
}


// ************************************************************************* //
