/*--------------------------------*- C++ -*----------------------------------*\
| =========                 |                                                 |
| \\      /  F ield         | foam-extend: Open Source CFD                    |
|  \\    /   O peration     | Version:     5.0                                |
|   \\  /    A nd           | Web:         http://www.foam-extend.org         |
|    \\/     M anipulation  |                                                 |
\*---------------------------------------------------------------------------*/
FoamFile
{
    version     2.0;
    format      ascii;
    class       volVectorField;
    location    "9";
    object      U.water;
}
// * * * * * * * * * * * * * * * * * * * * * * * * * * * * * * * * * * * * * //

dimensions      [0 1 -1 0 0 0 0];

internalField   nonuniform List<vector> 
100
(
(3.25183e-05 0 0)
(7.54522e-05 0 0)
(0.000112388 0 0)
(0.000145932 0 0)
(0.000178942 0 0)
(0.000196845 0 0)
(0.00020221 0 0)
(0.000211859 0 0)
(0.000229419 0 0)
(0.000258218 0 0)
(0.000295566 0 0)
(0.000328437 0 0)
(0.000352833 0 0)
(0.000374542 0 0)
(0.000402107 0 0)
(0.00043193 0 0)
(0.000458934 0 0)
(0.000487231 0 0)
(0.000515596 0 0)
(0.000543834 0 0)
(0.000563568 0 0)
(0.000588933 0 0)
(0.00061896 0 0)
(0.00064977 0 0)
(0.000680181 0 0)
(0.0007117 0 0)
(0.000734938 0 0)
(0.000742412 0 0)
(0.000744788 0 0)
(0.000747219 0 0)
(0.000753324 0 0)
(0.000767349 0 0)
(0.000786648 0 0)
(0.000804964 0 0)
(0.000819356 0 0)
(0.000842245 0 0)
(0.000873204 0 0)
(0.000899458 0 0)
(0.00092344 0 0)
(0.000947676 0 0)
(0.00096985 0 0)
(0.000990686 0 0)
(0.00100789 0 0)
(0.00102396 0 0)
(0.00104109 0 0)
(0.00105688 0 0)
(0.00107934 0 0)
(0.00110346 0 0)
(0.00112416 0 0)
(0.0011446 0 0)
(0.001164 0 0)
(0.00118027 0 0)
(0.00119164 0 0)
(0.00120315 0 0)
(0.00122065 0 0)
(0.00123917 0 0)
(0.00125596 0 0)
(0.0012724 0 0)
(0.00129105 0 0)
(0.00131358 0 0)
(0.00133537 0 0)
(0.00135185 0 0)
(0.00136679 0 0)
(0.00138223 0 0)
(0.00140342 0 0)
(0.00142297 0 0)
(0.0014415 0 0)
(0.00146366 0 0)
(0.00148536 0 0)
(0.00150135 0 0)
(0.00151854 0 0)
(0.00153737 0 0)
(0.00155442 0 0)
(0.0015686 0 0)
(0.00158696 0 0)
(0.00160667 0 0)
(0.00162813 0 0)
(0.00164861 0 0)
(0.00166718 0 0)
(0.00168841 0 0)
(0.00170936 0 0)
(0.00172851 0 0)
(0.00174857 0 0)
(0.0017671 0 0)
(0.00178622 0 0)
(0.0018039 0 0)
(0.00181697 0 0)
(0.00183412 0 0)
(0.00185509 0 0)
(0.00187143 0 0)
(0.00188051 0 0)
(0.0018924 0 0)
(0.00190468 0 0)
(0.0019191 0 0)
(0.00193463 0 0)
(0.00194762 0 0)
(0.00196317 0 0)
(0.00197815 0 0)
(0.0019951 0 0)
(0.00201392 0 0)
)
;

boundaryField
{
    inlet
    {
        type            fixedValue;
        value           uniform (0 0 0);
    }
    outlet
    {
        type            zeroGradient;
    }
    yzfaces
    {
        type            empty;
    }
}


// ************************************************************************* //
