/*--------------------------------*- C++ -*----------------------------------*\
| =========                 |                                                 |
| \\      /  F ield         | foam-extend: Open Source CFD                    |
|  \\    /   O peration     | Version:     5.0                                |
|   \\  /    A nd           | Web:         http://www.foam-extend.org         |
|    \\/     M anipulation  |                                                 |
\*---------------------------------------------------------------------------*/
FoamFile
{
    version     2.0;
    format      ascii;
    class       volVectorField;
    location    "9";
    object      U.water;
}
// * * * * * * * * * * * * * * * * * * * * * * * * * * * * * * * * * * * * * //

dimensions      [0 1 -1 0 0 0 0];

internalField   nonuniform List<vector> 
100
(
(3.24346e-05 0 0)
(7.62411e-05 0 0)
(0.000114539 0 0)
(0.000150687 0 0)
(0.000186466 0 0)
(0.000206189 0 0)
(0.000209242 0 0)
(0.000217194 0 0)
(0.00024358 0 0)
(0.000275575 0 0)
(0.000310531 0 0)
(0.000341788 0 0)
(0.000368314 0 0)
(0.000397196 0 0)
(0.000429503 0 0)
(0.000463691 0 0)
(0.000493673 0 0)
(0.00052326 0 0)
(0.000554395 0 0)
(0.000581073 0 0)
(0.000602683 0 0)
(0.000626811 0 0)
(0.000652598 0 0)
(0.000677967 0 0)
(0.000703461 0 0)
(0.00072969 0 0)
(0.0007529 0 0)
(0.000772126 0 0)
(0.000786935 0 0)
(0.000793267 0 0)
(0.000799026 0 0)
(0.000808764 0 0)
(0.000827841 0 0)
(0.000854081 0 0)
(0.000879674 0 0)
(0.000904081 0 0)
(0.000929266 0 0)
(0.000954869 0 0)
(0.000977515 0 0)
(0.000999493 0 0)
(0.00102193 0 0)
(0.00104317 0 0)
(0.00106367 0 0)
(0.00108363 0 0)
(0.0010986 0 0)
(0.00111631 0 0)
(0.00113288 0 0)
(0.00115509 0 0)
(0.001179 0 0)
(0.00119977 0 0)
(0.00122075 0 0)
(0.00124201 0 0)
(0.00126169 0 0)
(0.00127965 0 0)
(0.00129865 0 0)
(0.00131992 0 0)
(0.00134236 0 0)
(0.00136581 0 0)
(0.00138939 0 0)
(0.0014065 0 0)
(0.00142274 0 0)
(0.00143868 0 0)
(0.00145486 0 0)
(0.00147156 0 0)
(0.00148781 0 0)
(0.00150371 0 0)
(0.00151826 0 0)
(0.00153755 0 0)
(0.00155637 0 0)
(0.00157845 0 0)
(0.00160161 0 0)
(0.00162 0 0)
(0.00163878 0 0)
(0.00165481 0 0)
(0.0016678 0 0)
(0.00168127 0 0)
(0.00169636 0 0)
(0.00171325 0 0)
(0.00173517 0 0)
(0.00175596 0 0)
(0.00177516 0 0)
(0.0017964 0 0)
(0.00181687 0 0)
(0.00183568 0 0)
(0.00185383 0 0)
(0.00186827 0 0)
(0.00187964 0 0)
(0.0018991 0 0)
(0.00191748 0 0)
(0.00193357 0 0)
(0.00194837 0 0)
(0.00196352 0 0)
(0.00198282 0 0)
(0.00199859 0 0)
(0.00201159 0 0)
(0.00202424 0 0)
(0.00203762 0 0)
(0.0020558 0 0)
(0.00206873 0 0)
(0.00208522 0 0)
)
;

boundaryField
{
    inlet
    {
        type            fixedValue;
        value           uniform (0 0 0);
    }
    outlet
    {
        type            zeroGradient;
    }
    yzfaces
    {
        type            empty;
    }
}


// ************************************************************************* //
