/*--------------------------------*- C++ -*----------------------------------*\
| =========                 |                                                 |
| \\      /  F ield         | foam-extend: Open Source CFD                    |
|  \\    /   O peration     | Version:     5.0                                |
|   \\  /    A nd           | Web:         http://www.foam-extend.org         |
|    \\/     M anipulation  |                                                 |
\*---------------------------------------------------------------------------*/
FoamFile
{
    version     2.0;
    format      ascii;
    class       volVectorField;
    location    "9";
    object      U.water;
}
// * * * * * * * * * * * * * * * * * * * * * * * * * * * * * * * * * * * * * //

dimensions      [0 1 -1 0 0 0 0];

internalField   nonuniform List<vector> 
100
(
(3.18716e-05 0 0)
(7.47791e-05 0 0)
(0.000111461 0 0)
(0.000143813 0 0)
(0.000177027 0 0)
(0.00019722 0 0)
(0.000200852 0 0)
(0.000214995 0 0)
(0.000240827 0 0)
(0.000269176 0 0)
(0.000307057 0 0)
(0.000336167 0 0)
(0.000360317 0 0)
(0.000380212 0 0)
(0.000408339 0 0)
(0.000438139 0 0)
(0.000461608 0 0)
(0.000488724 0 0)
(0.000516778 0 0)
(0.000543002 0 0)
(0.000562927 0 0)
(0.000589989 0 0)
(0.000623286 0 0)
(0.000646026 0 0)
(0.000667037 0 0)
(0.000696314 0 0)
(0.000720886 0 0)
(0.000734795 0 0)
(0.000742315 0 0)
(0.000746043 0 0)
(0.00075176 0 0)
(0.000769541 0 0)
(0.00079815 0 0)
(0.000814492 0 0)
(0.000831185 0 0)
(0.000858937 0 0)
(0.00088356 0 0)
(0.000902791 0 0)
(0.000926765 0 0)
(0.000955391 0 0)
(0.000982277 0 0)
(0.00100002 0 0)
(0.00101488 0 0)
(0.00102901 0 0)
(0.00104282 0 0)
(0.00105972 0 0)
(0.00107943 0 0)
(0.00110107 0 0)
(0.00112086 0 0)
(0.00114005 0 0)
(0.00115871 0 0)
(0.00117427 0 0)
(0.00118623 0 0)
(0.00119809 0 0)
(0.00121761 0 0)
(0.00124042 0 0)
(0.00126308 0 0)
(0.00128344 0 0)
(0.00130026 0 0)
(0.00132116 0 0)
(0.00134119 0 0)
(0.00135761 0 0)
(0.00137342 0 0)
(0.00138915 0 0)
(0.00141032 0 0)
(0.0014335 0 0)
(0.00145599 0 0)
(0.0014765 0 0)
(0.00149384 0 0)
(0.00150981 0 0)
(0.00152512 0 0)
(0.00153889 0 0)
(0.00155679 0 0)
(0.00157741 0 0)
(0.00159797 0 0)
(0.0016178 0 0)
(0.0016404 0 0)
(0.00166088 0 0)
(0.00167478 0 0)
(0.00168984 0 0)
(0.00170632 0 0)
(0.00172648 0 0)
(0.00174688 0 0)
(0.00176437 0 0)
(0.00178135 0 0)
(0.00180105 0 0)
(0.00181877 0 0)
(0.00183336 0 0)
(0.00184726 0 0)
(0.0018617 0 0)
(0.00187648 0 0)
(0.00189541 0 0)
(0.00191457 0 0)
(0.00193345 0 0)
(0.00195136 0 0)
(0.0019606 0 0)
(0.00197242 0 0)
(0.00198642 0 0)
(0.0020038 0 0)
(0.00202448 0 0)
)
;

boundaryField
{
    inlet
    {
        type            fixedValue;
        value           uniform (0 0 0);
    }
    outlet
    {
        type            zeroGradient;
    }
    yzfaces
    {
        type            empty;
    }
}


// ************************************************************************* //
