/*--------------------------------*- C++ -*----------------------------------*\
| =========                 |                                                 |
| \\      /  F ield         | foam-extend: Open Source CFD                    |
|  \\    /   O peration     | Version:     5.0                                |
|   \\  /    A nd           | Web:         http://www.foam-extend.org         |
|    \\/     M anipulation  |                                                 |
\*---------------------------------------------------------------------------*/
FoamFile
{
    version     2.0;
    format      ascii;
    class       volScalarField;
    location    "3";
    object      alpha.gas;
}
// * * * * * * * * * * * * * * * * * * * * * * * * * * * * * * * * * * * * * //

dimensions      [0 0 0 0 0 0 0];

internalField   nonuniform List<scalar> 
100
(
0.145766
0.127952
0.116967
0.10901
0.102815
0.0977099
0.0931825
0.0891138
0.0860552
0.0833832
0.0806596
0.0780513
0.0759548
0.0739124
0.0717053
0.0695891
0.0675117
0.0656382
0.0637702
0.0618308
0.0598348
0.057396
0.0551768
0.0523693
0.0486844
0.0438136
0.0356436
0.0195682
0.0225666
0.0237467
0.0245265
0.0251077
0.0255387
0.0258353
0.0260027
0.0260937
0.0260983
0.026044
0.0259445
0.02579
0.0255784
0.025313
0.0249725
0.0245332
0.0239714
0.0232807
0.02244
0.021443
0.0202825
0.0189685
0.0175367
0.0160705
0.0146536
0.013388
0.0123396
0.011542
0.0109832
0.0106062
0.0103683
0.0102212
0.0101312
0.0100771
0.0100451
0.0100266
0.010016
0.0100092
0.010005
0.0100006
0.00999917
0.0099971
0.009998
0.00999562
0.00999611
0.00999792
0.0099994
0.0100011
0.0100007
0.00999948
0.0100008
0.0100036
0.0100011
0.0100016
0.0100019
0.0100019
0.0100018
0.0100019
0.0100033
0.0100032
0.0100016
0.0100002
0.0100006
0.0100002
0.00999922
0.0100002
0.0100008
0.0100003
0.0100019
0.010001
0.0099985
0.00999844
)
;

boundaryField
{
    inlet
    {
        type            fixedValue;
        value           uniform 0.2;
    }
    outlet
    {
        type            zeroGradient;
    }
    yzfaces
    {
        type            empty;
    }
}


// ************************************************************************* //
