/*--------------------------------*- C++ -*----------------------------------*\
| =========                 |                                                 |
| \\      /  F ield         | foam-extend: Open Source CFD                    |
|  \\    /   O peration     | Version:     5.0                                |
|   \\  /    A nd           | Web:         http://www.foam-extend.org         |
|    \\/     M anipulation  |                                                 |
\*---------------------------------------------------------------------------*/
FoamFile
{
    version     2.0;
    format      ascii;
    class       surfaceScalarField;
    location    "3";
    object      phi;
}
// * * * * * * * * * * * * * * * * * * * * * * * * * * * * * * * * * * * * * //

dimensions      [0 3 -1 0 0 0 0];

internalField   nonuniform List<scalar> 
99
(
1.22141e-06
1.22125e-06
1.22007e-06
1.21777e-06
1.21213e-06
1.21181e-06
1.20993e-06
1.21097e-06
1.21817e-06
1.21765e-06
1.2231e-06
1.23045e-06
1.22924e-06
1.22914e-06
1.23182e-06
1.23142e-06
1.23925e-06
1.24143e-06
1.24026e-06
1.24075e-06
1.242e-06
1.24496e-06
1.24806e-06
1.25253e-06
1.25415e-06
1.25114e-06
1.25179e-06
1.24616e-06
1.24899e-06
1.24867e-06
1.24988e-06
1.24982e-06
1.24901e-06
1.24783e-06
1.24826e-06
1.24694e-06
1.24737e-06
1.24744e-06
1.24697e-06
1.24597e-06
1.2458e-06
1.24621e-06
1.24443e-06
1.24369e-06
1.24473e-06
1.24497e-06
1.24613e-06
1.24595e-06
1.24502e-06
1.24555e-06
1.24691e-06
1.24776e-06
1.24887e-06
1.24681e-06
1.24458e-06
1.24553e-06
1.24296e-06
1.24089e-06
1.24116e-06
1.24115e-06
1.24084e-06
1.24133e-06
1.24078e-06
1.23925e-06
1.24002e-06
1.24002e-06
1.2394e-06
1.23887e-06
1.23945e-06
1.23868e-06
1.23881e-06
1.23815e-06
1.2374e-06
1.23724e-06
1.23702e-06
1.23878e-06
1.23769e-06
1.23839e-06
1.2372e-06
1.23831e-06
1.23981e-06
1.24011e-06
1.24006e-06
1.23922e-06
1.23896e-06
1.23922e-06
1.23975e-06
1.23991e-06
1.24012e-06
1.2424e-06
1.2442e-06
1.24382e-06
1.24342e-06
1.24114e-06
1.24043e-06
1.24169e-06
1.24092e-06
1.24302e-06
1.24269e-06
)
;

boundaryField
{
    inlet
    {
        type            calculated;
        value           uniform -1.225e-06;
    }
    outlet
    {
        type            calculated;
        value           uniform 1.24257e-06;
    }
    yzfaces
    {
        type            empty;
    }
}


// ************************************************************************* //
