/*--------------------------------*- C++ -*----------------------------------*\
| =========                 |                                                 |
| \\      /  F ield         | foam-extend: Open Source CFD                    |
|  \\    /   O peration     | Version:     5.0                                |
|   \\  /    A nd           | Web:         http://www.foam-extend.org         |
|    \\/     M anipulation  |                                                 |
\*---------------------------------------------------------------------------*/
FoamFile
{
    version     2.0;
    format      ascii;
    class       surfaceScalarField;
    location    "3";
    object      phi.water;
}
// * * * * * * * * * * * * * * * * * * * * * * * * * * * * * * * * * * * * * //

dimensions      [0 3 -1 0 0 0 0];

internalField   nonuniform List<scalar> 
99
(
1.50854e-07
2.79625e-07
3.92597e-07
4.9577e-07
5.90803e-07
6.83746e-07
7.80307e-07
8.77576e-07
9.61291e-07
1.03588e-06
1.12562e-06
1.22163e-06
1.29648e-06
1.37413e-06
1.47103e-06
1.56392e-06
1.67221e-06
1.76526e-06
1.85841e-06
1.96746e-06
2.09202e-06
2.23899e-06
2.40393e-06
2.61058e-06
2.88389e-06
3.27256e-06
3.96767e-06
5.72123e-06
5.50748e-06
5.38547e-06
5.31441e-06
5.25645e-06
5.20994e-06
5.17262e-06
5.1551e-06
5.1392e-06
5.13957e-06
5.14601e-06
5.15432e-06
5.16348e-06
5.18052e-06
5.20415e-06
5.22817e-06
5.26671e-06
5.31923e-06
5.38212e-06
5.45905e-06
5.54027e-06
5.6339e-06
5.73902e-06
5.8473e-06
5.95005e-06
6.04343e-06
6.10486e-06
6.14646e-06
6.1881e-06
6.19669e-06
6.2012e-06
6.21178e-06
6.21548e-06
6.21564e-06
6.22148e-06
6.2239e-06
6.21776e-06
6.22282e-06
6.22305e-06
6.21981e-06
6.21855e-06
6.22159e-06
6.21717e-06
6.21837e-06
6.21784e-06
6.21615e-06
6.21474e-06
6.21404e-06
6.22044e-06
6.21297e-06
6.21678e-06
6.21088e-06
6.21596e-06
6.22167e-06
6.22275e-06
6.22217e-06
6.21685e-06
6.21787e-06
6.22103e-06
6.22224e-06
6.22397e-06
6.22493e-06
6.23347e-06
6.24372e-06
6.24287e-06
6.23758e-06
6.22435e-06
6.21849e-06
6.22557e-06
6.22396e-06
6.23318e-06
6.23275e-06
)
;

boundaryField
{
    inlet
    {
        type            fixedValue;
        value           uniform 0;
    }
    outlet
    {
        type            calculated;
        value           uniform 6.23383e-06;
    }
    yzfaces
    {
        type            empty;
    }
}


// ************************************************************************* //
