/*--------------------------------*- C++ -*----------------------------------*\
| =========                 |                                                 |
| \\      /  F ield         | foam-extend: Open Source CFD                    |
|  \\    /   O peration     | Version:     5.0                                |
|   \\  /    A nd           | Web:         http://www.foam-extend.org         |
|    \\/     M anipulation  |                                                 |
\*---------------------------------------------------------------------------*/
FoamFile
{
    version     2.0;
    format      ascii;
    class       volVectorField;
    location    "3";
    object      U.gas;
}
// * * * * * * * * * * * * * * * * * * * * * * * * * * * * * * * * * * * * * //

dimensions      [0 1 -1 0 0 0 0];

internalField   nonuniform List<vector> 
100
(
(0.00682079 0 0)
(0.00769281 0 0)
(0.00832528 0 0)
(0.00882711 0 0)
(0.00922982 0 0)
(0.00958444 0 0)
(0.00992869 0 0)
(0.0102549 0 0)
(0.0105337 0 0)
(0.0107866 0 0)
(0.0110497 0 0)
(0.0113396 0 0)
(0.0115428 0 0)
(0.0117188 0 0)
(0.0119363 0 0)
(0.012134 0 0)
(0.012353 0 0)
(0.0125578 0 0)
(0.0127157 0 0)
(0.0128776 0 0)
(0.0130574 0 0)
(0.0132595 0 0)
(0.0134696 0 0)
(0.0137161 0 0)
(0.0140084 0 0)
(0.0143166 0 0)
(0.0147793 0 0)
(0.0160964 0 0)
(0.00914482 0 0)
(0.00995548 0 0)
(0.010355 0 0)
(0.010609 0 0)
(0.0107855 0 0)
(0.0109087 0 0)
(0.0109977 0 0)
(0.0110445 0 0)
(0.0110729 0 0)
(0.0110817 0 0)
(0.0110677 0 0)
(0.011037 0 0)
(0.0109922 0 0)
(0.0109368 0 0)
(0.0108613 0 0)
(0.0107583 0 0)
(0.0106357 0 0)
(0.0104763 0 0)
(0.0102718 0 0)
(0.0100061 0 0)
(0.00966299 0 0)
(0.00924556 0 0)
(0.0087533 0 0)
(0.00818239 0 0)
(0.00756377 0 0)
(0.00693036 0 0)
(0.00633678 0 0)
(0.00584002 0 0)
(0.005457 0 0)
(0.00518146 0 0)
(0.00499823 0 0)
(0.00488456 0 0)
(0.00481382 0 0)
(0.00477172 0 0)
(0.0047461 0 0)
(0.00472718 0 0)
(0.00471684 0 0)
(0.0047132 0 0)
(0.00470885 0 0)
(0.00470473 0 0)
(0.00470212 0 0)
(0.00470128 0 0)
(0.00469956 0 0)
(0.00469887 0 0)
(0.00469548 0 0)
(0.00469445 0 0)
(0.00469412 0 0)
(0.00469746 0 0)
(0.00470005 0 0)
(0.00469901 0 0)
(0.00469732 0 0)
(0.00469791 0 0)
(0.00470435 0 0)
(0.00470605 0 0)
(0.00470622 0 0)
(0.00470525 0 0)
(0.00470335 0 0)
(0.00470283 0 0)
(0.00470464 0 0)
(0.00470654 0 0)
(0.00470704 0 0)
(0.00471114 0 0)
(0.00471774 0 0)
(0.00472108 0 0)
(0.00472016 0 0)
(0.00471401 0 0)
(0.00470846 0 0)
(0.00471011 0 0)
(0.00471085 0 0)
(0.00471415 0 0)
(0.00471668 0 0)
(0.0047154 0 0)
)
;

boundaryField
{
    inlet
    {
        type            fixedValue;
        value           uniform (0.005 0 0);
    }
    outlet
    {
        type            zeroGradient;
    }
    yzfaces
    {
        type            empty;
    }
}


// ************************************************************************* //
