/*--------------------------------*- C++ -*----------------------------------*\
| =========                 |                                                 |
| \\      /  F ield         | foam-extend: Open Source CFD                    |
|  \\    /   O peration     | Version:     5.0                                |
|   \\  /    A nd           | Web:         http://www.foam-extend.org         |
|    \\/     M anipulation  |                                                 |
\*---------------------------------------------------------------------------*/
FoamFile
{
    version     2.0;
    format      ascii;
    class       volVectorField;
    location    "3";
    object      U.water;
}
// * * * * * * * * * * * * * * * * * * * * * * * * * * * * * * * * * * * * * //

dimensions      [0 1 -1 0 0 0 0];

internalField   nonuniform List<vector> 
100
(
(7.16155e-05 0 0)
(0.000176154 0 0)
(0.000273097 0 0)
(0.000360417 0 0)
(0.000440766 0 0)
(0.000516842 0 0)
(0.000592432 0 0)
(0.000669736 0 0)
(0.000745993 0 0)
(0.000812835 0 0)
(0.000879512 0 0)
(0.000954304 0 0)
(0.00102565 0 0)
(0.00108861 0 0)
(0.0011581 0 0)
(0.00123462 0 0)
(0.00131681 0 0)
(0.00140104 0 0)
(0.00147904 0 0)
(0.00156138 0 0)
(0.00165578 0 0)
(0.00176629 0 0)
(0.00189438 0 0)
(0.00204799 0 0)
(0.00224792 0 0)
(0.00252709 0 0)
(0.00299225 0 0)
(0.00385443 0 0)
(0.0045767 0 0)
(0.00444272 0 0)
(0.00436444 0 0)
(0.00431075 0 0)
(0.00426734 0 0)
(0.0042333 0 0)
(0.00421182 0 0)
(0.00419915 0 0)
(0.00419261 0 0)
(0.00419461 0 0)
(0.00419968 0 0)
(0.00420688 0 0)
(0.00421902 0 0)
(0.00423789 0 0)
(0.00425849 0 0)
(0.00428355 0 0)
(0.0043216 0 0)
(0.00437025 0 0)
(0.00442824 0 0)
(0.004495 0 0)
(0.00456678 0 0)
(0.00464661 0 0)
(0.00473423 0 0)
(0.00482105 0 0)
(0.00489999 0 0)
(0.00496142 0 0)
(0.00500212 0 0)
(0.00503542 0 0)
(0.00505655 0 0)
(0.00506277 0 0)
(0.00506908 0 0)
(0.00507572 0 0)
(0.00507872 0 0)
(0.00508125 0 0)
(0.00508241 0 0)
(0.00507893 0 0)
(0.00507783 0 0)
(0.00507964 0 0)
(0.00507852 0 0)
(0.00507626 0 0)
(0.0050765 0 0)
(0.00507615 0 0)
(0.00507487 0 0)
(0.00507377 0 0)
(0.00507092 0 0)
(0.00506901 0 0)
(0.00506821 0 0)
(0.00507136 0 0)
(0.00507266 0 0)
(0.00507186 0 0)
(0.0050709 0 0)
(0.00507072 0 0)
(0.00507599 0 0)
(0.00507975 0 0)
(0.00508027 0 0)
(0.00507841 0 0)
(0.00507615 0 0)
(0.00507618 0 0)
(0.00507777 0 0)
(0.00507916 0 0)
(0.00507994 0 0)
(0.00508507 0 0)
(0.00509348 0 0)
(0.00509636 0 0)
(0.00509474 0 0)
(0.0050893 0 0)
(0.00508316 0 0)
(0.00508426 0 0)
(0.00508529 0 0)
(0.00508797 0 0)
(0.00509162 0 0)
(0.00509072 0 0)
)
;

boundaryField
{
    inlet
    {
        type            fixedValue;
        value           uniform (0 0 0);
    }
    outlet
    {
        type            zeroGradient;
    }
    yzfaces
    {
        type            empty;
    }
}


// ************************************************************************* //
