/*--------------------------------*- C++ -*----------------------------------*\
| =========                 |                                                 |
| \\      /  F ield         | foam-extend: Open Source CFD                    |
|  \\    /   O peration     | Version:     5.0                                |
|   \\  /    A nd           | Web:         http://www.foam-extend.org         |
|    \\/     M anipulation  |                                                 |
\*---------------------------------------------------------------------------*/
FoamFile
{
    version     2.0;
    format      ascii;
    class       volScalarField;
    location    "1";
    object      alpha.gas;
}
// * * * * * * * * * * * * * * * * * * * * * * * * * * * * * * * * * * * * * //

dimensions      [0 0 0 0 0 0 0];

internalField   nonuniform List<scalar> 
100
(
0.11809
0.0978277
0.0869118
0.0782016
0.0709395
0.0644279
0.0572948
0.0493171
0.0379059
0.0141321
0.0287082
0.0279417
0.0277967
0.0276039
0.027104
0.02619
0.0248469
0.0230983
0.0210512
0.0188012
0.0165573
0.0145297
0.0128954
0.0117202
0.0109706
0.0105262
0.0102772
0.0101435
0.0100734
0.0100366
0.0100193
0.0100076
0.0100032
0.0100004
0.00999751
0.00999624
0.00999644
0.0099956
0.00999627
0.00999735
0.00999888
0.00999809
0.0099991
0.00999937
0.00999985
0.00999904
0.00999991
0.0100007
0.00999914
0.00999916
0.0100004
0.0100004
0.00999949
0.0100023
0.0100018
0.010001
0.0100013
0.0100007
0.0100018
0.0100003
0.0100008
0.0100013
0.010002
0.0100006
0.00999979
0.00999921
0.00999905
0.00999932
0.00999912
0.0100002
0.0100004
0.0099989
0.00999828
0.00999889
0.00999892
0.01
0.0100015
0.0100012
0.0100009
0.0100009
0.00999974
0.00999968
0.0099993
0.0099986
0.010001
0.0100019
0.0100036
0.0100035
0.0100026
0.0100022
0.0100026
0.0100027
0.010003
0.0100014
0.0100018
0.0100014
0.0100019
0.0100034
0.0100024
0.0100042
)
;

boundaryField
{
    inlet
    {
        type            fixedValue;
        value           uniform 0.2;
    }
    outlet
    {
        type            zeroGradient;
    }
    yzfaces
    {
        type            empty;
    }
}


// ************************************************************************* //
