/*--------------------------------*- C++ -*----------------------------------*\
| =========                 |                                                 |
| \\      /  F ield         | foam-extend: Open Source CFD                    |
|  \\    /   O peration     | Version:     5.0                                |
|   \\  /    A nd           | Web:         http://www.foam-extend.org         |
|    \\/     M anipulation  |                                                 |
\*---------------------------------------------------------------------------*/
FoamFile
{
    version     2.0;
    format      ascii;
    class       volScalarField;
    location    "1";
    object      Cl.water;
}
// * * * * * * * * * * * * * * * * * * * * * * * * * * * * * * * * * * * * * //

dimensions      [0 0 0 0 0 0 0];

internalField   nonuniform List<scalar> 
100
(
0.0167429
0.0207307
0.0230954
0.0249132
0.0263757
0.0277593
0.0291449
0.0307913
0.0331596
0.0380191
0.0359078
0.0361521
0.0362215
0.0362687
0.0364013
0.036606
0.0369074
0.037219
0.0376723
0.0381357
0.0385993
0.0390342
0.0394004
0.0396486
0.0397961
0.039882
0.0399588
0.0399543
0.0399549
0.0399657
0.0399442
0.0399672
0.0399806
0.0399838
0.0400189
0.0399983
0.0399964
0.0400058
0.0399741
0.0399561
0.0399666
0.0400097
0.0400439
0.0400362
0.0400102
0.0400234
0.0400029
0.0400096
0.0400232
0.0400164
0.040016
0.0400068
0.0399996
0.0400023
0.0400064
0.0400093
0.0400074
0.0400163
0.0400098
0.0400193
0.0400365
0.0400207
0.0400225
0.0400196
0.040023
0.040032
0.0400106
0.0400225
0.0400293
0.0400366
0.0400221
0.040036
0.0400155
0.0400331
0.0400128
0.0400138
0.0400142
0.040008
0.039998
0.0399973
0.04
0.0399903
0.03999
0.0399964
0.0399769
0.0399875
0.0399895
0.0400081
0.0400219
0.0400157
0.0400366
0.0400106
0.039993
0.0399766
0.0399695
0.0399879
0.0399856
0.0400081
0.0399994
0.0399897
)
;

boundaryField
{
    inlet
    {
        type            fixedValue;
        value           uniform 0;
    }
    outlet
    {
        type            zeroGradient;
    }
    yzfaces
    {
        type            empty;
    }
}


// ************************************************************************* //
