/*--------------------------------*- C++ -*----------------------------------*\
| =========                 |                                                 |
| \\      /  F ield         | foam-extend: Open Source CFD                    |
|  \\    /   O peration     | Version:     5.0                                |
|   \\  /    A nd           | Web:         http://www.foam-extend.org         |
|    \\/     M anipulation  |                                                 |
\*---------------------------------------------------------------------------*/
FoamFile
{
    version     2.0;
    format      ascii;
    class       volScalarField;
    location    "1";
    object      CO2.water;
}
// * * * * * * * * * * * * * * * * * * * * * * * * * * * * * * * * * * * * * //

dimensions      [0 0 0 0 0 0 0];

internalField   nonuniform List<scalar> 
100
(
0.00215133
0.00268351
0.00297021
0.00319898
0.00338972
0.00356074
0.00374809
0.00395762
0.00425733
0.00488173
0.000745616
0.000243794
7.37878e-05
2.14923e-05
6.22714e-06
1.81643e-06
5.32581e-07
1.55149e-07
4.49416e-08
1.31289e-08
4.08536e-09
1.47593e-09
6.56587e-10
3.53637e-10
2.12013e-10
1.3145e-10
8.00133e-11
4.6588e-11
2.59263e-11
1.38935e-11
7.22108e-12
3.68381e-12
1.85569e-12
9.28046e-13
4.6188e-13
2.28542e-13
1.12515e-13
5.50875e-14
2.67527e-14
1.28991e-14
6.17395e-15
2.93166e-15
1.38136e-15
6.45044e-16
2.99016e-16
1.37803e-16
6.31126e-17
2.87573e-17
1.3042e-17
5.88979e-18
2.65099e-18
1.19128e-18
5.34478e-19
2.39963e-19
1.07767e-19
4.84876e-20
2.18432e-20
9.86688e-21
4.46077e-21
2.02716e-21
9.23728e-22
4.21619e-22
1.92994e-22
8.85817e-23
4.07372e-23
1.87591e-23
8.64074e-24
3.98069e-24
1.83441e-24
8.44024e-25
3.87218e-25
1.77219e-25
8.07959e-26
3.66914e-26
1.65957e-26
7.48295e-27
3.36099e-27
1.50117e-27
6.65702e-28
2.92711e-28
1.27355e-28
5.47175e-29
2.3204e-29
9.72032e-30
4.0223e-30
1.64459e-30
6.6539e-31
2.66612e-31
1.05924e-31
4.16429e-32
1.62416e-32
6.27096e-33
2.40438e-33
9.14203e-34
3.44871e-34
1.29243e-34
4.79859e-35
1.77007e-35
6.46828e-36
1.86062e-36
)
;

boundaryField
{
    inlet
    {
        type            fixedValue;
        value           uniform 0;
    }
    outlet
    {
        type            zeroGradient;
    }
    yzfaces
    {
        type            empty;
    }
}


// ************************************************************************* //
