/*--------------------------------*- C++ -*----------------------------------*\
| =========                 |                                                 |
| \\      /  F ield         | foam-extend: Open Source CFD                    |
|  \\    /   O peration     | Version:     5.0                                |
|   \\  /    A nd           | Web:         http://www.foam-extend.org         |
|    \\/     M anipulation  |                                                 |
\*---------------------------------------------------------------------------*/
FoamFile
{
    version     2.0;
    format      ascii;
    class       volScalarField;
    location    "1";
    object      H2O.gas;
}
// * * * * * * * * * * * * * * * * * * * * * * * * * * * * * * * * * * * * * //

dimensions      [0 0 0 0 0 0 0];

internalField   nonuniform List<scalar> 
100
(
0.000229976
0.000190517
0.000169258
0.000152295
0.000138153
0.000125471
0.00011158
9.60436e-05
7.38206e-05
2.75219e-05
0.00305769
0.00518695
0.00746152
0.00977186
0.0120098
0.01399
0.0155525
0.0164737
0.0167382
0.0162662
0.0152398
0.0139339
0.0126686
0.0116481
0.0109467
0.0105149
0.0102786
0.0101404
0.0100678
0.0100314
0.0100104
0.0100029
0.0100018
0.00999913
0.0100059
0.01
0.00999824
0.00999873
0.0099918
0.00998661
0.00999257
0.0100001
0.0100088
0.0100058
0.0100013
0.0100029
0.0100004
0.0100008
0.0100036
0.010002
0.0100032
0.00999997
0.00999772
0.00999981
0.00999918
0.0100007
0.009998
0.0100014
0.0100016
0.0100035
0.0100077
0.0100071
0.010009
0.0100092
0.0100085
0.0100101
0.0100068
0.0100065
0.0100073
0.0100061
0.0100037
0.0100047
0.0100015
0.0100066
0.0100025
0.0100024
0.0100063
0.0100071
0.0100048
0.0100049
0.0100048
0.0100019
0.00999978
0.0100018
0.0100023
0.0100022
0.0100001
0.0100035
0.0100076
0.010007
0.0100102
0.010005
0.00999994
0.00999478
0.00999365
0.00999863
0.00999915
0.010007
0.0100058
0.0100021
)
;

boundaryField
{
    inlet
    {
        type            fixedValue;
        value           uniform 0;
    }
    outlet
    {
        type            zeroGradient;
    }
    yzfaces
    {
        type            empty;
    }
}


// ************************************************************************* //
