/*--------------------------------*- C++ -*----------------------------------*\
| =========                 |                                                 |
| \\      /  F ield         | foam-extend: Open Source CFD                    |
|  \\    /   O peration     | Version:     5.0                                |
|   \\  /    A nd           | Web:         http://www.foam-extend.org         |
|    \\/     M anipulation  |                                                 |
\*---------------------------------------------------------------------------*/
FoamFile
{
    version     2.0;
    format      ascii;
    class       volScalarField;
    location    "1";
    object      Na.water;
}
// * * * * * * * * * * * * * * * * * * * * * * * * * * * * * * * * * * * * * //

dimensions      [0 0 0 0 0 0 0];

internalField   nonuniform List<scalar> 
100
(
0.0167371
0.02072
0.0230925
0.0249191
0.0263912
0.0277713
0.0291596
0.0308051
0.033181
0.038027
0.035907
0.0361449
0.0362182
0.0362716
0.0364083
0.0366046
0.0369084
0.0372202
0.0376822
0.0381503
0.0386259
0.0390567
0.0394251
0.039681
0.0397971
0.0398762
0.0399523
0.039959
0.0399593
0.0399677
0.0399596
0.0399743
0.039984
0.0399844
0.0400252
0.0400074
0.0400193
0.0400121
0.0399869
0.0399569
0.039982
0.0400075
0.0400358
0.0400166
0.0400059
0.0400136
0.0400149
0.0400104
0.0400231
0.0400143
0.040013
0.0399964
0.03999
0.0399808
0.0399761
0.0399866
0.0399748
0.0400112
0.0400076
0.0400147
0.04003
0.0400313
0.0400439
0.040037
0.0400272
0.040039
0.0400339
0.040027
0.0400406
0.0400327
0.0400255
0.0400305
0.0400112
0.0400398
0.0400218
0.0400074
0.0400103
0.0400118
0.0400129
0.0400306
0.040037
0.040032
0.0400309
0.0400339
0.040027
0.0400182
0.0400123
0.0400285
0.0400365
0.0400244
0.0400326
0.0400122
0.0399886
0.0399763
0.0399751
0.0400033
0.0400019
0.0400224
0.0400147
0.0399916
)
;

boundaryField
{
    inlet
    {
        type            fixedValue;
        value           uniform 0;
    }
    outlet
    {
        type            zeroGradient;
    }
    yzfaces
    {
        type            empty;
    }
}


// ************************************************************************* //
