/*--------------------------------*- C++ -*----------------------------------*\
| =========                 |                                                 |
| \\      /  F ield         | foam-extend: Open Source CFD                    |
|  \\    /   O peration     | Version:     5.0                                |
|   \\  /    A nd           | Web:         http://www.foam-extend.org         |
|    \\/     M anipulation  |                                                 |
\*---------------------------------------------------------------------------*/
FoamFile
{
    version     2.0;
    format      ascii;
    class       surfaceScalarField;
    location    "1";
    object      phi;
}
// * * * * * * * * * * * * * * * * * * * * * * * * * * * * * * * * * * * * * //

dimensions      [0 3 -1 0 0 0 0];

internalField   nonuniform List<scalar> 
99
(
1.22362e-06
1.22644e-06
1.22565e-06
1.23135e-06
1.22974e-06
1.23072e-06
1.23017e-06
1.22864e-06
1.22744e-06
1.22664e-06
1.22575e-06
1.22742e-06
1.22556e-06
1.22782e-06
1.22727e-06
1.22825e-06
1.22641e-06
1.227e-06
1.22386e-06
1.22277e-06
1.22391e-06
1.2235e-06
1.22319e-06
1.22454e-06
1.2243e-06
1.22647e-06
1.22626e-06
1.22555e-06
1.22701e-06
1.22605e-06
1.22643e-06
1.22638e-06
1.22686e-06
1.22704e-06
1.22614e-06
1.22625e-06
1.22472e-06
1.22349e-06
1.22386e-06
1.22417e-06
1.22566e-06
1.22547e-06
1.22485e-06
1.22248e-06
1.22223e-06
1.22176e-06
1.22133e-06
1.22304e-06
1.22239e-06
1.2213e-06
1.22224e-06
1.22254e-06
1.22354e-06
1.22323e-06
1.22372e-06
1.22247e-06
1.22258e-06
1.22003e-06
1.22197e-06
1.22279e-06
1.22426e-06
1.22403e-06
1.22463e-06
1.2256e-06
1.22703e-06
1.22704e-06
1.22707e-06
1.22675e-06
1.22753e-06
1.2278e-06
1.22691e-06
1.22711e-06
1.22692e-06
1.2282e-06
1.22791e-06
1.22593e-06
1.2256e-06
1.22608e-06
1.2264e-06
1.22644e-06
1.2257e-06
1.22405e-06
1.22485e-06
1.2252e-06
1.2258e-06
1.22572e-06
1.22684e-06
1.22814e-06
1.22793e-06
1.22888e-06
1.22617e-06
1.22491e-06
1.22666e-06
1.22684e-06
1.22708e-06
1.22821e-06
1.22867e-06
1.22905e-06
1.22906e-06
)
;

boundaryField
{
    inlet
    {
        type            calculated;
        value           uniform -1.225e-06;
    }
    outlet
    {
        type            calculated;
        value           uniform 1.2283e-06;
    }
    yzfaces
    {
        type            empty;
    }
}


// ************************************************************************* //
