/*--------------------------------*- C++ -*----------------------------------*\
| =========                 |                                                 |
| \\      /  F ield         | foam-extend: Open Source CFD                    |
|  \\    /   O peration     | Version:     5.0                                |
|   \\  /    A nd           | Web:         http://www.foam-extend.org         |
|    \\/     M anipulation  |                                                 |
\*---------------------------------------------------------------------------*/
FoamFile
{
    version     2.0;
    format      ascii;
    class       volScalarField;
    location    "1";
    object      S.gas;
}
// * * * * * * * * * * * * * * * * * * * * * * * * * * * * * * * * * * * * * //

dimensions      [0 0 0 0 0 0 0];

internalField   nonuniform List<scalar> 
100
(
0.587979
0.487099
0.432148
0.389009
0.352356
0.319902
0.284349
0.244111
0.186939
0.156208
0.143541
0.139709
0.138983
0.13802
0.13552
0.13095
0.124234
0.115491
0.105256
0.0940059
0.0827863
0.0726487
0.0644768
0.0586012
0.0548528
0.052631
0.0513862
0.0507176
0.0503672
0.0501832
0.0500964
0.050038
0.050016
0.050002
0.0499875
0.0499812
0.0499822
0.049978
0.0499813
0.0499867
0.0499944
0.0499904
0.0499955
0.0499969
0.0499992
0.0499952
0.0499995
0.0500033
0.0499957
0.0499958
0.0500019
0.0500019
0.0499974
0.0500115
0.0500088
0.0500048
0.0500066
0.0500036
0.050009
0.0500015
0.0500038
0.0500067
0.05001
0.0500031
0.049999
0.049996
0.0499952
0.0499966
0.0499956
0.050001
0.050002
0.0499945
0.0499914
0.0499944
0.0499946
0.0500002
0.0500075
0.0500061
0.0500044
0.0500043
0.0499987
0.0499984
0.0499965
0.049993
0.0500048
0.0500093
0.050018
0.0500173
0.0500132
0.050011
0.0500129
0.0500134
0.0500152
0.050007
0.050009
0.050007
0.0500096
0.0500172
0.0500119
0.050021
)
;

boundaryField
{
    inlet
    {
        type            calculated;
        value           uniform 1;
    }
    outlet
    {
        type            calculated;
        value           uniform 0.050021;
    }
    yzfaces
    {
        type            empty;
    }
}


// ************************************************************************* //
