/*--------------------------------*- C++ -*----------------------------------*\
| =========                 |                                                 |
| \\      /  F ield         | foam-extend: Open Source CFD                    |
|  \\    /   O peration     | Version:     5.0                                |
|   \\  /    A nd           | Web:         http://www.foam-extend.org         |
|    \\/     M anipulation  |                                                 |
\*---------------------------------------------------------------------------*/
FoamFile
{
    version     2.0;
    format      ascii;
    class       volVectorField;
    location    "1";
    object      U.gas;
}
// * * * * * * * * * * * * * * * * * * * * * * * * * * * * * * * * * * * * * //

dimensions      [0 1 -1 0 0 0 0];

internalField   nonuniform List<vector> 
100
(
(0.00838377 0 0)
(0.00982178 0 0)
(0.01072 0 0)
(0.011521 0 0)
(0.0122301 0 0)
(0.0128295 0 0)
(0.0135217 0 0)
(0.0142122 0 0)
(0.0151415 0 0)
(0.0137596 0 0)
(0.0123277 0 0)
(0.0116084 0 0)
(0.0113727 0 0)
(0.0113424 0 0)
(0.0113292 0 0)
(0.0112402 0 0)
(0.0110304 0 0)
(0.0106731 0 0)
(0.0101399 0 0)
(0.00943317 0 0)
(0.00858455 0 0)
(0.00766096 0 0)
(0.00676147 0 0)
(0.00600948 0 0)
(0.00545784 0 0)
(0.00510675 0 0)
(0.00490162 0 0)
(0.00478282 0 0)
(0.00472101 0 0)
(0.00468814 0 0)
(0.00467015 0 0)
(0.00466387 0 0)
(0.00465917 0 0)
(0.00465787 0 0)
(0.00465528 0 0)
(0.00465197 0 0)
(0.00464892 0 0)
(0.00464432 0 0)
(0.00464157 0 0)
(0.00464361 0 0)
(0.00464782 0 0)
(0.00465049 0 0)
(0.00464878 0 0)
(0.00464367 0 0)
(0.00463868 0 0)
(0.00463725 0 0)
(0.00463492 0 0)
(0.00463795 0 0)
(0.00464038 0 0)
(0.00463705 0 0)
(0.00463659 0 0)
(0.0046385 0 0)
(0.00464168 0 0)
(0.00464278 0 0)
(0.00464396 0 0)
(0.00464166 0 0)
(0.00463877 0 0)
(0.00463445 0 0)
(0.00463378 0 0)
(0.00463938 0 0)
(0.00464322 0 0)
(0.00464622 0 0)
(0.00464636 0 0)
(0.00464977 0 0)
(0.00465335 0 0)
(0.00465611 0 0)
(0.00465634 0 0)
(0.00465526 0 0)
(0.00465593 0 0)
(0.00465765 0 0)
(0.00465749 0 0)
(0.00465668 0 0)
(0.00465612 0 0)
(0.00465793 0 0)
(0.00465986 0 0)
(0.00465509 0 0)
(0.004652 0 0)
(0.00465286 0 0)
(0.00465369 0 0)
(0.00465471 0 0)
(0.00465303 0 0)
(0.00464818 0 0)
(0.00464722 0 0)
(0.00464922 0 0)
(0.00465014 0 0)
(0.00465204 0 0)
(0.00465486 0 0)
(0.00466087 0 0)
(0.00466266 0 0)
(0.0046629 0 0)
(0.00465932 0 0)
(0.0046522 0 0)
(0.00465304 0 0)
(0.00465647 0 0)
(0.00465673 0 0)
(0.00465933 0 0)
(0.0046614 0 0)
(0.00466376 0 0)
(0.00466619 0 0)
(0.00466468 0 0)
)
;

boundaryField
{
    inlet
    {
        type            fixedValue;
        value           uniform (0.005 0 0);
    }
    outlet
    {
        type            zeroGradient;
    }
    yzfaces
    {
        type            empty;
    }
}


// ************************************************************************* //
