/*--------------------------------*- C++ -*----------------------------------*\
| =========                 |                                                 |
| \\      /  F ield         | foam-extend: Open Source CFD                    |
|  \\    /   O peration     | Version:     5.0                                |
|   \\  /    A nd           | Web:         http://www.foam-extend.org         |
|    \\/     M anipulation  |                                                 |
\*---------------------------------------------------------------------------*/
FoamFile
{
    version     2.0;
    format      ascii;
    class       volVectorField;
    location    "1";
    object      U.water;
}
// * * * * * * * * * * * * * * * * * * * * * * * * * * * * * * * * * * * * * //

dimensions      [0 1 -1 0 0 0 0];

internalField   nonuniform List<vector> 
100
(
(0.000164297 0 0)
(0.000421019 0 0)
(0.000654519 0 0)
(0.000871579 0 0)
(0.00110136 0 0)
(0.00134855 0 0)
(0.00164511 0 0)
(0.00204872 0 0)
(0.00268353 0 0)
(0.00338823 0 0)
(0.00377759 0 0)
(0.00393434 0 0)
(0.00397839 0 0)
(0.00399246 0 0)
(0.00401983 0 0)
(0.00407268 0 0)
(0.0041554 0 0)
(0.00426713 0 0)
(0.00439732 0 0)
(0.00453243 0 0)
(0.00466909 0 0)
(0.00478583 0 0)
(0.00487136 0 0)
(0.00493224 0 0)
(0.00497092 0 0)
(0.00499572 0 0)
(0.0050112 0 0)
(0.00501548 0 0)
(0.00502029 0 0)
(0.00502305 0 0)
(0.00502272 0 0)
(0.00502374 0 0)
(0.00502491 0 0)
(0.00502638 0 0)
(0.00502496 0 0)
(0.00502344 0 0)
(0.00502057 0 0)
(0.00501487 0 0)
(0.00501317 0 0)
(0.00501452 0 0)
(0.00501817 0 0)
(0.00502083 0 0)
(0.00501918 0 0)
(0.00501301 0 0)
(0.00500764 0 0)
(0.00500617 0 0)
(0.00500437 0 0)
(0.00500695 0 0)
(0.00500911 0 0)
(0.00500554 0 0)
(0.00500525 0 0)
(0.00500782 0 0)
(0.00501044 0 0)
(0.00501188 0 0)
(0.00501219 0 0)
(0.00501066 0 0)
(0.00500837 0 0)
(0.00500336 0 0)
(0.00500208 0 0)
(0.00500771 0 0)
(0.00501243 0 0)
(0.00501495 0 0)
(0.00501573 0 0)
(0.00501891 0 0)
(0.00502388 0 0)
(0.00502683 0 0)
(0.0050269 0 0)
(0.00502634 0 0)
(0.00502731 0 0)
(0.00502948 0 0)
(0.00502815 0 0)
(0.0050267 0 0)
(0.00502674 0 0)
(0.00502901 0 0)
(0.00503103 0 0)
(0.0050264 0 0)
(0.00502161 0 0)
(0.0050219 0 0)
(0.00502357 0 0)
(0.00502429 0 0)
(0.00502286 0 0)
(0.00501798 0 0)
(0.0050162 0 0)
(0.00501856 0 0)
(0.00502056 0 0)
(0.00502158 0 0)
(0.00502367 0 0)
(0.00502854 0 0)
(0.0050308 0 0)
(0.00503238 0 0)
(0.00502878 0 0)
(0.00502063 0 0)
(0.00502164 0 0)
(0.0050256 0 0)
(0.00502649 0 0)
(0.0050293 0 0)
(0.00503262 0 0)
(0.00503429 0 0)
(0.00503499 0 0)
(0.00503346 0 0)
)
;

boundaryField
{
    inlet
    {
        type            fixedValue;
        value           uniform (0 0 0);
    }
    outlet
    {
        type            zeroGradient;
    }
    yzfaces
    {
        type            empty;
    }
}


// ************************************************************************* //
