/*--------------------------------*- C++ -*----------------------------------*\
| =========                 |                                                 |
| \\      /  F ield         | foam-extend: Open Source CFD                    |
|  \\    /   O peration     | Version:     5.0                                |
|   \\  /    A nd           | Web:         http://www.foam-extend.org         |
|    \\/     M anipulation  |                                                 |
\*---------------------------------------------------------------------------*/
FoamFile
{
    version     2.0;
    format      ascii;
    class       volScalarField;
    location    "1";
    object      Cl.water;
}
// * * * * * * * * * * * * * * * * * * * * * * * * * * * * * * * * * * * * * //

dimensions      [0 0 0 0 0 0 0];

internalField   nonuniform List<scalar> 
100
(
0.0172561
0.0209817
0.0232022
0.0248492
0.026059
0.0270696
0.0280163
0.0287363
0.0295009
0.030082
0.0307159
0.0312686
0.0318728
0.0324303
0.0329652
0.0345214
0.0351488
0.035742
0.0363831
0.0370223
0.0376477
0.0382301
0.0387104
0.0391755
0.039501
0.0397197
0.0398911
0.0399737
0.0400261
0.0400309
0.0400473
0.0400358
0.0399901
0.039997
0.0399957
0.0399997
0.0400308
0.0399965
0.039975
0.0400018
0.0399779
0.0399782
0.0399813
0.0399566
0.0400005
0.0399621
0.0400068
0.0400073
0.0399858
0.0400066
0.0399782
0.0399801
0.039996
0.0399966
0.0400182
0.0399918
0.0400262
0.0400228
0.0400011
0.0399687
0.0399965
0.039987
0.0399775
0.040011
0.0400082
0.0399932
0.0399802
0.0399527
0.0399648
0.0399973
0.040001
0.04001
0.0399983
0.0399949
0.0400082
0.0400463
0.0400006
0.0399954
0.040013
0.0400082
0.0399989
0.0399944
0.0400121
0.0400126
0.0400072
0.0399666
0.0399993
0.0399755
0.0400004
0.0400029
0.0399871
0.0400167
0.0399928
0.0399988
0.0400343
0.0400348
0.0400518
0.0399821
0.0400323
0.0400332
)
;

boundaryField
{
    inlet
    {
        type            fixedValue;
        value           uniform 0;
    }
    outlet
    {
        type            zeroGradient;
    }
    yzfaces
    {
        type            empty;
    }
}


// ************************************************************************* //
