/*--------------------------------*- C++ -*----------------------------------*\
| =========                 |                                                 |
| \\      /  F ield         | foam-extend: Open Source CFD                    |
|  \\    /   O peration     | Version:     5.0                                |
|   \\  /    A nd           | Web:         http://www.foam-extend.org         |
|    \\/     M anipulation  |                                                 |
\*---------------------------------------------------------------------------*/
FoamFile
{
    version     2.0;
    format      ascii;
    class       volScalarField;
    location    "1";
    object      CO2.water;
}
// * * * * * * * * * * * * * * * * * * * * * * * * * * * * * * * * * * * * * //

dimensions      [0 0 0 0 0 0 0];

internalField   nonuniform List<scalar> 
100
(
0.00221694
0.00269794
0.00298875
0.00319425
0.00335404
0.00348171
0.00359624
0.00369576
0.00378954
0.00387191
0.00394994
0.00402301
0.00409771
0.00416879
0.00424001
0.000156324
3.37707e-05
7.97517e-06
2.05173e-06
5.50428e-07
1.37556e-07
3.02672e-08
5.60553e-09
1.5482e-09
7.72387e-10
4.50842e-10
2.83572e-10
1.80949e-10
1.14116e-10
7.03075e-11
4.21496e-11
2.49998e-11
1.46314e-11
8.07927e-12
4.30842e-12
2.23164e-12
1.1427e-12
5.77994e-13
2.90687e-13
1.45542e-13
7.27253e-14
3.63782e-14
1.81394e-14
9.04327e-15
4.52813e-15
2.26035e-15
1.13208e-15
5.63334e-16
2.78978e-16
1.37187e-16
6.66764e-17
3.21244e-17
1.53535e-17
7.29348e-18
3.44289e-18
1.61606e-18
7.54948e-19
3.50521e-19
1.62263e-19
7.45263e-20
3.42846e-20
1.56822e-20
7.13916e-21
3.24373e-21
1.46767e-21
6.62725e-22
2.97865e-22
1.33994e-22
5.99213e-23
2.67279e-23
1.1906e-23
5.27597e-24
2.3447e-24
1.03522e-24
4.56971e-25
2.01137e-25
8.83535e-26
3.88046e-26
1.69896e-26
7.42351e-27
3.24602e-27
1.4124e-27
6.14404e-28
2.66666e-28
1.15843e-28
5.01869e-29
2.17122e-29
9.3686e-30
4.05247e-30
1.74112e-30
7.51402e-31
3.22412e-31
1.38651e-31
5.94554e-32
2.55249e-32
1.09386e-32
4.67965e-33
2.00747e-33
8.56156e-34
4.65042e-34
)
;

boundaryField
{
    inlet
    {
        type            fixedValue;
        value           uniform 0;
    }
    outlet
    {
        type            zeroGradient;
    }
    yzfaces
    {
        type            empty;
    }
}


// ************************************************************************* //
