/*--------------------------------*- C++ -*----------------------------------*\
| =========                 |                                                 |
| \\      /  F ield         | foam-extend: Open Source CFD                    |
|  \\    /   O peration     | Version:     5.0                                |
|   \\  /    A nd           | Web:         http://www.foam-extend.org         |
|    \\/     M anipulation  |                                                 |
\*---------------------------------------------------------------------------*/
FoamFile
{
    version     2.0;
    format      ascii;
    class       volScalarField;
    location    "1";
    object      H2O.gas;
}
// * * * * * * * * * * * * * * * * * * * * * * * * * * * * * * * * * * * * * //

dimensions      [0 0 0 0 0 0 0];

internalField   nonuniform List<scalar> 
100
(
0.000225112
0.000189447
0.000167884
0.000152646
0.000140798
0.000131331
0.000122839
0.00011546
0.000108506
0.000102398
9.6613e-05
9.11946e-05
8.5656e-05
8.03853e-05
7.51047e-05
0.00828177
0.0114794
0.0139512
0.0156378
0.016479
0.0164941
0.0157939
0.0146165
0.0133165
0.0121668
0.0112999
0.010725
0.0103902
0.0102081
0.0101042
0.0100545
0.0100163
0.0100096
0.0100023
0.0100005
0.010007
0.0100054
0.0100031
0.01
0.0100003
0.00999552
0.00999416
0.0100006
0.00999951
0.010001
0.0100052
0.0100026
0.0100012
0.00999549
0.0100003
0.0100046
0.0100096
0.00999891
0.00999765
0.0100012
0.0100059
0.0100035
0.0100065
0.0100004
0.00999821
0.00999087
0.0100025
0.0100029
0.0100102
0.0100102
0.0100028
0.0100027
0.0100015
0.0100003
0.0100027
0.0099994
0.00999916
0.010002
0.0100098
0.0100066
0.0100028
0.00999968
0.0100022
0.010002
0.00999546
0.00999751
0.0100044
0.010002
0.0100001
0.00999365
0.00999954
0.0100011
0.0100004
0.00999705
0.0100097
0.00999752
0.0100071
0.0100024
0.0100038
0.0100038
0.0100073
0.01001
0.0100119
0.0100128
0.00999328
)
;

boundaryField
{
    inlet
    {
        type            fixedValue;
        value           uniform 0;
    }
    outlet
    {
        type            zeroGradient;
    }
    yzfaces
    {
        type            empty;
    }
}


// ************************************************************************* //
