/*--------------------------------*- C++ -*----------------------------------*\
| =========                 |                                                 |
| \\      /  F ield         | foam-extend: Open Source CFD                    |
|  \\    /   O peration     | Version:     5.0                                |
|   \\  /    A nd           | Web:         http://www.foam-extend.org         |
|    \\/     M anipulation  |                                                 |
\*---------------------------------------------------------------------------*/
FoamFile
{
    version     2.0;
    format      ascii;
    class       surfaceScalarField;
    location    "1";
    object      phi.water;
}
// * * * * * * * * * * * * * * * * * * * * * * * * * * * * * * * * * * * * * //

dimensions      [0 3 -1 0 0 0 0];

internalField   nonuniform List<scalar> 
99
(
3.84617e-07
6.76678e-07
9.37934e-07
1.18353e-06
1.41779e-06
1.63501e-06
1.86813e-06
2.08476e-06
2.3221e-06
2.54014e-06
2.76781e-06
2.98735e-06
3.24259e-06
3.48811e-06
3.75035e-06
4.01647e-06
4.29722e-06
4.59103e-06
4.87912e-06
5.17273e-06
5.43299e-06
5.6576e-06
5.83975e-06
5.96676e-06
6.04284e-06
6.09749e-06
6.1223e-06
6.14445e-06
6.1576e-06
6.16031e-06
6.15916e-06
6.15292e-06
6.15184e-06
6.14449e-06
6.14324e-06
6.13867e-06
6.14253e-06
6.12873e-06
6.13704e-06
6.13494e-06
6.13498e-06
6.14835e-06
6.14015e-06
6.14338e-06
6.15355e-06
6.14282e-06
6.14658e-06
6.13847e-06
6.14082e-06
6.13025e-06
6.12775e-06
6.12074e-06
6.12216e-06
6.13009e-06
6.12894e-06
6.12616e-06
6.13102e-06
6.12151e-06
6.11836e-06
6.11602e-06
6.12737e-06
6.12438e-06
6.12629e-06
6.1227e-06
6.12342e-06
6.13228e-06
6.13483e-06
6.147e-06
6.14508e-06
6.13927e-06
6.13566e-06
6.13798e-06
6.13924e-06
6.13908e-06
6.12807e-06
6.12017e-06
6.12132e-06
6.11609e-06
6.11592e-06
6.11224e-06
6.11062e-06
6.101e-06
6.09879e-06
6.10043e-06
6.10477e-06
6.09623e-06
6.0922e-06
6.09027e-06
6.09089e-06
6.09005e-06
6.10432e-06
6.0995e-06
6.09882e-06
6.09923e-06
6.08936e-06
6.0844e-06
6.08803e-06
6.09144e-06
6.09157e-06
)
;

boundaryField
{
    inlet
    {
        type            fixedValue;
        value           uniform 0;
    }
    outlet
    {
        type            calculated;
        value           uniform 6.10357e-06;
    }
    yzfaces
    {
        type            empty;
    }
}


// ************************************************************************* //
