/*--------------------------------*- C++ -*----------------------------------*\
| =========                 |                                                 |
| \\      /  F ield         | foam-extend: Open Source CFD                    |
|  \\    /   O peration     | Version:     5.0                                |
|   \\  /    A nd           | Web:         http://www.foam-extend.org         |
|    \\/     M anipulation  |                                                 |
\*---------------------------------------------------------------------------*/
FoamFile
{
    version     2.0;
    format      ascii;
    class       volScalarField;
    location    "8.80134";
    object      CO2.water;
}
// * * * * * * * * * * * * * * * * * * * * * * * * * * * * * * * * * * * * * //

dimensions      [0 0 0 0 0 0 0];

internalField   nonuniform List<scalar> 
100
(
6.06452e-05
1.41437e-05
2.73027e-06
4.76791e-07
7.80431e-08
1.22058e-08
1.84442e-09
2.71204e-10
3.89919e-11
5.50139e-12
7.63754e-13
1.0454e-13
1.4129e-14
1.8877e-15
2.49607e-16
3.26952e-17
4.24541e-18
5.4676e-19
6.98869e-20
8.86985e-21
1.11824e-21
1.40066e-22
1.74401e-23
2.15918e-24
2.6583e-25
3.2556e-26
3.96754e-27
4.8115e-28
5.80765e-29
6.97952e-30
8.35127e-31
9.95017e-32
1.18073e-32
1.39565e-33
1.6432e-34
1.92778e-35
2.25313e-36
2.62433e-37
3.04609e-38
3.52362e-39
4.06315e-40
4.67043e-41
5.35153e-42
6.11416e-43
6.96419e-44
7.90983e-45
8.95774e-46
1.01165e-46
1.13949e-47
1.27999e-48
1.43406e-49
1.60245e-50
1.78602e-51
1.98587e-52
2.20266e-53
2.43741e-54
2.69056e-55
2.96299e-56
3.25552e-57
3.56887e-58
3.90421e-59
4.26093e-60
4.64117e-61
5.04401e-62
5.47069e-63
5.92061e-64
6.39504e-65
6.89473e-66
7.41837e-67
7.9667e-68
8.53865e-69
9.13504e-70
9.75515e-71
1.03984e-71
1.10627e-72
1.17493e-73
1.24557e-74
1.31836e-75
1.39304e-76
1.46958e-77
1.54761e-78
1.62718e-79
1.70794e-80
1.78968e-81
1.87241e-82
1.95574e-83
2.03993e-84
2.12423e-85
2.20888e-86
2.29344e-87
2.37754e-88
2.46134e-89
2.54433e-90
2.62644e-91
2.70695e-92
2.78661e-93
2.86451e-94
2.94054e-95
3.01444e-96
3.0866e-97
)
;

boundaryField
{
    inlet
    {
        type            fixedValue;
        value           uniform 0;
    }
    outlet
    {
        type            zeroGradient;
    }
    yzfaces
    {
        type            empty;
    }
}


// ************************************************************************* //
