/*--------------------------------*- C++ -*----------------------------------*\
| =========                 |                                                 |
| \\      /  F ield         | foam-extend: Open Source CFD                    |
|  \\    /   O peration     | Version:     5.0                                |
|   \\  /    A nd           | Web:         http://www.foam-extend.org         |
|    \\/     M anipulation  |                                                 |
\*---------------------------------------------------------------------------*/
FoamFile
{
    version     2.0;
    format      ascii;
    class       volScalarField;
    location    "2";
    object      alpha.gas;
}
// * * * * * * * * * * * * * * * * * * * * * * * * * * * * * * * * * * * * * //

dimensions      [0 0 0 0 0 0 0];

internalField   nonuniform List<scalar> 
100
(
0.134524
0.116962
0.105763
0.0981546
0.0922485
0.087493
0.0831733
0.0795247
0.0762089
0.0732304
0.0706057
0.068256
0.0660521
0.0639846
0.0620555
0.0600833
0.0583429
0.0567138
0.0551097
0.0534522
0.0518641
0.0503822
0.0489016
0.047389
0.0458807
0.0443732
0.042876
0.041375
0.0398341
0.0382488
0.036619
0.0349231
0.0331341
0.0312405
0.0292456
0.0271178
0.0248878
0.0225721
0.0202406
0.0179669
0.0158786
0.014097
0.0126928
0.0116871
0.0110136
0.0105872
0.0103343
0.0101882
0.0101059
0.0100606
0.0100333
0.0100185
0.0100095
0.0100029
0.0100009
0.00999917
0.00999829
0.010001
0.0100002
0.0100009
0.0100014
0.00999952
0.00999867
0.00999895
0.0099978
0.00999973
0.00999799
0.0099984
0.00999904
0.00999922
0.010001
0.0100001
0.0100008
0.0100019
0.0100031
0.0100027
0.0100013
0.0100029
0.0100027
0.0100005
0.0100009
0.0100009
0.0100002
0.00999978
0.00999884
0.00999922
0.00999844
0.00999972
0.0100001
0.0100005
0.00999891
0.00999917
0.00999933
0.00999806
0.00999829
0.00999797
0.00999504
0.00999686
0.00999472
0.00999819
)
;

boundaryField
{
    inlet
    {
        type            fixedValue;
        value           uniform 0.2;
    }
    outlet
    {
        type            zeroGradient;
    }
    yzfaces
    {
        type            empty;
    }
}


// ************************************************************************* //
