/*--------------------------------*- C++ -*----------------------------------*\
| =========                 |                                                 |
| \\      /  F ield         | foam-extend: Open Source CFD                    |
|  \\    /   O peration     | Version:     5.0                                |
|   \\  /    A nd           | Web:         http://www.foam-extend.org         |
|    \\/     M anipulation  |                                                 |
\*---------------------------------------------------------------------------*/
FoamFile
{
    version     2.0;
    format      ascii;
    class       volScalarField;
    location    "2";
    object      Cl.water;
}
// * * * * * * * * * * * * * * * * * * * * * * * * * * * * * * * * * * * * * //

dimensions      [0 0 0 0 0 0 0];

internalField   nonuniform List<scalar> 
100
(
0.0137759
0.0174154
0.0197263
0.0214201
0.022663
0.0236661
0.0245578
0.0253286
0.0260236
0.0266424
0.0271786
0.0277578
0.0282105
0.0286244
0.0290714
0.0294902
0.0298776
0.0302277
0.0305529
0.0308623
0.0311867
0.0315288
0.0318576
0.0321778
0.0324535
0.0327621
0.0330924
0.0334209
0.0337398
0.034041
0.034388
0.034732
0.0350933
0.0355017
0.0359213
0.0363578
0.0368581
0.0373555
0.0378624
0.038289
0.0387554
0.039118
0.0394401
0.0396259
0.0397731
0.0398698
0.0399209
0.0399796
0.0400087
0.0400331
0.0400119
0.040034
0.0400084
0.0400462
0.0399754
0.0400113
0.040012
0.039977
0.0399683
0.0399794
0.0400008
0.0400249
0.0400167
0.040012
0.0400294
0.0399979
0.0400089
0.0400026
0.03997
0.0399932
0.039996
0.0399853
0.0399604
0.0399842
0.0399602
0.0399971
0.0400216
0.0399833
0.0400029
0.04
0.0400119
0.0400173
0.0400438
0.040005
0.0399834
0.0399949
0.0399677
0.0399635
0.0400186
0.0400266
0.0400218
0.0400514
0.0400405
0.0400249
0.0400258
0.0399896
0.0399988
0.0399842
0.0399816
0.0399926
)
;

boundaryField
{
    inlet
    {
        type            fixedValue;
        value           uniform 0;
    }
    outlet
    {
        type            zeroGradient;
    }
    yzfaces
    {
        type            empty;
    }
}


// ************************************************************************* //
