/*--------------------------------*- C++ -*----------------------------------*\
| =========                 |                                                 |
| \\      /  F ield         | foam-extend: Open Source CFD                    |
|  \\    /   O peration     | Version:     5.0                                |
|   \\  /    A nd           | Web:         http://www.foam-extend.org         |
|    \\/     M anipulation  |                                                 |
\*---------------------------------------------------------------------------*/
FoamFile
{
    version     2.0;
    format      ascii;
    class       volScalarField;
    location    "2";
    object      H2O.gas;
}
// * * * * * * * * * * * * * * * * * * * * * * * * * * * * * * * * * * * * * //

dimensions      [0 0 0 0 0 0 0];

internalField   nonuniform List<scalar> 
100
(
9.77415e-09
5.56655e-08
2.05412e-07
6.08548e-07
1.54576e-06
3.51561e-06
7.35212e-06
1.43991e-05
2.66297e-05
4.69884e-05
7.94825e-05
0.000130245
0.000205448
0.000314586
0.000469283
0.000681265
0.000969284
0.00134846
0.00183382
0.00243702
0.0031792
0.00408197
0.005136
0.00635153
0.00769848
0.00918176
0.0107879
0.0124453
0.014125
0.0157492
0.0172863
0.0186418
0.0197568
0.0205659
0.0209989
0.020994
0.0205694
0.0196954
0.0184563
0.016925
0.0153411
0.0138384
0.0125889
0.0116409
0.010993
0.0105807
0.0103319
0.010193
0.0101165
0.0100734
0.010039
0.0100283
0.0100137
0.0100151
0.00999642
0.0100042
0.0100034
0.00999895
0.00999671
0.00999885
0.0100033
0.0100077
0.0100046
0.0100034
0.0100072
0.010002
0.0100026
0.0100011
0.00999269
0.0099959
0.0099988
0.00999865
0.00999265
0.0099987
0.00999694
0.0100049
0.010008
0.0100047
0.0100049
0.0100018
0.0100036
0.00999986
0.0100056
0.00999622
0.00999013
0.00999285
0.00998549
0.00998675
0.0100003
0.0100025
0.0100039
0.0100128
0.0100107
0.0100057
0.0100042
0.00999688
0.00999733
0.00999572
0.00999359
0.0100022
)
;

boundaryField
{
    inlet
    {
        type            fixedValue;
        value           uniform 0;
    }
    outlet
    {
        type            zeroGradient;
    }
    yzfaces
    {
        type            empty;
    }
}


// ************************************************************************* //
