/*--------------------------------*- C++ -*----------------------------------*\
| =========                 |                                                 |
| \\      /  F ield         | foam-extend: Open Source CFD                    |
|  \\    /   O peration     | Version:     5.0                                |
|   \\  /    A nd           | Web:         http://www.foam-extend.org         |
|    \\/     M anipulation  |                                                 |
\*---------------------------------------------------------------------------*/
FoamFile
{
    version     2.0;
    format      ascii;
    class       volScalarField;
    location    "2";
    object      H2O.water;
}
// * * * * * * * * * * * * * * * * * * * * * * * * * * * * * * * * * * * * * //

dimensions      [0 0 0 0 0 0 0];

internalField   nonuniform List<scalar> 
100
(
0.0378965
0.0478832
0.0542465
0.0588984
0.0623224
0.0651315
0.0675802
0.0696976
0.0715763
0.0732965
0.0747774
0.0762792
0.0775298
0.0787044
0.0799325
0.0810954
0.0821246
0.0830784
0.0839933
0.084861
0.085783
0.0867367
0.0876307
0.0885228
0.0892957
0.0901707
0.0910874
0.0919226
0.0928293
0.0936601
0.0946015
0.0955446
0.0965561
0.0976412
0.0987904
0.0999951
0.101359
0.10272
0.104095
0.105263
0.106541
0.107545
0.108443
0.108967
0.109334
0.109636
0.109797
0.109945
0.110071
0.110108
0.110056
0.110107
0.110054
0.110147
0.109964
0.11007
0.110078
0.10999
0.109972
0.109988
0.110033
0.110105
0.110081
0.110065
0.110127
0.110048
0.110078
0.110053
0.109946
0.109972
0.109993
0.11002
0.109947
0.109987
0.109967
0.110046
0.110092
0.110036
0.110019
0.110012
0.110037
0.109979
0.110049
0.109956
0.109899
0.109917
0.109837
0.109831
0.109968
0.10998
0.110026
0.110136
0.110109
0.110064
0.110045
0.109977
0.110032
0.109992
0.109999
0.110054
)
;

boundaryField
{
    inlet
    {
        type            fixedValue;
        value           uniform 0;
    }
    outlet
    {
        type            zeroGradient;
    }
    yzfaces
    {
        type            empty;
    }
}


// ************************************************************************* //
