/*--------------------------------*- C++ -*----------------------------------*\
| =========                 |                                                 |
| \\      /  F ield         | foam-extend: Open Source CFD                    |
|  \\    /   O peration     | Version:     5.0                                |
|   \\  /    A nd           | Web:         http://www.foam-extend.org         |
|    \\/     M anipulation  |                                                 |
\*---------------------------------------------------------------------------*/
FoamFile
{
    version     2.0;
    format      ascii;
    class       volScalarField;
    location    "2";
    object      Na.water;
}
// * * * * * * * * * * * * * * * * * * * * * * * * * * * * * * * * * * * * * //

dimensions      [0 0 0 0 0 0 0];

internalField   nonuniform List<scalar> 
100
(
0.0137804
0.017412
0.0197262
0.0214212
0.0226725
0.0236731
0.0245777
0.0253543
0.0260323
0.0266524
0.0271811
0.0277342
0.0281893
0.0286155
0.029063
0.0294791
0.029866
0.030211
0.0305293
0.0308437
0.03117
0.0315161
0.0318363
0.0321496
0.0324465
0.0327618
0.0330877
0.0334139
0.0337545
0.034049
0.0343897
0.0347326
0.0351091
0.0355249
0.0359234
0.0363528
0.0368557
0.0373436
0.0378409
0.0382723
0.0387388
0.039091
0.039418
0.0396069
0.0397577
0.0398683
0.0399281
0.0399835
0.0400163
0.04004
0.0400067
0.0400259
0.0400075
0.040037
0.0399745
0.0400163
0.0400083
0.0399936
0.0399937
0.0399922
0.0400004
0.0400269
0.0400172
0.040009
0.0400234
0.0399966
0.0400026
0.0399966
0.039964
0.0399722
0.0399677
0.0399677
0.0399372
0.0399669
0.0399534
0.0399959
0.0400122
0.0400108
0.0400173
0.0400106
0.0400017
0.0399838
0.0400096
0.0399715
0.0399537
0.0399674
0.0399507
0.0399591
0.0400182
0.0400302
0.040047
0.0400728
0.0400676
0.0400586
0.0400439
0.0400151
0.0400177
0.0400052
0.0400035
0.0400312
)
;

boundaryField
{
    inlet
    {
        type            fixedValue;
        value           uniform 0;
    }
    outlet
    {
        type            zeroGradient;
    }
    yzfaces
    {
        type            empty;
    }
}


// ************************************************************************* //
