/*--------------------------------*- C++ -*----------------------------------*\
| =========                 |                                                 |
| \\      /  F ield         | foam-extend: Open Source CFD                    |
|  \\    /   O peration     | Version:     5.0                                |
|   \\  /    A nd           | Web:         http://www.foam-extend.org         |
|    \\/     M anipulation  |                                                 |
\*---------------------------------------------------------------------------*/
FoamFile
{
    version     2.0;
    format      ascii;
    class       surfaceScalarField;
    location    "2";
    object      phi;
}
// * * * * * * * * * * * * * * * * * * * * * * * * * * * * * * * * * * * * * //

dimensions      [0 3 -1 0 0 0 0];

internalField   nonuniform List<scalar> 
99
(
1.22426e-06
1.22378e-06
1.23151e-06
1.23452e-06
1.23679e-06
1.23981e-06
1.24041e-06
1.23918e-06
1.24336e-06
1.24181e-06
1.24738e-06
1.24792e-06
1.24953e-06
1.24852e-06
1.24717e-06
1.25511e-06
1.25213e-06
1.25227e-06
1.25042e-06
1.25423e-06
1.25591e-06
1.25147e-06
1.24995e-06
1.24817e-06
1.24618e-06
1.24743e-06
1.24771e-06
1.24604e-06
1.24679e-06
1.24484e-06
1.24531e-06
1.24473e-06
1.24413e-06
1.24317e-06
1.24153e-06
1.24326e-06
1.24247e-06
1.24402e-06
1.24318e-06
1.24361e-06
1.24353e-06
1.24355e-06
1.24434e-06
1.24401e-06
1.24291e-06
1.24384e-06
1.24571e-06
1.24844e-06
1.2472e-06
1.24663e-06
1.24419e-06
1.24349e-06
1.24558e-06
1.24362e-06
1.24261e-06
1.24166e-06
1.24219e-06
1.24128e-06
1.24001e-06
1.24017e-06
1.24078e-06
1.24136e-06
1.24073e-06
1.24095e-06
1.23995e-06
1.2408e-06
1.23936e-06
1.23766e-06
1.23841e-06
1.23884e-06
1.23897e-06
1.23968e-06
1.23988e-06
1.24034e-06
1.24261e-06
1.24289e-06
1.24397e-06
1.2426e-06
1.24277e-06
1.24316e-06
1.24313e-06
1.24444e-06
1.24177e-06
1.241e-06
1.24155e-06
1.24098e-06
1.24264e-06
1.24353e-06
1.24394e-06
1.24427e-06
1.24418e-06
1.24372e-06
1.2427e-06
1.24102e-06
1.24329e-06
1.24151e-06
1.24212e-06
1.24164e-06
1.24345e-06
)
;

boundaryField
{
    inlet
    {
        type            calculated;
        value           uniform -1.225e-06;
    }
    outlet
    {
        type            calculated;
        value           uniform 1.2441e-06;
    }
    yzfaces
    {
        type            empty;
    }
}


// ************************************************************************* //
