/*--------------------------------*- C++ -*----------------------------------*\
| =========                 |                                                 |
| \\      /  F ield         | foam-extend: Open Source CFD                    |
|  \\    /   O peration     | Version:     5.0                                |
|   \\  /    A nd           | Web:         http://www.foam-extend.org         |
|    \\/     M anipulation  |                                                 |
\*---------------------------------------------------------------------------*/
FoamFile
{
    version     2.0;
    format      ascii;
    class       surfaceScalarField;
    location    "2";
    object      phi.water;
}
// * * * * * * * * * * * * * * * * * * * * * * * * * * * * * * * * * * * * * //

dimensions      [0 3 -1 0 0 0 0];

internalField   nonuniform List<scalar> 
99
(
2.1968e-07
3.86276e-07
5.43341e-07
6.79896e-07
8.07891e-07
9.291e-07
1.05556e-06
1.17164e-06
1.29506e-06
1.41372e-06
1.53162e-06
1.64045e-06
1.7539e-06
1.86166e-06
1.96647e-06
2.09735e-06
2.20218e-06
2.31032e-06
2.41779e-06
2.54735e-06
2.66976e-06
2.77518e-06
2.89097e-06
3.01512e-06
3.1419e-06
3.2797e-06
3.41779e-06
3.55421e-06
3.70743e-06
3.85885e-06
4.0254e-06
4.19784e-06
4.37957e-06
4.57129e-06
4.7695e-06
4.98932e-06
5.20097e-06
5.42081e-06
5.62133e-06
5.80325e-06
5.94727e-06
6.05432e-06
6.13202e-06
6.17959e-06
6.20152e-06
6.22135e-06
6.23817e-06
6.25358e-06
6.24793e-06
6.24833e-06
6.23801e-06
6.23539e-06
6.24548e-06
6.23855e-06
6.23571e-06
6.2281e-06
6.23305e-06
6.231e-06
6.22473e-06
6.2238e-06
6.2236e-06
6.22532e-06
6.22342e-06
6.22346e-06
6.21922e-06
6.22482e-06
6.21751e-06
6.21236e-06
6.21804e-06
6.21882e-06
6.21889e-06
6.22437e-06
6.22583e-06
6.22747e-06
6.23715e-06
6.23463e-06
6.24029e-06
6.23466e-06
6.23559e-06
6.23762e-06
6.23808e-06
6.24381e-06
6.23118e-06
6.23181e-06
6.2355e-06
6.23386e-06
6.24433e-06
6.24465e-06
6.24199e-06
6.2422e-06
6.23816e-06
6.23371e-06
6.23057e-06
6.22384e-06
6.23802e-06
6.23016e-06
6.23342e-06
6.23192e-06
6.23955e-06
)
;

boundaryField
{
    inlet
    {
        type            fixedValue;
        value           uniform 0;
    }
    outlet
    {
        type            calculated;
        value           uniform 6.24116e-06;
    }
    yzfaces
    {
        type            empty;
    }
}


// ************************************************************************* //
