/*--------------------------------*- C++ -*----------------------------------*\
| =========                 |                                                 |
| \\      /  F ield         | foam-extend: Open Source CFD                    |
|  \\    /   O peration     | Version:     5.0                                |
|   \\  /    A nd           | Web:         http://www.foam-extend.org         |
|    \\/     M anipulation  |                                                 |
\*---------------------------------------------------------------------------*/
FoamFile
{
    version     2.0;
    format      ascii;
    class       volScalarField;
    location    "2";
    object      S.gas;
}
// * * * * * * * * * * * * * * * * * * * * * * * * * * * * * * * * * * * * * //

dimensions      [0 0 0 0 0 0 0];

internalField   nonuniform List<scalar> 
100
(
0.672619
0.584812
0.528813
0.490773
0.461242
0.437465
0.415867
0.397624
0.381044
0.366152
0.353028
0.34128
0.33026
0.319923
0.310277
0.300417
0.291715
0.283569
0.275548
0.267261
0.25932
0.251911
0.244508
0.236945
0.229404
0.221866
0.21438
0.206875
0.199171
0.191244
0.183095
0.174615
0.16567
0.156203
0.146228
0.135589
0.124439
0.11286
0.101203
0.0898344
0.0793931
0.070485
0.0634642
0.0584354
0.0550678
0.052936
0.0516714
0.0509411
0.0505293
0.0503032
0.0501666
0.0500925
0.0500477
0.0500144
0.0500046
0.0499959
0.0499915
0.0500048
0.0500008
0.0500046
0.0500072
0.0499976
0.0499934
0.0499947
0.049989
0.0499987
0.0499899
0.049992
0.0499952
0.0499961
0.0500052
0.0500005
0.0500039
0.0500094
0.0500154
0.0500136
0.0500067
0.0500147
0.0500136
0.0500026
0.0500043
0.0500043
0.0500008
0.0499989
0.0499942
0.0499961
0.0499922
0.0499986
0.0500003
0.0500027
0.0499945
0.0499958
0.0499966
0.0499903
0.0499914
0.0499899
0.0499752
0.0499843
0.0499736
0.0499909
)
;

boundaryField
{
    inlet
    {
        type            calculated;
        value           uniform 1;
    }
    outlet
    {
        type            calculated;
        value           uniform 0.0499909;
    }
    yzfaces
    {
        type            empty;
    }
}


// ************************************************************************* //
