/*--------------------------------*- C++ -*----------------------------------*\
| =========                 |                                                 |
| \\      /  F ield         | foam-extend: Open Source CFD                    |
|  \\    /   O peration     | Version:     5.0                                |
|   \\  /    A nd           | Web:         http://www.foam-extend.org         |
|    \\/     M anipulation  |                                                 |
\*---------------------------------------------------------------------------*/
FoamFile
{
    version     2.0;
    format      ascii;
    class       volVectorField;
    location    "2";
    object      U.gas;
}
// * * * * * * * * * * * * * * * * * * * * * * * * * * * * * * * * * * * * * //

dimensions      [0 1 -1 0 0 0 0];

internalField   nonuniform List<vector> 
100
(
(0.007382 0 0)
(0.00836721 0 0)
(0.00913918 0 0)
(0.00973788 0 0)
(0.0102262 0 0)
(0.010642 0 0)
(0.0110348 0 0)
(0.0113506 0 0)
(0.0116627 0 0)
(0.0119409 0 0)
(0.0121897 0 0)
(0.0124236 0 0)
(0.0126237 0 0)
(0.0127985 0 0)
(0.0129388 0 0)
(0.0131325 0 0)
(0.0132738 0 0)
(0.0133632 0 0)
(0.0134555 0 0)
(0.0135671 0 0)
(0.0136707 0 0)
(0.0137065 0 0)
(0.0137212 0 0)
(0.0137425 0 0)
(0.0137413 0 0)
(0.0137385 0 0)
(0.013726 0 0)
(0.0136793 0 0)
(0.0136152 0 0)
(0.0135235 0 0)
(0.0133965 0 0)
(0.0132389 0 0)
(0.013033 0 0)
(0.0127681 0 0)
(0.0124268 0 0)
(0.0120174 0 0)
(0.0115045 0 0)
(0.0108791 0 0)
(0.0101351 0 0)
(0.00928697 0 0)
(0.00837813 0 0)
(0.00747484 0 0)
(0.0066662 0 0)
(0.00600713 0 0)
(0.00552337 0 0)
(0.0052013 0 0)
(0.00500348 0 0)
(0.00489159 0 0)
(0.00482532 0 0)
(0.00478246 0 0)
(0.00475437 0 0)
(0.00473597 0 0)
(0.00473158 0 0)
(0.00472724 0 0)
(0.00471932 0 0)
(0.00471466 0 0)
(0.00471263 0 0)
(0.0047116 0 0)
(0.00470877 0 0)
(0.00470612 0 0)
(0.00470795 0 0)
(0.00471067 0 0)
(0.00470933 0 0)
(0.00470747 0 0)
(0.0047058 0 0)
(0.0047052 0 0)
(0.00470552 0 0)
(0.00469903 0 0)
(0.00469691 0 0)
(0.00469974 0 0)
(0.00470141 0 0)
(0.00470318 0 0)
(0.00470442 0 0)
(0.00470649 0 0)
(0.00471219 0 0)
(0.00471675 0 0)
(0.00471872 0 0)
(0.00471807 0 0)
(0.00471738 0 0)
(0.00471794 0 0)
(0.00471715 0 0)
(0.00472021 0 0)
(0.00471801 0 0)
(0.00471096 0 0)
(0.00470989 0 0)
(0.00470974 0 0)
(0.00471243 0 0)
(0.00471659 0 0)
(0.00471985 0 0)
(0.00472131 0 0)
(0.00472157 0 0)
(0.00472075 0 0)
(0.00471806 0 0)
(0.00471232 0 0)
(0.00471262 0 0)
(0.0047135 0 0)
(0.00471091 0 0)
(0.00470979 0 0)
(0.00471367 0 0)
(0.00471654 0 0)
)
;

boundaryField
{
    inlet
    {
        type            fixedValue;
        value           uniform (0.005 0 0);
    }
    outlet
    {
        type            zeroGradient;
    }
    yzfaces
    {
        type            empty;
    }
}


// ************************************************************************* //
