/*--------------------------------*- C++ -*----------------------------------*\
| =========                 |                                                 |
| \\      /  F ield         | foam-extend: Open Source CFD                    |
|  \\    /   O peration     | Version:     5.0                                |
|   \\  /    A nd           | Web:         http://www.foam-extend.org         |
|    \\/     M anipulation  |                                                 |
\*---------------------------------------------------------------------------*/
FoamFile
{
    version     2.0;
    format      ascii;
    class       volVectorField;
    location    "2";
    object      U.water;
}
// * * * * * * * * * * * * * * * * * * * * * * * * * * * * * * * * * * * * * //

dimensions      [0 1 -1 0 0 0 0];

internalField   nonuniform List<vector> 
100
(
(0.00010145 0 0)
(0.00024747 0 0)
(0.000377537 0 0)
(0.00049807 0 0)
(0.000606476 0 0)
(0.000708848 0 0)
(0.000809165 0 0)
(0.000908246 0 0)
(0.00100556 0 0)
(0.00110369 0 0)
(0.00120047 0 0)
(0.00129422 0 0)
(0.00138525 0 0)
(0.0014756 0 0)
(0.00156385 0 0)
(0.00166024 0 0)
(0.00175731 0 0)
(0.00184476 0 0)
(0.00193232 0 0)
(0.00202741 0 0)
(0.00213001 0 0)
(0.00222472 0 0)
(0.00231635 0 0)
(0.00241395 0 0)
(0.00251518 0 0)
(0.00262279 0 0)
(0.00273608 0 0)
(0.0028487 0 0)
(0.0029665 0 0)
(0.00308951 0 0)
(0.00321837 0 0)
(0.00335602 0 0)
(0.00349997 0 0)
(0.00365219 0 0)
(0.00381096 0 0)
(0.00398141 0 0)
(0.00415883 0 0)
(0.004336 0 0)
(0.00450626 0 0)
(0.00465937 0 0)
(0.004791 0 0)
(0.00489374 0 0)
(0.00496965 0 0)
(0.00502061 0 0)
(0.00504924 0 0)
(0.00506795 0 0)
(0.00508493 0 0)
(0.00510076 0 0)
(0.00510739 0 0)
(0.00510571 0 0)
(0.00510068 0 0)
(0.00509488 0 0)
(0.00509809 0 0)
(0.00509857 0 0)
(0.00509259 0 0)
(0.00508863 0 0)
(0.00508785 0 0)
(0.00508709 0 0)
(0.00508256 0 0)
(0.0050803 0 0)
(0.00508185 0 0)
(0.00508427 0 0)
(0.00508424 0 0)
(0.00508345 0 0)
(0.00508185 0 0)
(0.00508157 0 0)
(0.00508028 0 0)
(0.00507387 0 0)
(0.00507194 0 0)
(0.00507433 0 0)
(0.00507546 0 0)
(0.00507719 0 0)
(0.00507906 0 0)
(0.00508036 0 0)
(0.00508593 0 0)
(0.00509116 0 0)
(0.00509399 0 0)
(0.0050934 0 0)
(0.00509085 0 0)
(0.00509203 0 0)
(0.00509284 0 0)
(0.00509543 0 0)
(0.00509262 0 0)
(0.00508561 0 0)
(0.00508521 0 0)
(0.00508516 0 0)
(0.00508736 0 0)
(0.00509262 0 0)
(0.00509525 0 0)
(0.00509676 0 0)
(0.00509726 0 0)
(0.00509611 0 0)
(0.00509307 0 0)
(0.00508757 0 0)
(0.00508883 0 0)
(0.00508984 0 0)
(0.00508744 0 0)
(0.00508778 0 0)
(0.00509043 0 0)
(0.00509558 0 0)
)
;

boundaryField
{
    inlet
    {
        type            fixedValue;
        value           uniform (0 0 0);
    }
    outlet
    {
        type            zeroGradient;
    }
    yzfaces
    {
        type            empty;
    }
}


// ************************************************************************* //
