/*--------------------------------*- C++ -*----------------------------------*\
| =========                 |                                                 |
| \\      /  F ield         | foam-extend: Open Source CFD                    |
|  \\    /   O peration     | Version:     5.0                                |
|   \\  /    A nd           | Web:         http://www.foam-extend.org         |
|    \\/     M anipulation  |                                                 |
\*---------------------------------------------------------------------------*/
FoamFile
{
    version     2.0;
    format      ascii;
    class       volScalarField;
    location    "8";
    object      alpha.gas;
}
// * * * * * * * * * * * * * * * * * * * * * * * * * * * * * * * * * * * * * //

dimensions      [0 0 0 0 0 0 0];

internalField   nonuniform List<scalar> 
100
(
0.165915
0.152971
0.144203
0.137212
0.132004
0.12675
0.122245
0.118904
0.116032
0.113307
0.110876
0.10855
0.106274
0.104074
0.102541
0.100571
0.0989219
0.0971944
0.0955277
0.0936388
0.0921984
0.0908298
0.0894216
0.0882073
0.086681
0.0854733
0.0844209
0.0834006
0.0823702
0.0813948
0.0804526
0.0797785
0.0791271
0.0784534
0.0776887
0.0769093
0.0762401
0.0756494
0.0750493
0.0744374
0.073726
0.0731303
0.0726594
0.0721255
0.0714935
0.0708416
0.070267
0.0697329
0.0692731
0.0687402
0.0681293
0.0675542
0.066916
0.0663662
0.0657534
0.065179
0.064717
0.0641621
0.0636519
0.063189
0.0626609
0.0621495
0.0617549
0.0614279
0.0611109
0.0607744
0.0604342
0.0601432
0.0596661
0.0591127
0.0585317
0.0580139
0.0575246
0.0571345
0.056772
0.0562698
0.0557987
0.0554186
0.0549711
0.0544624
0.0540822
0.0537685
0.0533628
0.0529344
0.0525923
0.0521753
0.0518076
0.0515101
0.0512202
0.0508824
0.0504824
0.0501374
0.0498001
0.0493842
0.0490352
0.048671
0.0482593
0.0478803
0.0475121
0.047121
)
;

boundaryField
{
    inlet
    {
        type            fixedValue;
        value           uniform 0.2;
    }
    outlet
    {
        type            zeroGradient;
    }
    yzfaces
    {
        type            empty;
    }
}


// ************************************************************************* //
