/*--------------------------------*- C++ -*----------------------------------*\
| =========                 |                                                 |
| \\      /  F ield         | foam-extend: Open Source CFD                    |
|  \\    /   O peration     | Version:     5.0                                |
|   \\  /    A nd           | Web:         http://www.foam-extend.org         |
|    \\/     M anipulation  |                                                 |
\*---------------------------------------------------------------------------*/
FoamFile
{
    version     2.0;
    format      ascii;
    class       volScalarField;
    location    "8";
    object      Cl.water;
}
// * * * * * * * * * * * * * * * * * * * * * * * * * * * * * * * * * * * * * //

dimensions      [0 0 0 0 0 0 0];

internalField   nonuniform List<scalar> 
100
(
0.00714179
0.00984784
0.0117696
0.0132176
0.0143587
0.015393
0.016331
0.0170985
0.0177233
0.0183233
0.0188558
0.0193605
0.0197843
0.0202439
0.0206253
0.0209702
0.0213481
0.0216438
0.0219998
0.0223825
0.022703
0.0229982
0.0232241
0.0235079
0.0237537
0.0240459
0.024272
0.0245257
0.0247412
0.024936
0.0251283
0.0253017
0.0254343
0.0256244
0.0257236
0.0258882
0.0260274
0.0261853
0.0263174
0.0264791
0.0266134
0.0267617
0.0268892
0.0269781
0.027111
0.0272352
0.0273752
0.0275029
0.0276079
0.0276884
0.0277929
0.0279137
0.0280378
0.0281655
0.0282613
0.0284107
0.0285038
0.0285954
0.0287014
0.0288212
0.0288862
0.0290031
0.0291354
0.0291958
0.0292488
0.0293167
0.0293737
0.0294361
0.0295043
0.029622
0.0297486
0.0298711
0.0300341
0.0301515
0.0302118
0.0302734
0.030405
0.0304786
0.0305617
0.0307015
0.0307828
0.0308445
0.0308793
0.0309585
0.0310341
0.0311166
0.0312206
0.0313181
0.0313488
0.0314006
0.0314824
0.0315245
0.0316045
0.0316709
0.0317254
0.031818
0.0318928
0.031959
0.0320688
0.0321343
)
;

boundaryField
{
    inlet
    {
        type            fixedValue;
        value           uniform 0;
    }
    outlet
    {
        type            zeroGradient;
    }
    yzfaces
    {
        type            empty;
    }
}


// ************************************************************************* //
