/*--------------------------------*- C++ -*----------------------------------*\
| =========                 |                                                 |
| \\      /  F ield         | foam-extend: Open Source CFD                    |
|  \\    /   O peration     | Version:     5.0                                |
|   \\  /    A nd           | Web:         http://www.foam-extend.org         |
|    \\/     M anipulation  |                                                 |
\*---------------------------------------------------------------------------*/
FoamFile
{
    version     2.0;
    format      ascii;
    class       volScalarField;
    location    "8";
    object      CO2.gas;
}
// * * * * * * * * * * * * * * * * * * * * * * * * * * * * * * * * * * * * * //

dimensions      [0 0 0 0 0 0 0];

internalField   nonuniform List<scalar> 
100
(
0.165125
0.152154
0.144551
0.13725
0.132424
0.126485
0.12192
0.119107
0.116403
0.113851
0.111504
0.109176
0.106573
0.104372
0.103072
0.10079
0.0992831
0.0972273
0.0955315
0.0935207
0.0921982
0.0908147
0.0891639
0.0880485
0.0862905
0.085238
0.084222
0.08331
0.0823165
0.0813245
0.0803852
0.0798037
0.0791394
0.0786112
0.0776609
0.0768758
0.0762166
0.0757179
0.0751326
0.07459
0.0738442
0.0732966
0.0728721
0.072267
0.0716271
0.0709397
0.0704065
0.069917
0.0695038
0.0688808
0.0681996
0.0676224
0.0669672
0.0664494
0.0657564
0.0652453
0.0647789
0.0641644
0.0636336
0.0632156
0.0626181
0.0621105
0.0618212
0.0614764
0.0611187
0.0607703
0.0603817
0.0600882
0.0595213
0.0589568
0.0583801
0.0578822
0.0574682
0.057125
0.0567094
0.0560951
0.0556187
0.0551731
0.0546478
0.0541112
0.0536509
0.0532119
0.052584
0.0519892
0.0514765
0.0508535
0.0503096
0.0497997
0.0491614
0.0484516
0.0476514
0.0468487
0.0460451
0.0450893
0.0441439
0.0431776
0.0420861
0.040974
0.0398446
0.0385983
)
;

boundaryField
{
    inlet
    {
        type            fixedValue;
        value           uniform 0.2;
    }
    outlet
    {
        type            zeroGradient;
    }
    yzfaces
    {
        type            empty;
    }
}


// ************************************************************************* //
