/*--------------------------------*- C++ -*----------------------------------*\
| =========                 |                                                 |
| \\      /  F ield         | foam-extend: Open Source CFD                    |
|  \\    /   O peration     | Version:     5.0                                |
|   \\  /    A nd           | Web:         http://www.foam-extend.org         |
|    \\/     M anipulation  |                                                 |
\*---------------------------------------------------------------------------*/
FoamFile
{
    version     2.0;
    format      ascii;
    class       volScalarField;
    location    "8";
    object      H2O.water;
}
// * * * * * * * * * * * * * * * * * * * * * * * * * * * * * * * * * * * * * //

dimensions      [0 0 0 0 0 0 0];

internalField   nonuniform List<scalar> 
100
(
0.0196399
0.0270808
0.032382
0.0363638
0.0394919
0.0423132
0.0448838
0.0470288
0.0487718
0.0504331
0.0518942
0.0532489
0.0544178
0.0557083
0.0567239
0.0577118
0.0587501
0.0595418
0.0604795
0.0614864
0.0624032
0.0631818
0.0638237
0.0645947
0.0653042
0.0661102
0.0667472
0.0674198
0.0680501
0.0686135
0.0691788
0.0696487
0.0700199
0.0705357
0.0708155
0.0712477
0.0716457
0.0720591
0.0724153
0.0728355
0.073236
0.0736288
0.0739347
0.0741728
0.0745405
0.0748815
0.0752558
0.0756255
0.0759589
0.076164
0.0764263
0.076764
0.0771176
0.077479
0.0777331
0.0781377
0.0784121
0.0786609
0.0789218
0.0792395
0.0794772
0.0797788
0.0801401
0.0803073
0.0804439
0.0806275
0.0807599
0.0809408
0.0810935
0.0813971
0.0817675
0.082124
0.0825392
0.0828777
0.083063
0.0832516
0.0835854
0.0837989
0.0840488
0.0844246
0.084672
0.0848427
0.0849307
0.0851552
0.085359
0.0855893
0.0859024
0.0861766
0.0862712
0.0864083
0.0865925
0.0867411
0.0869372
0.0871439
0.0872836
0.0875297
0.0877611
0.0879789
0.0882404
0.0884277
)
;

boundaryField
{
    inlet
    {
        type            fixedValue;
        value           uniform 0;
    }
    outlet
    {
        type            zeroGradient;
    }
    yzfaces
    {
        type            empty;
    }
}


// ************************************************************************* //
