/*--------------------------------*- C++ -*----------------------------------*\
| =========                 |                                                 |
| \\      /  F ield         | foam-extend: Open Source CFD                    |
|  \\    /   O peration     | Version:     5.0                                |
|   \\  /    A nd           | Web:         http://www.foam-extend.org         |
|    \\/     M anipulation  |                                                 |
\*---------------------------------------------------------------------------*/
FoamFile
{
    version     2.0;
    format      ascii;
    class       volScalarField;
    location    "8";
    object      Na.water;
}
// * * * * * * * * * * * * * * * * * * * * * * * * * * * * * * * * * * * * * //

dimensions      [0 0 0 0 0 0 0];

internalField   nonuniform List<scalar> 
100
(
0.00714088
0.00984928
0.0117806
0.0132241
0.0143612
0.0153904
0.0163339
0.0171069
0.017741
0.0183533
0.0188791
0.019369
0.0197884
0.0202486
0.0206149
0.0209632
0.021349
0.0216547
0.0219973
0.0223581
0.0226952
0.022972
0.023212
0.0234889
0.0237508
0.0240553
0.0242874
0.0245271
0.0247617
0.0249532
0.0251401
0.0253089
0.0254375
0.0256309
0.0257283
0.0259011
0.0260486
0.0262188
0.0263566
0.0265054
0.026627
0.0267676
0.0268895
0.0269744
0.0270949
0.0272208
0.0273596
0.0274827
0.0275957
0.0276763
0.027788
0.0279021
0.0280313
0.0281579
0.0282602
0.0284119
0.0284997
0.0285907
0.0286916
0.0288159
0.0288926
0.0289967
0.0291375
0.029204
0.0292484
0.0293167
0.0293696
0.0294281
0.029494
0.0296235
0.0297485
0.0298764
0.0300265
0.0301459
0.0302135
0.0302813
0.0303954
0.0304661
0.0305547
0.030689
0.0307831
0.0308319
0.0308624
0.0309436
0.0310217
0.0311122
0.0312244
0.031315
0.0313443
0.0313995
0.0314751
0.0315249
0.0316017
0.0316711
0.0317332
0.0318272
0.0319013
0.0319814
0.0320693
0.0321301
)
;

boundaryField
{
    inlet
    {
        type            fixedValue;
        value           uniform 0;
    }
    outlet
    {
        type            zeroGradient;
    }
    yzfaces
    {
        type            empty;
    }
}


// ************************************************************************* //
