/*--------------------------------*- C++ -*----------------------------------*\
| =========                 |                                                 |
| \\      /  F ield         | foam-extend: Open Source CFD                    |
|  \\    /   O peration     | Version:     5.0                                |
|   \\  /    A nd           | Web:         http://www.foam-extend.org         |
|    \\/     M anipulation  |                                                 |
\*---------------------------------------------------------------------------*/
FoamFile
{
    version     2.0;
    format      ascii;
    class       surfaceScalarField;
    location    "8";
    object      phi;
}
// * * * * * * * * * * * * * * * * * * * * * * * * * * * * * * * * * * * * * //

dimensions      [0 3 -1 0 0 0 0];

internalField   nonuniform List<scalar> 
99
(
1.22423e-06
1.23268e-06
1.2367e-06
1.23133e-06
1.22785e-06
1.22988e-06
1.22757e-06
1.22126e-06
1.22915e-06
1.23719e-06
1.23622e-06
1.2427e-06
1.24357e-06
1.24833e-06
1.24463e-06
1.24123e-06
1.23506e-06
1.23127e-06
1.22689e-06
1.22916e-06
1.22552e-06
1.23252e-06
1.22575e-06
1.23436e-06
1.2329e-06
1.23297e-06
1.23626e-06
1.23305e-06
1.23452e-06
1.23149e-06
1.23067e-06
1.23411e-06
1.23184e-06
1.2334e-06
1.23027e-06
1.22645e-06
1.22889e-06
1.23146e-06
1.22742e-06
1.22858e-06
1.23022e-06
1.23477e-06
1.24044e-06
1.23677e-06
1.24053e-06
1.24033e-06
1.23967e-06
1.24161e-06
1.24433e-06
1.23966e-06
1.23896e-06
1.23942e-06
1.23968e-06
1.24152e-06
1.24205e-06
1.24362e-06
1.24472e-06
1.24782e-06
1.24538e-06
1.24649e-06
1.24567e-06
1.24662e-06
1.25275e-06
1.25324e-06
1.25096e-06
1.24966e-06
1.2462e-06
1.24501e-06
1.24315e-06
1.24334e-06
1.24339e-06
1.24319e-06
1.24615e-06
1.25016e-06
1.24766e-06
1.24844e-06
1.25298e-06
1.25216e-06
1.25093e-06
1.25217e-06
1.25065e-06
1.24523e-06
1.24394e-06
1.24398e-06
1.24436e-06
1.24539e-06
1.24793e-06
1.24815e-06
1.24249e-06
1.2397e-06
1.24124e-06
1.24115e-06
1.23671e-06
1.23701e-06
1.23805e-06
1.235e-06
1.23483e-06
1.23343e-06
1.23449e-06
)
;

boundaryField
{
    inlet
    {
        type            calculated;
        value           uniform -1.225e-06;
    }
    outlet
    {
        type            calculated;
        value           uniform 1.23512e-06;
    }
    yzfaces
    {
        type            empty;
    }
}


// ************************************************************************* //
