/*--------------------------------*- C++ -*----------------------------------*\
| =========                 |                                                 |
| \\      /  F ield         | foam-extend: Open Source CFD                    |
|  \\    /   O peration     | Version:     5.0                                |
|   \\  /    A nd           | Web:         http://www.foam-extend.org         |
|    \\/     M anipulation  |                                                 |
\*---------------------------------------------------------------------------*/
FoamFile
{
    version     2.0;
    format      ascii;
    class       surfaceScalarField;
    location    "8";
    object      phi.water;
}
// * * * * * * * * * * * * * * * * * * * * * * * * * * * * * * * * * * * * * //

dimensions      [0 3 -1 0 0 0 0];

internalField   nonuniform List<scalar> 
99
(
7.28485e-08
1.28288e-07
1.75861e-07
2.21544e-07
2.57862e-07
3.04242e-07
3.47509e-07
3.80395e-07
4.14061e-07
4.50643e-07
4.81851e-07
5.18136e-07
5.53755e-07
5.92287e-07
6.15716e-07
6.49536e-07
6.76518e-07
7.09012e-07
7.40396e-07
7.83693e-07
8.15629e-07
8.52417e-07
8.83906e-07
9.20403e-07
9.61872e-07
9.93801e-07
1.026e-06
1.05354e-06
1.08569e-06
1.1138e-06
1.14442e-06
1.17007e-06
1.18776e-06
1.21355e-06
1.23747e-06
1.26257e-06
1.2893e-06
1.31352e-06
1.33081e-06
1.3562e-06
1.38566e-06
1.41468e-06
1.43985e-06
1.45817e-06
1.49053e-06
1.52111e-06
1.54357e-06
1.56958e-06
1.59431e-06
1.61471e-06
1.64298e-06
1.67176e-06
1.70333e-06
1.73549e-06
1.76673e-06
1.79959e-06
1.82537e-06
1.86135e-06
1.8857e-06
1.91294e-06
1.94183e-06
1.97225e-06
2.00367e-06
2.02486e-06
2.04012e-06
2.05886e-06
2.07544e-06
2.09031e-06
2.1186e-06
2.15213e-06
2.18903e-06
2.21951e-06
2.2538e-06
2.2863e-06
2.30713e-06
2.34361e-06
2.38434e-06
2.40933e-06
2.43683e-06
2.47572e-06
2.5007e-06
2.51386e-06
2.54293e-06
2.57569e-06
2.60103e-06
2.63448e-06
2.66455e-06
2.68803e-06
2.70017e-06
2.72171e-06
2.75787e-06
2.78617e-06
2.80355e-06
2.84029e-06
2.87088e-06
2.89299e-06
2.92718e-06
2.95382e-06
2.98723e-06
)
;

boundaryField
{
    inlet
    {
        type            fixedValue;
        value           uniform 0;
    }
    outlet
    {
        type            calculated;
        value           uniform 3.02715e-06;
    }
    yzfaces
    {
        type            empty;
    }
}


// ************************************************************************* //
