/*--------------------------------*- C++ -*----------------------------------*\
| =========                 |                                                 |
| \\      /  F ield         | foam-extend: Open Source CFD                    |
|  \\    /   O peration     | Version:     5.0                                |
|   \\  /    A nd           | Web:         http://www.foam-extend.org         |
|    \\/     M anipulation  |                                                 |
\*---------------------------------------------------------------------------*/
FoamFile
{
    version     2.0;
    format      ascii;
    class       volVectorField;
    location    "8";
    object      U.gas;
}
// * * * * * * * * * * * * * * * * * * * * * * * * * * * * * * * * * * * * * //

dimensions      [0 1 -1 0 0 0 0];

internalField   nonuniform List<vector> 
100
(
(0.00601806 0 0)
(0.00653021 0 0)
(0.00694135 0 0)
(0.00726741 0 0)
(0.00750269 0 0)
(0.00778198 0 0)
(0.00803656 0 0)
(0.00820339 0 0)
(0.00838426 0 0)
(0.00861324 0 0)
(0.00879762 0 0)
(0.00897547 0 0)
(0.00916171 0 0)
(0.00934087 0 0)
(0.00945219 0 0)
(0.00957675 0 0)
(0.00966285 0 0)
(0.0097584 0 0)
(0.00985573 0 0)
(0.0100001 0 0)
(0.0101039 0 0)
(0.0102279 0 0)
(0.0103463 0 0)
(0.0104522 0 0)
(0.0106175 0 0)
(0.0107094 0 0)
(0.0108121 0 0)
(0.0108996 0 0)
(0.0109816 0 0)
(0.011059 0 0)
(0.0111232 0 0)
(0.0111868 0 0)
(0.011249 0 0)
(0.0113054 0 0)
(0.0113682 0 0)
(0.0114058 0 0)
(0.0114545 0 0)
(0.0115272 0 0)
(0.0115735 0 0)
(0.0116135 0 0)
(0.0116925 0 0)
(0.0117709 0 0)
(0.0118571 0 0)
(0.0119165 0 0)
(0.0119758 0 0)
(0.0120492 0 0)
(0.0120917 0 0)
(0.0121438 0 0)
(0.0122031 0 0)
(0.0122426 0 0)
(0.0122725 0 0)
(0.0123189 0 0)
(0.0123796 0 0)
(0.0124307 0 0)
(0.0124966 0 0)
(0.012553 0 0)
(0.0125979 0 0)
(0.0126699 0 0)
(0.0127115 0 0)
(0.0127385 0 0)
(0.0127862 0 0)
(0.0128255 0 0)
(0.0128843 0 0)
(0.0129388 0 0)
(0.0129528 0 0)
(0.012961 0 0)
(0.0129609 0 0)
(0.0129543 0 0)
(0.0129855 0 0)
(0.0130209 0 0)
(0.0130645 0 0)
(0.0130932 0 0)
(0.013138 0 0)
(0.0131917 0 0)
(0.0132194 0 0)
(0.0132523 0 0)
(0.013306 0 0)
(0.0133397 0 0)
(0.01336 0 0)
(0.0133928 0 0)
(0.0133979 0 0)
(0.0133703 0 0)
(0.0133639 0 0)
(0.0133798 0 0)
(0.0133887 0 0)
(0.0134216 0 0)
(0.0134509 0 0)
(0.0134705 0 0)
(0.0134502 0 0)
(0.0134208 0 0)
(0.0134345 0 0)
(0.0134471 0 0)
(0.0134301 0 0)
(0.0134267 0 0)
(0.0134338 0 0)
(0.0134327 0 0)
(0.0134289 0 0)
(0.0134236 0 0)
(0.0134259 0 0)
(0.0134411 0 0)
)
;

boundaryField
{
    inlet
    {
        type            fixedValue;
        value           uniform (0.005 0 0);
    }
    outlet
    {
        type            zeroGradient;
    }
    yzfaces
    {
        type            empty;
    }
}


// ************************************************************************* //
