/*--------------------------------*- C++ -*----------------------------------*\
| =========                 |                                                 |
| \\      /  F ield         | foam-extend: Open Source CFD                    |
|  \\    /   O peration     | Version:     5.0                                |
|   \\  /    A nd           | Web:         http://www.foam-extend.org         |
|    \\/     M anipulation  |                                                 |
\*---------------------------------------------------------------------------*/
FoamFile
{
    version     2.0;
    format      ascii;
    class       volVectorField;
    location    "8";
    object      U.water;
}
// * * * * * * * * * * * * * * * * * * * * * * * * * * * * * * * * * * * * * //

dimensions      [0 1 -1 0 0 0 0];

internalField   nonuniform List<vector> 
100
(
(3.51997e-05 0 0)
(8.26902e-05 0 0)
(0.000124568 0 0)
(0.000162215 0 0)
(0.000196484 0 0)
(0.000229214 0 0)
(0.00026512 0 0)
(0.000297262 0 0)
(0.00032542 0 0)
(0.000354507 0 0)
(0.000382759 0 0)
(0.000410314 0 0)
(0.000439134 0 0)
(0.000468729 0 0)
(0.000495597 0 0)
(0.000517832 0 0)
(0.000542762 0 0)
(0.000566146 0 0)
(0.000591885 0 0)
(0.000621173 0 0)
(0.000652532 0 0)
(0.000680428 0 0)
(0.000707091 0 0)
(0.000735023 0 0)
(0.000765227 0 0)
(0.000795572 0 0)
(0.000822658 0 0)
(0.000847771 0 0)
(0.000872402 0 0)
(0.000897011 0 0)
(0.00092074 0 0)
(0.000944666 0 0)
(0.000963081 0 0)
(0.000981272 0 0)
(0.00100068 0 0)
(0.00101983 0 0)
(0.00104141 0 0)
(0.00106312 0 0)
(0.00108076 0 0)
(0.00109886 0 0)
(0.00112101 0 0)
(0.00114534 0 0)
(0.00116822 0 0)
(0.00118569 0 0)
(0.00120576 0 0)
(0.00123112 0 0)
(0.00125331 0 0)
(0.00127388 0 0)
(0.00129524 0 0)
(0.00131278 0 0)
(0.00133131 0 0)
(0.00135444 0 0)
(0.0013787 0 0)
(0.00140497 0 0)
(0.00143026 0 0)
(0.0014565 0 0)
(0.00148098 0 0)
(0.00150501 0 0)
(0.00152932 0 0)
(0.00155071 0 0)
(0.00157285 0 0)
(0.0015971 0 0)
(0.00162382 0 0)
(0.00164573 0 0)
(0.00166006 0 0)
(0.00167326 0 0)
(0.0016869 0 0)
(0.00169964 0 0)
(0.00171578 0 0)
(0.00174037 0 0)
(0.00176934 0 0)
(0.00179837 0 0)
(0.00182698 0 0)
(0.00185629 0 0)
(0.0018783 0 0)
(0.00190015 0 0)
(0.00193153 0 0)
(0.00195903 0 0)
(0.00198068 0 0)
(0.00200819 0 0)
(0.00203517 0 0)
(0.00205034 0 0)
(0.00206532 0 0)
(0.00208904 0 0)
(0.00211323 0 0)
(0.00213733 0 0)
(0.00216491 0 0)
(0.00218831 0 0)
(0.00220233 0 0)
(0.00221473 0 0)
(0.00223668 0 0)
(0.00226222 0 0)
(0.00228063 0 0)
(0.00230131 0 0)
(0.00232835 0 0)
(0.00235001 0 0)
(0.00237263 0 0)
(0.00239764 0 0)
(0.00242262 0 0)
(0.0024506 0 0)
)
;

boundaryField
{
    inlet
    {
        type            fixedValue;
        value           uniform (0 0 0);
    }
    outlet
    {
        type            zeroGradient;
    }
    yzfaces
    {
        type            empty;
    }
}


// ************************************************************************* //
