/*--------------------------------*- C++ -*----------------------------------*\
| =========                 |                                                 |
| \\      /  F ield         | foam-extend: Open Source CFD                    |
|  \\    /   O peration     | Version:     5.0                                |
|   \\  /    A nd           | Web:         http://www.foam-extend.org         |
|    \\/     M anipulation  |                                                 |
\*---------------------------------------------------------------------------*/
FoamFile
{
    version     2.0;
    format      ascii;
    class       volScalarField;
    location    "8.74197";
    object      CO2.water;
}
// * * * * * * * * * * * * * * * * * * * * * * * * * * * * * * * * * * * * * //

dimensions      [0 0 0 0 0 0 0];

internalField   nonuniform List<scalar> 
100
(
6.09374e-05
1.39074e-05
2.62643e-06
4.48384e-07
7.17356e-08
1.09654e-08
1.61946e-09
2.32727e-10
3.27014e-11
4.50921e-12
6.11791e-13
8.18403e-14
1.08093e-14
1.41136e-15
1.82374e-16
2.33454e-17
2.96238e-18
3.72839e-19
4.65708e-20
5.77619e-21
7.11631e-22
8.71039e-23
1.05983e-23
1.28215e-24
1.54248e-25
1.84607e-26
2.19841e-27
2.60525e-28
3.07284e-29
3.60879e-30
4.21945e-31
4.91229e-32
5.69673e-33
6.57932e-34
7.57014e-35
8.67811e-36
9.91044e-37
1.12803e-37
1.27938e-38
1.44627e-39
1.62972e-40
1.83063e-41
2.04987e-42
2.28816e-43
2.54662e-44
2.82642e-45
3.12835e-46
3.4525e-47
3.79949e-48
4.17026e-49
4.5656e-50
4.98569e-51
5.43096e-52
5.90059e-53
6.39466e-54
6.91512e-55
7.45883e-56
8.02786e-57
8.61967e-58
9.23462e-59
9.87051e-60
1.05272e-60
1.12051e-61
1.18997e-62
1.26126e-63
1.3341e-64
1.40844e-65
1.48397e-66
1.56035e-67
1.63741e-68
1.71501e-69
1.79318e-70
1.87115e-71
1.94926e-72
2.02693e-73
2.10403e-74
2.18023e-75
2.25537e-76
2.32898e-77
2.4011e-78
2.47083e-79
2.5387e-80
2.6038e-81
2.66649e-82
2.72639e-83
2.78331e-84
2.83723e-85
2.88788e-86
2.93489e-87
2.97816e-88
3.01802e-89
3.05362e-90
3.08545e-91
3.11283e-92
3.13645e-93
3.15563e-94
3.17073e-95
3.18157e-96
3.18814e-97
3.19037e-98
)
;

boundaryField
{
    inlet
    {
        type            fixedValue;
        value           uniform 0;
    }
    outlet
    {
        type            zeroGradient;
    }
    yzfaces
    {
        type            empty;
    }
}


// ************************************************************************* //
