/*--------------------------------*- C++ -*----------------------------------*\
| =========                 |                                                 |
| \\      /  F ield         | foam-extend: Open Source CFD                    |
|  \\    /   O peration     | Version:     5.0                                |
|   \\  /    A nd           | Web:         http://www.foam-extend.org         |
|    \\/     M anipulation  |                                                 |
\*---------------------------------------------------------------------------*/
FoamFile
{
    version     2.0;
    format      ascii;
    class       volScalarField;
    location    "1";
    object      CO2.water;
}
// * * * * * * * * * * * * * * * * * * * * * * * * * * * * * * * * * * * * * //

dimensions      [0 0 0 0 0 0 0];

internalField   nonuniform List<scalar> 
100
(
0.00221625
0.00269675
0.00298326
0.0031899
0.00335252
0.00348379
0.00359952
0.00369974
0.00378889
0.00387278
0.00394914
0.00402439
0.0040982
0.00416967
0.00424129
0.000156489
3.37515e-05
7.80486e-06
1.92601e-06
4.96065e-07
1.29967e-07
3.44424e-08
9.71092e-09
3.0189e-09
1.00868e-09
3.56622e-10
1.25129e-10
4.10326e-11
1.2268e-11
2.98749e-12
5.49764e-13
0
0
0
0
8.06056e-15
9.01706e-15
7.19471e-15
5.09513e-15
2.99852e-15
1.66714e-15
8.54599e-16
4.22797e-16
2.05407e-16
8.95699e-17
4.00859e-17
1.68619e-17
6.54198e-18
2.07824e-18
4.00905e-19
0
0
0
0
0
0
0
0
0
0
0
0
0
0
0
0
0
0
0
0
0
0
0
0
0
0
0
0
0
0
0
0
0
0
0
0
0
0
0
0
0
0
0
0
0
0
0
0
0
0
)
;

boundaryField
{
    inlet
    {
        type            fixedValue;
        value           uniform 0;
    }
    outlet
    {
        type            zeroGradient;
    }
    yzfaces
    {
        type            empty;
    }
}


// ************************************************************************* //
