/*--------------------------------*- C++ -*----------------------------------*\
| =========                 |                                                 |
| \\      /  F ield         | foam-extend: Open Source CFD                    |
|  \\    /   O peration     | Version:     5.0                                |
|   \\  /    A nd           | Web:         http://www.foam-extend.org         |
|    \\/     M anipulation  |                                                 |
\*---------------------------------------------------------------------------*/
FoamFile
{
    version     2.0;
    format      ascii;
    class       volScalarField;
    location    "1";
    object      CO2.water;
}
// * * * * * * * * * * * * * * * * * * * * * * * * * * * * * * * * * * * * * //

dimensions      [0 0 0 0 0 0 0];

internalField   nonuniform List<scalar> 
100
(
0.00221661
0.00269442
0.00298639
0.00319626
0.00335338
0.00348756
0.00360039
0.00370039
0.00378861
0.00387148
0.00394964
0.00402581
0.000137617
2.9036e-05
6.5692e-06
1.56972e-06
3.83127e-07
8.92987e-08
1.83599e-08
3.47138e-09
1.31294e-09
7.95785e-10
5.35781e-10
3.75198e-10
2.71557e-10
1.85754e-10
1.14844e-10
6.65242e-11
3.67703e-11
1.97375e-11
1.03734e-11
5.39931e-12
2.7987e-12
1.45619e-12
7.62006e-13
3.99363e-13
2.09504e-13
1.09755e-13
5.72314e-14
2.96693e-14
1.53423e-14
7.86265e-15
3.99208e-15
2.01468e-15
1.00913e-15
5.01119e-16
2.47392e-16
1.2102e-16
5.89465e-17
2.85599e-17
1.37879e-17
6.64367e-18
3.18909e-18
1.53255e-18
7.35572e-19
3.52402e-19
1.68935e-19
8.097e-20
3.88725e-20
1.86624e-20
8.98296e-21
4.33527e-21
2.09377e-21
1.01414e-21
4.90566e-22
2.37956e-22
1.15186e-22
5.58597e-23
2.70281e-23
1.31535e-23
6.40194e-24
3.08258e-24
1.48574e-24
7.12145e-25
3.40426e-25
1.62037e-25
7.70949e-26
3.66571e-26
1.73444e-26
8.23193e-27
3.90501e-27
1.83363e-27
8.53374e-28
3.96351e-28
1.83038e-28
8.38826e-29
3.84097e-29
1.74801e-29
7.90188e-30
3.57796e-30
1.61272e-30
7.25035e-31
3.24883e-31
1.452e-31
6.46734e-32
2.881e-32
1.27892e-32
5.646e-33
2.49948e-33
1.41472e-33
)
;

boundaryField
{
    inlet
    {
        type            fixedValue;
        value           uniform 0;
    }
    outlet
    {
        type            zeroGradient;
    }
    yzfaces
    {
        type            empty;
    }
}


// ************************************************************************* //
