/*--------------------------------*- C++ -*----------------------------------*\
| =========                 |                                                 |
| \\      /  F ield         | foam-extend: Open Source CFD                    |
|  \\    /   O peration     | Version:     5.0                                |
|   \\  /    A nd           | Web:         http://www.foam-extend.org         |
|    \\/     M anipulation  |                                                 |
\*---------------------------------------------------------------------------*/
FoamFile
{
    version     2.0;
    format      ascii;
    class       volScalarField;
    location    "1";
    object      Na.water;
}
// * * * * * * * * * * * * * * * * * * * * * * * * * * * * * * * * * * * * * //

dimensions      [0 0 0 0 0 0 0];

internalField   nonuniform List<scalar> 
100
(
0.00969182
0.0117763
0.0130545
0.0139731
0.0146571
0.015242
0.0157383
0.0161779
0.0165623
0.0169216
0.0172664
0.0176009
0.0179126
0.0182278
0.0185387
0.0188388
0.0191779
0.0195073
0.0198348
0.0201712
0.0205221
0.0208438
0.0211217
0.0213641
0.0215398
0.021666
0.0217178
0.0217741
0.0217917
0.0218056
0.0218112
0.0218079
0.0218071
0.021814
0.0218189
0.0218225
0.0218201
0.0218297
0.0218165
0.0218085
0.0218272
0.0218202
0.0218076
0.0218117
0.021813
0.0218149
0.021827
0.0218228
0.0218153
0.0218174
0.0218209
0.0218115
0.0218159
0.0218263
0.0218318
0.021826
0.0218245
0.021826
0.0218284
0.0218164
0.0218116
0.0218262
0.0218071
0.0218204
0.0218126
0.0218208
0.0218176
0.0218182
0.021816
0.0218075
0.0218139
0.0218079
0.021813
0.0218216
0.0218124
0.0218106
0.0218114
0.021811
0.0218116
0.0218137
0.0218212
0.0218215
0.0218181
0.0218236
0.0218269
0.0218187
0.0218216
0.0218188
0.0218143
0.0218286
0.0218256
0.021828
0.0218262
0.0218114
0.0218044
0.0218289
0.0218191
0.0218161
0.0218291
0.0218256
)
;

boundaryField
{
    inlet
    {
        type            fixedValue;
        value           uniform 0;
    }
    outlet
    {
        type            zeroGradient;
    }
    yzfaces
    {
        type            empty;
    }
}


// ************************************************************************* //
