/*--------------------------------*- C++ -*----------------------------------*\
| =========                 |                                                 |
| \\      /  F ield         | foam-extend: Open Source CFD                    |
|  \\    /   O peration     | Version:     5.0                                |
|   \\  /    A nd           | Web:         http://www.foam-extend.org         |
|    \\/     M anipulation  |                                                 |
\*---------------------------------------------------------------------------*/
FoamFile
{
    version     2.0;
    format      ascii;
    class       volScalarField;
    location    "1";
    object      Na.water;
}
// * * * * * * * * * * * * * * * * * * * * * * * * * * * * * * * * * * * * * //

dimensions      [0 0 0 0 0 0 0];

internalField   nonuniform List<scalar> 
100
(
0.00969005
0.0117906
0.0130476
0.0139492
0.0146564
0.0152313
0.0157382
0.0161717
0.0165649
0.0169308
0.0172598
0.0175917
0.0179161
0.0182285
0.0185424
0.019835
0.0202163
0.0205677
0.0209053
0.021283
0.0216447
0.0219816
0.0222937
0.0225333
0.0227161
0.0228359
0.0229114
0.0229598
0.0229941
0.0229912
0.0230055
0.0229947
0.0229893
0.0229886
0.0229934
0.0230059
0.0230124
0.0230057
0.0229964
0.0229966
0.0229976
0.0230025
0.0230077
0.0229975
0.0229852
0.0229834
0.0229912
0.0229904
0.0229913
0.0229955
0.0230102
0.0230071
0.0229961
0.0230028
0.0230085
0.022997
0.0229979
0.0230101
0.0230167
0.0230159
0.0230221
0.0230224
0.0230039
0.0229956
0.0229913
0.0230008
0.0229962
0.0229929
0.0229863
0.0229932
0.023007
0.0229987
0.0230178
0.0229989
0.0229819
0.0229935
0.0230252
0.0230304
0.0230272
0.02302
0.0229999
0.0230192
0.0230021
0.0229896
0.0229747
0.0229946
0.0229904
0.0230051
0.0229954
0.0229793
0.022986
0.0229948
0.0229934
0.0230049
0.0229828
0.0229839
0.0229859
0.0229673
0.0229747
0.0229771
)
;

boundaryField
{
    inlet
    {
        type            fixedValue;
        value           uniform 0;
    }
    outlet
    {
        type            zeroGradient;
    }
    yzfaces
    {
        type            empty;
    }
}


// ************************************************************************* //
