/*--------------------------------*- C++ -*----------------------------------*\
| =========                 |                                                 |
| \\      /  F ield         | foam-extend: Open Source CFD                    |
|  \\    /   O peration     | Version:     5.0                                |
|   \\  /    A nd           | Web:         http://www.foam-extend.org         |
|    \\/     M anipulation  |                                                 |
\*---------------------------------------------------------------------------*/
FoamFile
{
    version     2.0;
    format      ascii;
    class       volScalarField;
    location    "1";
    object      Ns;
}
// * * * * * * * * * * * * * * * * * * * * * * * * * * * * * * * * * * * * * //

dimensions      [0 -3 0 0 1 0 0];

internalField   nonuniform List<scalar> 
100
(
60.6494
93.0975
82.7144
91.8156
113.96
102.367
112.882
101.099
110.011
113.963
118.127
110.056
174.432
175.171
172.83
173.91
172.04
171.374
175.73
171.587
172.087
170.206
172.844
173.269
173.975
167.872
164.152
167.59
170.512
173.452
171.516
173.007
175.719
172.36
170.814
171.964
172.745
171.636
172.948
175.368
173.538
179.903
177.398
171.297
171.448
172.674
171.4
169.809
171.841
177.965
174.316
174.035
173.029
174.644
172.245
174.627
174.378
175.471
173.85
173.774
173.327
168.835
173.966
169.606
170.928
172.727
172.913
171.159
174.126
175.602
175.782
174.07
172.151
174.36
174.838
173.756
173.961
172.773
174.355
172.776
171.844
174.029
170.107
173.637
171.657
173.511
172.477
171.928
174.055
172.663
172.32
173.637
171.858
174.235
174.33
171.828
173.796
174.055
171.898
170.513
)
;

boundaryField
{
    inlet
    {
        type            fixedValue;
        value           uniform 0;
    }
    outlet
    {
        type            zeroGradient;
    }
    yzfaces
    {
        type            empty;
    }
}


// ************************************************************************* //
