/*--------------------------------*- C++ -*----------------------------------*\
| =========                 |                                                 |
| \\      /  F ield         | foam-extend: Open Source CFD                    |
|  \\    /   O peration     | Version:     5.0                                |
|   \\  /    A nd           | Web:         http://www.foam-extend.org         |
|    \\/     M anipulation  |                                                 |
\*---------------------------------------------------------------------------*/
FoamFile
{
    version     2.0;
    format      ascii;
    class       volVectorField;
    location    "1";
    object      U.gas;
}
// * * * * * * * * * * * * * * * * * * * * * * * * * * * * * * * * * * * * * //

dimensions      [0 1 -1 0 0 0 0];

internalField   nonuniform List<vector> 
100
(
(0.00850116 0 0)
(0.00979206 0 0)
(0.0106857 0 0)
(0.0113415 0 0)
(0.0118917 0 0)
(0.0123339 0 0)
(0.0127306 0 0)
(0.0130427 0 0)
(0.013259 0 0)
(0.0134429 0 0)
(0.0135683 0 0)
(0.0136552 0 0)
(0.013673 0 0)
(0.01363 0 0)
(0.013537 0 0)
(0.0133599 0 0)
(0.0130798 0 0)
(0.0126836 0 0)
(0.0121586 0 0)
(0.0114692 0 0)
(0.0106065 0 0)
(0.00960249 0 0)
(0.00850979 0 0)
(0.00742788 0 0)
(0.00649078 0 0)
(0.00577975 0 0)
(0.00530172 0 0)
(0.00501314 0 0)
(0.00485084 0 0)
(0.00476176 0 0)
(0.00471652 0 0)
(0.00469681 0 0)
(0.00468801 0 0)
(0.00468252 0 0)
(0.00467896 0 0)
(0.00467546 0 0)
(0.00467153 0 0)
(0.00467287 0 0)
(0.0046735 0 0)
(0.00467506 0 0)
(0.00467768 0 0)
(0.0046744 0 0)
(0.00466932 0 0)
(0.00466432 0 0)
(0.00466457 0 0)
(0.00466807 0 0)
(0.0046689 0 0)
(0.00466911 0 0)
(0.00467347 0 0)
(0.00467767 0 0)
(0.00467557 0 0)
(0.0046695 0 0)
(0.00467108 0 0)
(0.0046735 0 0)
(0.0046722 0 0)
(0.00467272 0 0)
(0.00467416 0 0)
(0.00467428 0 0)
(0.00467364 0 0)
(0.00467301 0 0)
(0.00467212 0 0)
(0.00467149 0 0)
(0.00467172 0 0)
(0.00466849 0 0)
(0.00466814 0 0)
(0.00466861 0 0)
(0.00466864 0 0)
(0.00466695 0 0)
(0.00466382 0 0)
(0.0046627 0 0)
(0.00466593 0 0)
(0.00466854 0 0)
(0.00466647 0 0)
(0.00466548 0 0)
(0.00466785 0 0)
(0.00467286 0 0)
(0.00467689 0 0)
(0.00467192 0 0)
(0.00466846 0 0)
(0.00466899 0 0)
(0.00466886 0 0)
(0.00466858 0 0)
(0.00466661 0 0)
(0.00466491 0 0)
(0.00466928 0 0)
(0.00467212 0 0)
(0.00467316 0 0)
(0.00467657 0 0)
(0.00467255 0 0)
(0.00466603 0 0)
(0.00466691 0 0)
(0.00466324 0 0)
(0.0046609 0 0)
(0.00465893 0 0)
(0.00465575 0 0)
(0.00465314 0 0)
(0.00465238 0 0)
(0.0046488 0 0)
(0.00464974 0 0)
(0.00465971 0 0)
)
;

boundaryField
{
    inlet
    {
        type            fixedValue;
        value           uniform (0.005 0 0);
    }
    outlet
    {
        type            zeroGradient;
    }
    yzfaces
    {
        type            empty;
    }
}


// ************************************************************************* //
