/*--------------------------------*- C++ -*----------------------------------*\
| =========                 |                                                 |
| \\      /  F ield         | foam-extend: Open Source CFD                    |
|  \\    /   O peration     | Version:     5.0                                |
|   \\  /    A nd           | Web:         http://www.foam-extend.org         |
|    \\/     M anipulation  |                                                 |
\*---------------------------------------------------------------------------*/
FoamFile
{
    version     2.0;
    format      ascii;
    class       volVectorField;
    location    "1";
    object      U.water;
}
// * * * * * * * * * * * * * * * * * * * * * * * * * * * * * * * * * * * * * //

dimensions      [0 1 -1 0 0 0 0];

internalField   nonuniform List<vector> 
100
(
(0.000174376 0 0)
(0.000431905 0 0)
(0.000653567 0 0)
(0.000861393 0 0)
(0.00105701 0 0)
(0.00124398 0 0)
(0.0014314 0 0)
(0.00161424 0 0)
(0.00179194 0 0)
(0.00196774 0 0)
(0.00214862 0 0)
(0.00233955 0 0)
(0.00253334 0 0)
(0.00272924 0 0)
(0.00293554 0 0)
(0.00314697 0 0)
(0.00337043 0 0)
(0.00360623 0 0)
(0.00384402 0 0)
(0.00407533 0 0)
(0.00429601 0 0)
(0.00449905 0 0)
(0.00466385 0 0)
(0.0047825 0 0)
(0.00486444 0 0)
(0.00492112 0 0)
(0.00495248 0 0)
(0.00497075 0 0)
(0.00498389 0 0)
(0.00499008 0 0)
(0.00499519 0 0)
(0.00499481 0 0)
(0.00499079 0 0)
(0.00498847 0 0)
(0.00499034 0 0)
(0.00499261 0 0)
(0.00499565 0 0)
(0.0050011 0 0)
(0.00500376 0 0)
(0.00499864 0 0)
(0.00499694 0 0)
(0.00500107 0 0)
(0.00500014 0 0)
(0.00499772 0 0)
(0.00499864 0 0)
(0.00499885 0 0)
(0.00499969 0 0)
(0.0050028 0 0)
(0.00500381 0 0)
(0.00500284 0 0)
(0.0050034 0 0)
(0.00500348 0 0)
(0.00500091 0 0)
(0.00500039 0 0)
(0.00500365 0 0)
(0.0050048 0 0)
(0.00500112 0 0)
(0.00500083 0 0)
(0.00500235 0 0)
(0.0049974 0 0)
(0.00499109 0 0)
(0.00498983 0 0)
(0.00498819 0 0)
(0.00498917 0 0)
(0.004991 0 0)
(0.00499304 0 0)
(0.00499716 0 0)
(0.00500053 0 0)
(0.00500263 0 0)
(0.00500085 0 0)
(0.00499709 0 0)
(0.0049917 0 0)
(0.00498815 0 0)
(0.0049866 0 0)
(0.00498629 0 0)
(0.00498669 0 0)
(0.00498761 0 0)
(0.00498859 0 0)
(0.0049887 0 0)
(0.00498991 0 0)
(0.00499291 0 0)
(0.00499558 0 0)
(0.00499531 0 0)
(0.00499677 0 0)
(0.00500245 0 0)
(0.00500553 0 0)
(0.00500799 0 0)
(0.00500953 0 0)
(0.00500426 0 0)
(0.00500377 0 0)
(0.00500853 0 0)
(0.00501312 0 0)
(0.00501628 0 0)
(0.00501319 0 0)
(0.00500407 0 0)
(0.00500109 0 0)
(0.00500198 0 0)
(0.00499843 0 0)
(0.00500024 0 0)
(0.00500462 0 0)
)
;

boundaryField
{
    inlet
    {
        type            fixedValue;
        value           uniform (0 0 0);
    }
    outlet
    {
        type            zeroGradient;
    }
    yzfaces
    {
        type            empty;
    }
}


// ************************************************************************* //
