/*--------------------------------*- C++ -*----------------------------------*\
| =========                 |                                                 |
| \\      /  F ield         | foam-extend: Open Source CFD                    |
|  \\    /   O peration     | Version:     5.0                                |
|   \\  /    A nd           | Web:         http://www.foam-extend.org         |
|    \\/     M anipulation  |                                                 |
\*---------------------------------------------------------------------------*/
FoamFile
{
    version     2.0;
    format      ascii;
    class       volScalarField;
    location    "5";
    object      alpha.gas;
}
// * * * * * * * * * * * * * * * * * * * * * * * * * * * * * * * * * * * * * //

dimensions      [0 0 0 0 0 0 0];

internalField   nonuniform List<scalar> 
100
(
0.156919
0.141908
0.132331
0.12488
0.11827
0.1128
0.108912
0.105342
0.102147
0.0990897
0.0965252
0.0937723
0.0913837
0.0892347
0.087017
0.0851429
0.0834581
0.0818608
0.0806065
0.0793018
0.0779494
0.0767469
0.0757326
0.0744613
0.0730118
0.0716141
0.0703259
0.0691038
0.0678371
0.0666143
0.0656489
0.0646862
0.063527
0.0626507
0.0615191
0.0603771
0.0592987
0.058079
0.0566777
0.0551803
0.0533236
0.0509724
0.0481797
0.0440438
0.0368792
0.022826
0.0250743
0.0254737
0.025509
0.0254616
0.0254037
0.0253782
0.02537
0.0253621
0.0253626
0.0253538
0.0253363
0.0253121
0.0252978
0.0252969
0.0252945
0.0252921
0.0252896
0.0252732
0.0252486
0.0252183
0.0251557
0.0250905
0.0249816
0.0248303
0.0246361
0.0243676
0.0240347
0.023603
0.0230611
0.0224049
0.0216054
0.0206507
0.0195699
0.018351
0.0170426
0.0157026
0.0144114
0.0132508
0.0122864
0.0115446
0.0110077
0.0106407
0.0103957
0.0102425
0.0101482
0.0100891
0.0100538
0.0100326
0.0100195
0.0100115
0.0100059
0.010003
0.0100009
0.00999996
)
;

boundaryField
{
    inlet
    {
        type            fixedValue;
        value           uniform 0.2;
    }
    outlet
    {
        type            zeroGradient;
    }
    yzfaces
    {
        type            empty;
    }
}


// ************************************************************************* //
