/*--------------------------------*- C++ -*----------------------------------*\
| =========                 |                                                 |
| \\      /  F ield         | foam-extend: Open Source CFD                    |
|  \\    /   O peration     | Version:     5.0                                |
|   \\  /    A nd           | Web:         http://www.foam-extend.org         |
|    \\/     M anipulation  |                                                 |
\*---------------------------------------------------------------------------*/
FoamFile
{
    version     2.0;
    format      ascii;
    class       volScalarField;
    location    "5";
    object      Cl.water;
}
// * * * * * * * * * * * * * * * * * * * * * * * * * * * * * * * * * * * * * //

dimensions      [0 0 0 0 0 0 0];

internalField   nonuniform List<scalar> 
100
(
0.00491838
0.00663
0.00771869
0.00859244
0.00929406
0.00993198
0.0104376
0.0108473
0.0112106
0.0115291
0.011848
0.0120955
0.0123899
0.0126527
0.012896
0.0131276
0.0133539
0.0134914
0.0136943
0.0138213
0.0139866
0.0141299
0.0142671
0.014387
0.0145168
0.0146798
0.0148288
0.0149904
0.0151332
0.0152873
0.0154107
0.0155232
0.0156593
0.0157745
0.015895
0.0160277
0.0161415
0.0162823
0.0164482
0.016619
0.0168156
0.0171126
0.0174276
0.0178939
0.0187013
0.0202018
0.0206722
0.0209255
0.0210412
0.0211128
0.0211236
0.0211493
0.0211411
0.0211451
0.021158
0.0211577
0.0211733
0.0211717
0.0211701
0.0211678
0.0211717
0.0211647
0.0211618
0.0211586
0.0211585
0.0211645
0.0211723
0.0211908
0.0211999
0.021211
0.0212584
0.0212697
0.0213149
0.0213561
0.0214291
0.0215025
0.0215915
0.0217153
0.0218559
0.0219989
0.0221496
0.0222953
0.0224511
0.0225851
0.0227262
0.0228139
0.0228735
0.0229161
0.022948
0.0229611
0.0229702
0.0229875
0.0229808
0.0230055
0.0229934
0.0229982
0.023017
0.0230078
0.023005
0.0229916
)
;

boundaryField
{
    inlet
    {
        type            fixedValue;
        value           uniform 0;
    }
    outlet
    {
        type            zeroGradient;
    }
    yzfaces
    {
        type            empty;
    }
}


// ************************************************************************* //
