/*--------------------------------*- C++ -*----------------------------------*\
| =========                 |                                                 |
| \\      /  F ield         | foam-extend: Open Source CFD                    |
|  \\    /   O peration     | Version:     5.0                                |
|   \\  /    A nd           | Web:         http://www.foam-extend.org         |
|    \\/     M anipulation  |                                                 |
\*---------------------------------------------------------------------------*/
FoamFile
{
    version     2.0;
    format      ascii;
    class       volScalarField;
    location    "5";
    object      H2O.gas;
}
// * * * * * * * * * * * * * * * * * * * * * * * * * * * * * * * * * * * * * //

dimensions      [0 0 0 0 0 0 0];

internalField   nonuniform List<scalar> 
100
(
9.62816e-08
5.78844e-07
0.000126822
0.000153585
0.00015232
0.00014737
0.000149765
0.000154944
0.000160692
0.000164154
0.000166758
0.00016542
0.000164036
0.00016128
0.00015673
0.000152155
0.000150522
0.000149108
0.000149564
0.000147249
0.000142992
0.000137751
0.000132157
0.000125551
0.00011887
0.000112767
0.000107238
0.000102462
9.90048e-05
0.000103106
0.000106397
0.000108076
0.000110795
0.00012201
0.000113799
0.00011501
0.000113423
0.000111507
0.000109506
0.000106812
0.000103312
9.92673e-05
9.38286e-05
8.57741e-05
7.18211e-05
4.44529e-05
0.000617115
0.00124445
0.0019602
0.00276615
0.003648
0.00461056
0.00563395
0.00671918
0.00785417
0.00901901
0.0102048
0.0113843
0.0125607
0.0137189
0.0148476
0.0159292
0.0169625
0.0179302
0.0188297
0.019668
0.0204024
0.0210761
0.0216233
0.0220559
0.022403
0.0225655
0.022627
0.0225139
0.0222487
0.021811
0.021183
0.0203686
0.0193985
0.0182469
0.0169745
0.0156557
0.0143889
0.0132368
0.0122882
0.0115446
0.0110066
0.0106404
0.0103992
0.0102407
0.010142
0.0100877
0.0100477
0.0100362
0.0100182
0.0100133
0.0100173
0.0100096
0.0100037
0.0099948
)
;

boundaryField
{
    inlet
    {
        type            fixedValue;
        value           uniform 0;
    }
    outlet
    {
        type            zeroGradient;
    }
    yzfaces
    {
        type            empty;
    }
}


// ************************************************************************* //
