/*--------------------------------*- C++ -*----------------------------------*\
| =========                 |                                                 |
| \\      /  F ield         | foam-extend: Open Source CFD                    |
|  \\    /   O peration     | Version:     5.0                                |
|   \\  /    A nd           | Web:         http://www.foam-extend.org         |
|    \\/     M anipulation  |                                                 |
\*---------------------------------------------------------------------------*/
FoamFile
{
    version     2.0;
    format      ascii;
    class       volScalarField;
    location    "5";
    object      Ns;
}
// * * * * * * * * * * * * * * * * * * * * * * * * * * * * * * * * * * * * * //

dimensions      [0 -3 0 0 1 0 0];

internalField   nonuniform List<scalar> 
100
(
0.739207
0.0710488
0.386413
0.0762172
0.946891
0.116783
0.219684
0.703417
0.180875
0.663283
0.339323
0.390989
0.407106
0.553173
0.975576
0.467981
1.14689
0.521315
0.380079
0.785853
0.0691171
0.615222
0.311233
0.141546
0.232556
0.261002
0.130864
0.508975
0.14085
0.440252
0.42403
0.501154
0.0823887
1.63364
0.351351
0.66169
0.670274
0.017206
0.101823
0.551132
0.551234
0.114651
2.61002
4.83855
5.61569
23.9386
2
2
2
2
2
2
2
2
2
2
2
2
2
2
2
2
2
2
2
2
2
2
2
2
2
2
2
2
2
2
2
2
2
2
2
2
2
2
2
2
2
2
2
2
2
2
2
2
2
2
2
2
2
2
)
;

boundaryField
{
    inlet
    {
        type            fixedValue;
        value           uniform 0;
    }
    outlet
    {
        type            zeroGradient;
    }
    yzfaces
    {
        type            empty;
    }
}


// ************************************************************************* //
