/*--------------------------------*- C++ -*----------------------------------*\
| =========                 |                                                 |
| \\      /  F ield         | foam-extend: Open Source CFD                    |
|  \\    /   O peration     | Version:     5.0                                |
|   \\  /    A nd           | Web:         http://www.foam-extend.org         |
|    \\/     M anipulation  |                                                 |
\*---------------------------------------------------------------------------*/
FoamFile
{
    version     2.0;
    format      ascii;
    class       surfaceScalarField;
    location    "5";
    object      phi;
}
// * * * * * * * * * * * * * * * * * * * * * * * * * * * * * * * * * * * * * //

dimensions      [0 3 -1 0 0 0 0];

internalField   nonuniform List<scalar> 
99
(
1.22614e-06
1.22271e-06
1.22962e-06
1.22762e-06
1.21797e-06
1.23712e-06
1.23634e-06
1.24174e-06
1.24515e-06
1.25077e-06
1.24398e-06
1.25063e-06
1.24783e-06
1.24478e-06
1.24078e-06
1.238e-06
1.23478e-06
1.23538e-06
1.23134e-06
1.2336e-06
1.23849e-06
1.23984e-06
1.23779e-06
1.23524e-06
1.23108e-06
1.23196e-06
1.23307e-06
1.23355e-06
1.23348e-06
1.23245e-06
1.23089e-06
1.23077e-06
1.23421e-06
1.22897e-06
1.22766e-06
1.23071e-06
1.22928e-06
1.22886e-06
1.22709e-06
1.22426e-06
1.22351e-06
1.2224e-06
1.22083e-06
1.21703e-06
1.21694e-06
1.21047e-06
1.21456e-06
1.21532e-06
1.21727e-06
1.21766e-06
1.21872e-06
1.22046e-06
1.21962e-06
1.22159e-06
1.22125e-06
1.22082e-06
1.22015e-06
1.22127e-06
1.22376e-06
1.22165e-06
1.22134e-06
1.21936e-06
1.21889e-06
1.21822e-06
1.22069e-06
1.22068e-06
1.22157e-06
1.22045e-06
1.22129e-06
1.22116e-06
1.22082e-06
1.22069e-06
1.21946e-06
1.22124e-06
1.22132e-06
1.21989e-06
1.22035e-06
1.22128e-06
1.22098e-06
1.22036e-06
1.22056e-06
1.22204e-06
1.22275e-06
1.22267e-06
1.22289e-06
1.2216e-06
1.22229e-06
1.22242e-06
1.22183e-06
1.22167e-06
1.222e-06
1.22115e-06
1.22264e-06
1.22131e-06
1.22192e-06
1.22157e-06
1.2214e-06
1.22078e-06
1.21948e-06
)
;

boundaryField
{
    inlet
    {
        type            calculated;
        value           uniform -1.225e-06;
    }
    outlet
    {
        type            calculated;
        value           uniform 1.21704e-06;
    }
    yzfaces
    {
        type            empty;
    }
}


// ************************************************************************* //
