/*--------------------------------*- C++ -*----------------------------------*\
| =========                 |                                                 |
| \\      /  F ield         | foam-extend: Open Source CFD                    |
|  \\    /   O peration     | Version:     5.0                                |
|   \\  /    A nd           | Web:         http://www.foam-extend.org         |
|    \\/     M anipulation  |                                                 |
\*---------------------------------------------------------------------------*/
FoamFile
{
    version     2.0;
    format      ascii;
    class       volScalarField;
    location    "4";
    object      alpha.gas;
}
// * * * * * * * * * * * * * * * * * * * * * * * * * * * * * * * * * * * * * //

dimensions      [0 0 0 0 0 0 0];

internalField   nonuniform List<scalar> 
100
(
0.151497
0.136431
0.127587
0.120275
0.113387
0.10809
0.103527
0.09891
0.0953434
0.0924244
0.0895629
0.0879173
0.0858171
0.0840341
0.0822959
0.0799745
0.078466
0.0768363
0.0755306
0.0739136
0.0727131
0.071456
0.0701187
0.068938
0.0677311
0.0667908
0.065587
0.0644034
0.0633638
0.0623809
0.0615428
0.0605415
0.0595912
0.0587366
0.0580158
0.05707
0.0561758
0.0554553
0.054686
0.0539161
0.0531413
0.0523549
0.0517039
0.0509411
0.0502106
0.0495312
0.0487614
0.0479908
0.0472069
0.0463824
0.04562
0.0448141
0.0439813
0.0432065
0.0424319
0.0415827
0.040718
0.0398521
0.0389427
0.0380102
0.0370136
0.0359768
0.0348901
0.0337491
0.0325193
0.0312239
0.0297939
0.0282592
0.0266195
0.0248363
0.0229252
0.020951
0.018931
0.0169664
0.0151676
0.0136318
0.0124214
0.0115415
0.0109475
0.0105676
0.010337
0.0101982
0.0101169
0.0100682
0.0100416
0.0100234
0.0100129
0.0100077
0.0100059
0.010005
0.0100036
0.0100044
0.0100047
0.0100036
0.0100039
0.0100042
0.0100027
0.0100004
0.0099986
0.00999983
)
;

boundaryField
{
    inlet
    {
        type            fixedValue;
        value           uniform 0.2;
    }
    outlet
    {
        type            zeroGradient;
    }
    yzfaces
    {
        type            empty;
    }
}


// ************************************************************************* //
