/*--------------------------------*- C++ -*----------------------------------*\
| =========                 |                                                 |
| \\      /  F ield         | foam-extend: Open Source CFD                    |
|  \\    /   O peration     | Version:     5.0                                |
|   \\  /    A nd           | Web:         http://www.foam-extend.org         |
|    \\/     M anipulation  |                                                 |
\*---------------------------------------------------------------------------*/
FoamFile
{
    version     2.0;
    format      ascii;
    class       volScalarField;
    location    "4";
    object      alpha.gas;
}
// * * * * * * * * * * * * * * * * * * * * * * * * * * * * * * * * * * * * * //

dimensions      [0 0 0 0 0 0 0];

internalField   nonuniform List<scalar> 
100
(
0.151751
0.136522
0.127047
0.119435
0.112789
0.107954
0.103451
0.0992369
0.0959152
0.0925625
0.0896825
0.0878423
0.0856997
0.0836378
0.0820768
0.0802247
0.0784758
0.0767379
0.075334
0.0740291
0.072593
0.0712949
0.0700638
0.0689513
0.0678796
0.0668025
0.0656847
0.0645817
0.063521
0.0626716
0.0616568
0.0607701
0.0597899
0.0589552
0.0581467
0.0572906
0.0564074
0.0555513
0.0547567
0.0540884
0.0533018
0.0525863
0.0519572
0.0511069
0.0503888
0.0495774
0.0487497
0.0479883
0.0471736
0.046472
0.04565
0.0448445
0.0440022
0.0432257
0.0423711
0.0415259
0.0406815
0.0397892
0.0388772
0.0379328
0.0369658
0.0359213
0.034842
0.033717
0.0325178
0.0312112
0.0298014
0.0282983
0.0266817
0.0249128
0.0230353
0.021069
0.0190567
0.0170936
0.0152884
0.0137333
0.0125014
0.0115986
0.0109878
0.0105948
0.0103526
0.0102046
0.0101176
0.0100662
0.0100355
0.0100187
0.0100093
0.0100043
0.00999976
0.0099971
0.00999869
0.00999955
0.0100009
0.0100001
0.00999923
0.00999739
0.00999658
0.00999724
0.00999649
0.00999554
)
;

boundaryField
{
    inlet
    {
        type            fixedValue;
        value           uniform 0.2;
    }
    outlet
    {
        type            zeroGradient;
    }
    yzfaces
    {
        type            empty;
    }
}


// ************************************************************************* //
