/*--------------------------------*- C++ -*----------------------------------*\
| =========                 |                                                 |
| \\      /  F ield         | foam-extend: Open Source CFD                    |
|  \\    /   O peration     | Version:     5.0                                |
|   \\  /    A nd           | Web:         http://www.foam-extend.org         |
|    \\/     M anipulation  |                                                 |
\*---------------------------------------------------------------------------*/
FoamFile
{
    version     2.0;
    format      ascii;
    class       volScalarField;
    location    "4";
    object      alpha.gas;
}
// * * * * * * * * * * * * * * * * * * * * * * * * * * * * * * * * * * * * * //

dimensions      [0 0 0 0 0 0 0];

internalField   nonuniform List<scalar> 
100
(
0.15151
0.137457
0.126943
0.119456
0.11344
0.108092
0.103401
0.0995746
0.0962406
0.0928954
0.0901556
0.0878537
0.0857105
0.0834828
0.0820066
0.0800735
0.0785699
0.0766919
0.0754553
0.0739431
0.0725701
0.0712024
0.0699702
0.0687759
0.0676552
0.0665075
0.0655682
0.0644335
0.0634112
0.0623669
0.0614238
0.0605169
0.0595553
0.0587112
0.0578887
0.0570452
0.0561227
0.0553344
0.0545902
0.0538676
0.0531105
0.052398
0.0517066
0.0509898
0.0501991
0.0494556
0.0487687
0.0479939
0.047254
0.0464218
0.0455988
0.0448115
0.043996
0.0431683
0.0423348
0.0414808
0.040626
0.0397507
0.0388395
0.0378812
0.0368982
0.0358721
0.0347908
0.0336066
0.0323543
0.0310483
0.029636
0.0280965
0.0264393
0.0246337
0.022713
0.0207042
0.018695
0.0167384
0.014964
0.0134583
0.0122939
0.0114536
0.0108873
0.0105292
0.0103084
0.0101787
0.0101013
0.0100571
0.0100312
0.0100168
0.0100086
0.0100057
0.0100052
0.0100049
0.0100062
0.0100067
0.0100071
0.0100081
0.0100069
0.0100056
0.0100027
0.0100018
0.0100023
0.0100045
)
;

boundaryField
{
    inlet
    {
        type            fixedValue;
        value           uniform 0.2;
    }
    outlet
    {
        type            zeroGradient;
    }
    yzfaces
    {
        type            empty;
    }
}


// ************************************************************************* //
