/*--------------------------------*- C++ -*----------------------------------*\
| =========                 |                                                 |
| \\      /  F ield         | foam-extend: Open Source CFD                    |
|  \\    /   O peration     | Version:     5.0                                |
|   \\  /    A nd           | Web:         http://www.foam-extend.org         |
|    \\/     M anipulation  |                                                 |
\*---------------------------------------------------------------------------*/
FoamFile
{
    version     2.0;
    format      ascii;
    class       volScalarField;
    location    "4";
    object      Cl.water;
}
// * * * * * * * * * * * * * * * * * * * * * * * * * * * * * * * * * * * * * //

dimensions      [0 0 0 0 0 0 0];

internalField   nonuniform List<scalar> 
100
(
0.00557006
0.00718435
0.00839388
0.00925516
0.00995826
0.0105628
0.0110895
0.0115356
0.0119121
0.0122927
0.0126153
0.0128748
0.0131303
0.0133751
0.0135528
0.0137682
0.0139432
0.0141515
0.0143101
0.0144758
0.0146325
0.0147865
0.0149268
0.0150681
0.0151976
0.0153281
0.015444
0.0155707
0.0156897
0.0158014
0.0159094
0.0160154
0.0161233
0.0162229
0.0163194
0.0164189
0.0165192
0.016615
0.0167019
0.0167799
0.0168646
0.0169486
0.0170344
0.0171161
0.0172024
0.0172904
0.017373
0.017453
0.0175442
0.017636
0.0177241
0.0178174
0.0179106
0.0180074
0.0180927
0.0181436
0.0180305
0.0193482
0.0195065
0.0196118
0.0197291
0.0198637
0.0199964
0.0201381
0.0203026
0.0204792
0.0206422
0.0208298
0.0210362
0.0212358
0.0214607
0.0217207
0.0219614
0.0222171
0.0224486
0.0226132
0.0227536
0.0228653
0.0229302
0.0229611
0.0229848
0.0229838
0.0229866
0.0229842
0.0229841
0.0229699
0.0229857
0.0229828
0.0229785
0.023003
0.0230103
0.0230307
0.023039
0.0230332
0.0230348
0.0230364
0.0230446
0.0230297
0.0230301
0.0230148
)
;

boundaryField
{
    inlet
    {
        type            fixedValue;
        value           uniform 0;
    }
    outlet
    {
        type            zeroGradient;
    }
    yzfaces
    {
        type            empty;
    }
}


// ************************************************************************* //
