/*--------------------------------*- C++ -*----------------------------------*\
| =========                 |                                                 |
| \\      /  F ield         | foam-extend: Open Source CFD                    |
|  \\    /   O peration     | Version:     5.0                                |
|   \\  /    A nd           | Web:         http://www.foam-extend.org         |
|    \\/     M anipulation  |                                                 |
\*---------------------------------------------------------------------------*/
FoamFile
{
    version     2.0;
    format      ascii;
    class       volScalarField;
    location    "4";
    object      Cl.water;
}
// * * * * * * * * * * * * * * * * * * * * * * * * * * * * * * * * * * * * * //

dimensions      [0 0 0 0 0 0 0];

internalField   nonuniform List<scalar> 
100
(
0.00554123
0.00729123
0.00837585
0.00926174
0.0100111
0.0105734
0.0110999
0.0115806
0.0119613
0.0123359
0.0126625
0.0128755
0.0131274
0.0133548
0.013547
0.0137532
0.0139529
0.0141481
0.0143127
0.0144668
0.0146274
0.014783
0.0149179
0.0150483
0.0151707
0.0153
0.0154196
0.0155521
0.0156656
0.0157736
0.0158864
0.0159927
0.0161047
0.0162081
0.0162959
0.0163954
0.0164942
0.0165894
0.0166798
0.0167654
0.0168457
0.0169273
0.0170135
0.0170945
0.0171894
0.0172792
0.0173687
0.0174585
0.0175434
0.017635
0.0177209
0.0178173
0.0179104
0.0180051
0.0180891
0.0181484
0.018038
0.0193354
0.019487
0.019619
0.0197336
0.0198567
0.0200056
0.0201397
0.0202858
0.0204339
0.0205963
0.0207866
0.0209827
0.0212024
0.0214132
0.0216627
0.0218953
0.022135
0.0223568
0.0225388
0.0226731
0.0228076
0.0228922
0.0229206
0.0229785
0.0229745
0.0229832
0.0230059
0.0229799
0.0229928
0.0229858
0.0229962
0.0229947
0.022991
0.0230095
0.0230092
0.0230149
0.0230252
0.0229913
0.0230248
0.0229937
0.0229834
0.0230051
0.0229999
)
;

boundaryField
{
    inlet
    {
        type            fixedValue;
        value           uniform 0;
    }
    outlet
    {
        type            zeroGradient;
    }
    yzfaces
    {
        type            empty;
    }
}


// ************************************************************************* //
