/*--------------------------------*- C++ -*----------------------------------*\
| =========                 |                                                 |
| \\      /  F ield         | foam-extend: Open Source CFD                    |
|  \\    /   O peration     | Version:     5.0                                |
|   \\  /    A nd           | Web:         http://www.foam-extend.org         |
|    \\/     M anipulation  |                                                 |
\*---------------------------------------------------------------------------*/
FoamFile
{
    version     2.0;
    format      ascii;
    class       volScalarField;
    location    "4";
    object      Cl.water;
}
// * * * * * * * * * * * * * * * * * * * * * * * * * * * * * * * * * * * * * //

dimensions      [0 0 0 0 0 0 0];

internalField   nonuniform List<scalar> 
100
(
0.0055656
0.00728807
0.00832167
0.00916573
0.00995225
0.0105614
0.011069
0.0116058
0.012017
0.0123477
0.012672
0.0128676
0.0131107
0.0133115
0.0135216
0.0137694
0.0139603
0.0141382
0.0143011
0.0144751
0.0146212
0.0147648
0.0149136
0.0150529
0.0151934
0.0153096
0.0154349
0.0155677
0.0156847
0.0157978
0.0159033
0.0160126
0.016122
0.0162177
0.016308
0.0164066
0.0165125
0.016608
0.0166919
0.0167755
0.0168649
0.0169534
0.0170405
0.0171249
0.0172131
0.0172933
0.0173739
0.0174576
0.0175528
0.0176416
0.0177285
0.017822
0.017911
0.0180095
0.0181022
0.0182016
0.018295
0.0183945
0.0184965
0.018607
0.0187186
0.0188413
0.0189511
0.0190737
0.0191639
0.0190662
0.0205201
0.0207698
0.0209961
0.0212219
0.0214387
0.0216761
0.0219171
0.0221438
0.0223851
0.022556
0.0227171
0.0227998
0.0228721
0.0229118
0.0229585
0.0229917
0.0230001
0.0230054
0.0229931
0.0230297
0.0230259
0.0230013
0.0229826
0.0230025
0.0230015
0.0230139
0.0229918
0.0229889
0.023001
0.0230087
0.0230315
0.0230281
0.0230201
0.0229889
)
;

boundaryField
{
    inlet
    {
        type            fixedValue;
        value           uniform 0;
    }
    outlet
    {
        type            zeroGradient;
    }
    yzfaces
    {
        type            empty;
    }
}


// ************************************************************************* //
