/*--------------------------------*- C++ -*----------------------------------*\
| =========                 |                                                 |
| \\      /  F ield         | foam-extend: Open Source CFD                    |
|  \\    /   O peration     | Version:     5.0                                |
|   \\  /    A nd           | Web:         http://www.foam-extend.org         |
|    \\/     M anipulation  |                                                 |
\*---------------------------------------------------------------------------*/
FoamFile
{
    version     2.0;
    format      ascii;
    class       volScalarField;
    location    "4";
    object      CO2.gas;
}
// * * * * * * * * * * * * * * * * * * * * * * * * * * * * * * * * * * * * * //

dimensions      [0 0 0 0 0 0 0];

internalField   nonuniform List<scalar> 
100
(
0.151215
0.137189
0.126696
0.119223
0.113219
0.107882
0.1032
0.0993807
0.0960531
0.0927145
0.08998
0.0876826
0.0855436
0.0833202
0.0818469
0.0799176
0.0784169
0.0765426
0.0753083
0.0737991
0.0724288
0.0710637
0.0698339
0.068642
0.0675234
0.066378
0.0654405
0.064308
0.0632877
0.0622454
0.0613041
0.0603991
0.0594393
0.0585969
0.057776
0.0569341
0.0560134
0.0552266
0.0544839
0.0537627
0.0530071
0.052296
0.0516059
0.0508905
0.0501013
0.0493593
0.0486737
0.0479004
0.047162
0.0463314
0.04551
0.0447242
0.0439103
0.0430843
0.0422523
0.0414
0.0405469
0.032429
0.02839
0.0245897
0.0210992
0.0179092
0.0149927
0.0123382
0.00999133
0.00794036
0.00614933
0.00463048
0.00337423
0.00235702
0.00157014
0.000985754
0.000577949
0.000312102
0.000154067
6.92575e-05
2.86815e-05
1.12156e-05
4.26995e-06
1.64607e-06
6.60531e-07
2.79262e-07
1.24426e-07
5.74146e-08
2.70557e-08
1.29148e-08
6.19106e-09
2.96313e-09
1.42904e-09
6.80544e-10
3.22733e-10
1.52676e-10
7.19795e-11
3.41051e-11
1.61431e-11
7.59392e-12
3.51509e-12
1.59979e-12
7.1455e-13
3.91313e-13
)
;

boundaryField
{
    inlet
    {
        type            fixedValue;
        value           uniform 0.2;
    }
    outlet
    {
        type            zeroGradient;
    }
    yzfaces
    {
        type            empty;
    }
}


// ************************************************************************* //
