/*--------------------------------*- C++ -*----------------------------------*\
| =========                 |                                                 |
| \\      /  F ield         | foam-extend: Open Source CFD                    |
|  \\    /   O peration     | Version:     5.0                                |
|   \\  /    A nd           | Web:         http://www.foam-extend.org         |
|    \\/     M anipulation  |                                                 |
\*---------------------------------------------------------------------------*/
FoamFile
{
    version     2.0;
    format      ascii;
    class       volScalarField;
    location    "4";
    object      CO2.water;
}
// * * * * * * * * * * * * * * * * * * * * * * * * * * * * * * * * * * * * * //

dimensions      [0 0 0 0 0 0 0];

internalField   nonuniform List<scalar> 
100
(
0.0012739
0.00166962
0.00190189
0.00209393
0.00227484
0.00241397
0.00253382
0.00265508
0.00274876
0.00282542
0.00290058
0.0029438
0.00299896
0.00304579
0.00309144
0.00315241
0.00319203
0.00323484
0.00326913
0.0033116
0.00334313
0.00337615
0.00341127
0.00344228
0.00347398
0.00349868
0.0035303
0.00356138
0.00358869
0.0036145
0.00363651
0.00366281
0.00368777
0.00371022
0.00372915
0.00375399
0.00377748
0.0037964
0.00381661
0.00383683
0.00385718
0.00387783
0.00389493
0.00391496
0.00393415
0.00395199
0.00397221
0.00399245
0.00401304
0.0040347
0.00405472
0.00407589
0.00409776
0.00411811
0.00413845
0.00416076
0.00418347
0.00420621
0.0042301
0.00425459
0.00428076
0.00430799
0.00433654
0.0043665
0.0043988
0.00443283
0.000252106
6.1977e-05
1.56864e-05
4.12179e-06
1.14585e-06
3.43027e-07
1.23086e-07
4.78969e-08
1.88721e-08
7.56011e-09
3.05329e-09
1.24475e-09
5.08651e-10
2.08902e-10
8.58531e-11
3.52978e-11
1.45355e-11
5.98795e-12
2.47128e-12
1.01746e-12
4.19791e-13
1.72541e-13
7.12691e-14
2.94029e-14
1.21447e-14
4.99803e-15
2.06206e-15
8.4945e-16
3.50262e-16
1.44393e-16
5.94716e-17
2.45285e-17
1.01108e-17
5.25459e-18
)
;

boundaryField
{
    inlet
    {
        type            fixedValue;
        value           uniform 0;
    }
    outlet
    {
        type            zeroGradient;
    }
    yzfaces
    {
        type            empty;
    }
}


// ************************************************************************* //
