/*--------------------------------*- C++ -*----------------------------------*\
| =========                 |                                                 |
| \\      /  F ield         | foam-extend: Open Source CFD                    |
|  \\    /   O peration     | Version:     5.0                                |
|   \\  /    A nd           | Web:         http://www.foam-extend.org         |
|    \\/     M anipulation  |                                                 |
\*---------------------------------------------------------------------------*/
FoamFile
{
    version     2.0;
    format      ascii;
    class       volScalarField;
    location    "4";
    object      CO2.water;
}
// * * * * * * * * * * * * * * * * * * * * * * * * * * * * * * * * * * * * * //

dimensions      [0 0 0 0 0 0 0];

internalField   nonuniform List<scalar> 
100
(
0.00126724
0.00166721
0.00191607
0.002116
0.00229055
0.00241756
0.00253582
0.0026465
0.00273374
0.0028218
0.00289744
0.00294577
0.00300205
0.0030562
0.0030972
0.00314584
0.00319178
0.00323742
0.00327429
0.00330857
0.00334629
0.00338038
0.00341272
0.00344193
0.00347008
0.00349837
0.00352773
0.0035567
0.00358456
0.00360687
0.00363352
0.00365681
0.00368255
0.00370448
0.00372571
0.0037482
0.00377139
0.00379388
0.00381475
0.0038323
0.00385296
0.00387175
0.00388828
0.00391061
0.00392947
0.00395078
0.00397252
0.00399252
0.00401392
0.00403234
0.00405393
0.00407509
0.00409721
0.00411761
0.00414005
0.00416225
0.00418443
0.000174034
3.69789e-05
8.02628e-06
1.76587e-06
3.89085e-07
8.49364e-08
1.86974e-08
4.46173e-09
1.27369e-09
4.98949e-10
1.96013e-10
7.76643e-11
3.10394e-11
1.25434e-11
5.15223e-12
2.14992e-12
9.07631e-13
3.8741e-13
1.67303e-13
7.26896e-14
3.16781e-14
1.38227e-14
6.0347e-15
2.61928e-15
1.14379e-15
4.97833e-16
2.15993e-16
9.36248e-17
4.04587e-17
1.74785e-17
7.53538e-18
3.24993e-18
1.395e-18
5.9837e-19
2.56315e-19
1.09872e-19
4.70709e-20
2.01193e-20
8.57273e-21
3.66202e-21
1.56131e-21
6.63754e-22
3.58153e-22
)
;

boundaryField
{
    inlet
    {
        type            fixedValue;
        value           uniform 0;
    }
    outlet
    {
        type            zeroGradient;
    }
    yzfaces
    {
        type            empty;
    }
}


// ************************************************************************* //
