/*--------------------------------*- C++ -*----------------------------------*\
| =========                 |                                                 |
| \\      /  F ield         | foam-extend: Open Source CFD                    |
|  \\    /   O peration     | Version:     5.0                                |
|   \\  /    A nd           | Web:         http://www.foam-extend.org         |
|    \\/     M anipulation  |                                                 |
\*---------------------------------------------------------------------------*/
FoamFile
{
    version     2.0;
    format      ascii;
    class       volScalarField;
    location    "4";
    object      CO2.water;
}
// * * * * * * * * * * * * * * * * * * * * * * * * * * * * * * * * * * * * * //

dimensions      [0 0 0 0 0 0 0];

internalField   nonuniform List<scalar> 
100
(
0.00127358
0.00164267
0.0019188
0.00211546
0.00227345
0.00241392
0.00253712
0.00263763
0.00272519
0.00281305
0.00288501
0.00294547
0.00300176
0.00306027
0.00309904
0.00314981
0.00318931
0.00323863
0.00327111
0.00331083
0.00334689
0.00338281
0.00341517
0.00344654
0.00347598
0.00350612
0.00353079
0.00356059
0.00358744
0.00361487
0.00363964
0.00366346
0.00368872
0.00371089
0.00373249
0.00375464
0.00377887
0.00379958
0.00381912
0.0038381
0.00385798
0.0038767
0.00389486
0.00391368
0.00393445
0.00395398
0.00397202
0.00399237
0.0040118
0.00403366
0.00405528
0.00407596
0.00409737
0.00411911
0.004141
0.00416343
0.00418588
0.000167056
3.46278e-05
7.42665e-06
1.68459e-06
4.18047e-07
1.17496e-07
3.82492e-08
1.41503e-08
5.71852e-09
2.43934e-09
1.07535e-09
4.82169e-10
2.21043e-10
1.02336e-10
4.82604e-11
2.30297e-11
1.10841e-11
5.38537e-12
2.63306e-12
1.28844e-12
6.31605e-13
3.09674e-13
1.503e-13
7.17939e-14
3.36428e-14
1.54783e-14
6.96608e-15
3.05901e-15
1.3056e-15
5.45713e-16
2.16645e-16
8.07443e-17
2.78832e-17
8.38217e-18
1.82869e-18
0
0
0
0
0
0
0
0
)
;

boundaryField
{
    inlet
    {
        type            fixedValue;
        value           uniform 0;
    }
    outlet
    {
        type            zeroGradient;
    }
    yzfaces
    {
        type            empty;
    }
}


// ************************************************************************* //
