/*--------------------------------*- C++ -*----------------------------------*\
| =========                 |                                                 |
| \\      /  F ield         | foam-extend: Open Source CFD                    |
|  \\    /   O peration     | Version:     5.0                                |
|   \\  /    A nd           | Web:         http://www.foam-extend.org         |
|    \\/     M anipulation  |                                                 |
\*---------------------------------------------------------------------------*/
FoamFile
{
    version     2.0;
    format      ascii;
    class       volScalarField;
    location    "4";
    object      CO2.gas;
}
// * * * * * * * * * * * * * * * * * * * * * * * * * * * * * * * * * * * * * //

dimensions      [0 0 0 0 0 0 0];

internalField   nonuniform List<scalar> 
100
(
0.151456
0.136257
0.1268
0.119203
0.11257
0.107743
0.103249
0.0990437
0.0957284
0.0923822
0.0895078
0.0876713
0.0855328
0.0834749
0.081917
0.0800685
0.078323
0.0765884
0.0751873
0.0738849
0.0724516
0.071156
0.0699273
0.068817
0.0677474
0.0666724
0.0655567
0.064456
0.0633973
0.0625496
0.0615368
0.0606518
0.0596734
0.0588404
0.0580334
0.057179
0.0562975
0.0554431
0.05465
0.0539831
0.053198
0.0524839
0.051856
0.0510074
0.0502907
0.0494808
0.0486548
0.0478948
0.0470817
0.0463815
0.0455611
0.0447571
0.0439165
0.0431415
0.0422886
0.041445
0.0406023
0.0326336
0.0286232
0.0248985
0.0214242
0.018209
0.0152996
0.0126584
0.0102966
0.00820598
0.00638817
0.00484696
0.00356329
0.00251779
0.00169603
0.00108086
0.000642037
0.00035144
0.000175484
7.91835e-05
3.23106e-05
1.2032e-05
4.13571e-06
1.32946e-06
4.12169e-07
1.31585e-07
4.49369e-08
1.72689e-08
7.95475e-09
3.58477e-09
1.59234e-09
6.98541e-10
3.04024e-10
1.30811e-10
5.59408e-11
2.37861e-11
1.00862e-11
4.26033e-12
1.79062e-12
7.4847e-13
3.1299e-13
1.30393e-13
5.40718e-14
2.82061e-14
)
;

boundaryField
{
    inlet
    {
        type            fixedValue;
        value           uniform 0.2;
    }
    outlet
    {
        type            zeroGradient;
    }
    yzfaces
    {
        type            empty;
    }
}


// ************************************************************************* //
