/*--------------------------------*- C++ -*----------------------------------*\
| =========                 |                                                 |
| \\      /  F ield         | foam-extend: Open Source CFD                    |
|  \\    /   O peration     | Version:     5.0                                |
|   \\  /    A nd           | Web:         http://www.foam-extend.org         |
|    \\/     M anipulation  |                                                 |
\*---------------------------------------------------------------------------*/
FoamFile
{
    version     2.0;
    format      ascii;
    class       volScalarField;
    location    "4";
    object      CO2.gas;
}
// * * * * * * * * * * * * * * * * * * * * * * * * * * * * * * * * * * * * * //

dimensions      [0 0 0 0 0 0 0];

internalField   nonuniform List<scalar> 
100
(
0.151202
0.136165
0.127339
0.120041
0.113167
0.10788
0.103325
0.0987174
0.0951577
0.0922444
0.0893885
0.0877461
0.0856499
0.0838704
0.0821357
0.0798187
0.0783132
0.0766866
0.0753835
0.0737696
0.0725715
0.0713168
0.0699821
0.0688037
0.0675992
0.0666607
0.0654592
0.064278
0.0632404
0.0622595
0.061423
0.0604236
0.0594752
0.0586222
0.0579028
0.0569588
0.0560664
0.0553473
0.0545795
0.0538111
0.0530378
0.052253
0.0516032
0.0508419
0.0501128
0.0494348
0.0486664
0.0478974
0.0471149
0.0462921
0.0455312
0.0447268
0.0438956
0.0431224
0.0423493
0.0415018
0.0406387
0.0397745
0.0388669
0.0379362
0.0369415
0.0359067
0.0348222
0.0336834
0.032456
0.0311631
0.0181908
0.0132334
0.00939274
0.00644412
0.00422784
0.00263633
0.00153812
0.000829293
0.000409186
0.000183252
7.50362e-05
2.84965e-05
1.03001e-05
3.66287e-06
1.3701e-06
5.52331e-07
2.2064e-07
8.76324e-08
3.47333e-08
1.37033e-08
5.41056e-09
2.12665e-09
8.39734e-10
3.31122e-10
1.30712e-10
5.13991e-11
2.02648e-11
7.97619e-12
3.14297e-12
1.23813e-12
4.87255e-13
1.92021e-13
7.84185e-14
3.84915e-14
)
;

boundaryField
{
    inlet
    {
        type            fixedValue;
        value           uniform 0.2;
    }
    outlet
    {
        type            zeroGradient;
    }
    yzfaces
    {
        type            empty;
    }
}


// ************************************************************************* //
