/*--------------------------------*- C++ -*----------------------------------*\
| =========                 |                                                 |
| \\      /  F ield         | foam-extend: Open Source CFD                    |
|  \\    /   O peration     | Version:     5.0                                |
|   \\  /    A nd           | Web:         http://www.foam-extend.org         |
|    \\/     M anipulation  |                                                 |
\*---------------------------------------------------------------------------*/
FoamFile
{
    version     2.0;
    format      ascii;
    class       volScalarField;
    location    "4";
    object      H2O.gas;
}
// * * * * * * * * * * * * * * * * * * * * * * * * * * * * * * * * * * * * * //

dimensions      [0 0 0 0 0 0 0];

internalField   nonuniform List<scalar> 
100
(
0.000295037
0.000265695
0.000248472
0.000234233
0.000220819
0.000210502
0.000201616
0.000192624
0.000185678
0.000179994
0.000174421
0.000171216
0.000167126
0.000163654
0.000160269
0.000155748
0.00015281
0.000149636
0.000147094
0.000143945
0.000141607
0.000139158
0.000136554
0.000134255
0.000131904
0.000130073
0.000127729
0.000125424
0.000123399
0.000121485
0.000119853
0.000117903
0.000116052
0.000114388
0.000112984
0.000111142
0.000109401
0.000107998
0.000106499
0.000105
0.000103491
0.00010196
0.000100692
9.92062e-05
9.77836e-05
9.64607e-05
9.49614e-05
9.34607e-05
9.1934e-05
9.03284e-05
8.88437e-05
8.72741e-05
8.56523e-05
8.41435e-05
8.2635e-05
8.09812e-05
7.92971e-05
7.76108e-05
7.58398e-05
7.40238e-05
7.20829e-05
7.00637e-05
6.79475e-05
6.57254e-05
6.33304e-05
6.08076e-05
0.0116083
0.0150376
0.0172522
0.0184224
0.0187029
0.0183155
0.0173874
0.0161208
0.0147602
0.0134381
0.0123472
0.0115049
0.0109282
0.0105523
0.010331
0.0102027
0.0101183
0.0100687
0.010035
0.0100307
0.0100206
0.0100069
0.00999591
0.00999907
0.00999951
0.010007
0.00999985
0.00999903
0.0100052
0.0100077
0.0100192
0.0100159
0.0100102
0.00999173
)
;

boundaryField
{
    inlet
    {
        type            fixedValue;
        value           uniform 0;
    }
    outlet
    {
        type            zeroGradient;
    }
    yzfaces
    {
        type            empty;
    }
}


// ************************************************************************* //
