/*--------------------------------*- C++ -*----------------------------------*\
| =========                 |                                                 |
| \\      /  F ield         | foam-extend: Open Source CFD                    |
|  \\    /   O peration     | Version:     5.0                                |
|   \\  /    A nd           | Web:         http://www.foam-extend.org         |
|    \\/     M anipulation  |                                                 |
\*---------------------------------------------------------------------------*/
FoamFile
{
    version     2.0;
    format      ascii;
    class       volScalarField;
    location    "4";
    object      H2O.gas;
}
// * * * * * * * * * * * * * * * * * * * * * * * * * * * * * * * * * * * * * //

dimensions      [0 0 0 0 0 0 0];

internalField   nonuniform List<scalar> 
100
(
0.000295061
0.000267693
0.000247219
0.000232636
0.000220922
0.000210506
0.000201371
0.000193919
0.000187426
0.000180911
0.000175575
0.000171093
0.000166919
0.00016258
0.000159705
0.000155941
0.000153013
0.000149355
0.000146947
0.000144002
0.000141328
0.000138665
0.000136265
0.000133939
0.000131756
0.000129521
0.000127692
0.000125482
0.000123492
0.000121458
0.000119621
0.000117855
0.000115982
0.000114338
0.000112737
0.000111094
0.000109297
0.000107762
0.000106313
0.000104906
0.000103431
0.000102044
0.000100697
9.93011e-05
9.77613e-05
9.63133e-05
9.49756e-05
9.34667e-05
9.20258e-05
9.04052e-05
8.88023e-05
8.72691e-05
8.56808e-05
8.40691e-05
8.24457e-05
8.07826e-05
7.9118e-05
0.00730994
0.010464
0.0132832
0.015782
0.0179675
0.0198051
0.0212678
0.0223941
0.0231784
0.0235432
0.0235182
0.0231248
0.0223051
0.0211541
0.0197377
0.0181371
0.0164556
0.0148465
0.013409
0.0122792
0.0114606
0.0108967
0.0105375
0.0103142
0.0101756
0.0100947
0.0100461
0.0100188
0.0100001
0.00999769
0.00999262
0.00998894
0.010002
0.0100075
0.0100187
0.0100228
0.0100214
0.01002
0.0100238
0.0100258
0.0100194
0.0100168
0.0100119
)
;

boundaryField
{
    inlet
    {
        type            fixedValue;
        value           uniform 0;
    }
    outlet
    {
        type            zeroGradient;
    }
    yzfaces
    {
        type            empty;
    }
}


// ************************************************************************* //
