/*--------------------------------*- C++ -*----------------------------------*\
| =========                 |                                                 |
| \\      /  F ield         | foam-extend: Open Source CFD                    |
|  \\    /   O peration     | Version:     5.0                                |
|   \\  /    A nd           | Web:         http://www.foam-extend.org         |
|    \\/     M anipulation  |                                                 |
\*---------------------------------------------------------------------------*/
FoamFile
{
    version     2.0;
    format      ascii;
    class       volScalarField;
    location    "4";
    object      H2O.gas;
}
// * * * * * * * * * * * * * * * * * * * * * * * * * * * * * * * * * * * * * //

dimensions      [0 0 0 0 0 0 0];

internalField   nonuniform List<scalar> 
100
(
0.000295531
0.000265874
0.000247421
0.000232597
0.000219654
0.000210237
0.000201467
0.000193261
0.000186792
0.000180263
0.000174654
0.00017107
0.000166898
0.000162882
0.000159842
0.000156235
0.000152829
0.000149445
0.000146711
0.000144169
0.000141373
0.000138845
0.000136447
0.000134281
0.000132194
0.000130096
0.000127919
0.000125771
0.000123705
0.000122051
0.000120075
0.000118348
0.000116439
0.000114814
0.000113239
0.000111572
0.000109852
0.000108185
0.000106637
0.000105336
0.000103804
0.00010241
0.000101185
9.95292e-05
9.81307e-05
9.65505e-05
9.49387e-05
9.34558e-05
9.18692e-05
9.05029e-05
8.8902e-05
8.73333e-05
8.56931e-05
8.41808e-05
8.25166e-05
8.08705e-05
7.92261e-05
0.00712771
0.0102282
0.0130363
0.0155371
0.0176993
0.0195686
0.0210825
0.0222458
0.0230108
0.0234056
0.0234549
0.0231254
0.0224071
0.0213358
0.0199976
0.0184123
0.0167381
0.0151177
0.0136583
0.0124654
0.0115953
0.0109919
0.0105928
0.0103608
0.0102055
0.0101158
0.0100692
0.010028
0.0100167
0.0100034
0.0100001
0.00999383
0.00998964
0.00999822
0.00999603
0.00999731
0.0100041
0.00999078
0.0100018
0.00998848
0.0099848
0.00999484
0.00998678
)
;

boundaryField
{
    inlet
    {
        type            fixedValue;
        value           uniform 0;
    }
    outlet
    {
        type            zeroGradient;
    }
    yzfaces
    {
        type            empty;
    }
}


// ************************************************************************* //
