/*--------------------------------*- C++ -*----------------------------------*\
| =========                 |                                                 |
| \\      /  F ield         | foam-extend: Open Source CFD                    |
|  \\    /   O peration     | Version:     5.0                                |
|   \\  /    A nd           | Web:         http://www.foam-extend.org         |
|    \\/     M anipulation  |                                                 |
\*---------------------------------------------------------------------------*/
FoamFile
{
    version     2.0;
    format      ascii;
    class       volScalarField;
    location    "4";
    object      Na.water;
}
// * * * * * * * * * * * * * * * * * * * * * * * * * * * * * * * * * * * * * //

dimensions      [0 0 0 0 0 0 0];

internalField   nonuniform List<scalar> 
100
(
0.00556516
0.00728922
0.00832559
0.00917269
0.00995413
0.0105622
0.0110723
0.0116065
0.0120201
0.0123492
0.0126655
0.0128654
0.0131052
0.01331
0.0135249
0.0137656
0.0139549
0.0141357
0.0142979
0.0144677
0.0146158
0.014755
0.0149029
0.0150409
0.0151804
0.0152979
0.0154289
0.0155647
0.0156897
0.0158069
0.0159057
0.016015
0.0161264
0.0162163
0.0163102
0.0164093
0.0165132
0.0165991
0.0166792
0.0167708
0.0168559
0.0169421
0.0170244
0.0171039
0.0171888
0.0172774
0.0173599
0.0174532
0.0175392
0.0176328
0.0177317
0.017817
0.0179112
0.0180007
0.0180919
0.0181805
0.0182861
0.018386
0.0184926
0.0185979
0.0187115
0.0188256
0.0189429
0.0190702
0.0191655
0.019073
0.0205263
0.0207697
0.0209954
0.0212219
0.0214319
0.0216662
0.0219135
0.0221397
0.0223811
0.022553
0.0227234
0.0228172
0.0228849
0.0229179
0.0229582
0.0229964
0.0229906
0.0229902
0.0229754
0.0230138
0.0230108
0.0229932
0.0229765
0.0229878
0.0229851
0.0230035
0.022988
0.022994
0.0230092
0.0230148
0.0230421
0.0230411
0.0230288
0.0229927
)
;

boundaryField
{
    inlet
    {
        type            fixedValue;
        value           uniform 0;
    }
    outlet
    {
        type            zeroGradient;
    }
    yzfaces
    {
        type            empty;
    }
}


// ************************************************************************* //
