/*--------------------------------*- C++ -*----------------------------------*\
| =========                 |                                                 |
| \\      /  F ield         | foam-extend: Open Source CFD                    |
|  \\    /   O peration     | Version:     5.0                                |
|   \\  /    A nd           | Web:         http://www.foam-extend.org         |
|    \\/     M anipulation  |                                                 |
\*---------------------------------------------------------------------------*/
FoamFile
{
    version     2.0;
    format      ascii;
    class       volScalarField;
    location    "4";
    object      Na.water;
}
// * * * * * * * * * * * * * * * * * * * * * * * * * * * * * * * * * * * * * //

dimensions      [0 0 0 0 0 0 0];

internalField   nonuniform List<scalar> 
100
(
0.00554013
0.00729024
0.00838292
0.00927219
0.0100152
0.010565
0.0110976
0.0115779
0.0119595
0.0123321
0.0126567
0.0128743
0.0131232
0.013349
0.0135433
0.0137524
0.0139574
0.0141533
0.0143209
0.0144703
0.0146281
0.0147743
0.014922
0.0150529
0.0151708
0.0152977
0.0154231
0.0155468
0.0156698
0.0157717
0.0158835
0.0159883
0.0160929
0.0161881
0.0162832
0.016383
0.0164815
0.0165833
0.0166681
0.0167568
0.0168382
0.0169291
0.0170075
0.017091
0.0171769
0.0172646
0.0173566
0.0174503
0.0175445
0.0176356
0.0177244
0.0178171
0.0179074
0.0180017
0.0180816
0.0181345
0.0180223
0.0193268
0.0194836
0.0196171
0.0197247
0.0198435
0.0200002
0.0201341
0.0202787
0.0204248
0.0205914
0.0207837
0.0209885
0.0212086
0.0214242
0.021677
0.0219096
0.0221475
0.0223791
0.0225595
0.0226872
0.022821
0.0228943
0.0229247
0.0229873
0.022984
0.022993
0.0230118
0.0229888
0.0230046
0.0229985
0.0229968
0.0229958
0.0229887
0.0230027
0.0229859
0.0229843
0.0230053
0.0229763
0.0230092
0.0229819
0.0229696
0.0230002
0.0229822
)
;

boundaryField
{
    inlet
    {
        type            fixedValue;
        value           uniform 0;
    }
    outlet
    {
        type            zeroGradient;
    }
    yzfaces
    {
        type            empty;
    }
}


// ************************************************************************* //
