/*--------------------------------*- C++ -*----------------------------------*\
| =========                 |                                                 |
| \\      /  F ield         | foam-extend: Open Source CFD                    |
|  \\    /   O peration     | Version:     5.0                                |
|   \\  /    A nd           | Web:         http://www.foam-extend.org         |
|    \\/     M anipulation  |                                                 |
\*---------------------------------------------------------------------------*/
FoamFile
{
    version     2.0;
    format      ascii;
    class       volScalarField;
    location    "4";
    object      Na.water;
}
// * * * * * * * * * * * * * * * * * * * * * * * * * * * * * * * * * * * * * //

dimensions      [0 0 0 0 0 0 0];

internalField   nonuniform List<scalar> 
100
(
0.00556861
0.00718028
0.00838729
0.00925173
0.00995189
0.0105544
0.0110847
0.0115354
0.0119233
0.0122947
0.0126186
0.0128728
0.0131259
0.0133739
0.0135536
0.0137696
0.0139449
0.014152
0.0143064
0.0144762
0.0146351
0.0147889
0.0149267
0.0150679
0.0152028
0.015324
0.0154421
0.0155634
0.0156832
0.0158069
0.0159184
0.0160231
0.016127
0.0162273
0.0163223
0.0164146
0.0165148
0.0166108
0.0166965
0.0167819
0.0168659
0.0169524
0.0170382
0.0171129
0.0172002
0.0172821
0.0173653
0.0174602
0.0175448
0.0176367
0.0177297
0.0178261
0.017917
0.0180076
0.0180952
0.0181525
0.0180394
0.019352
0.0195145
0.0196252
0.0197398
0.0198724
0.0200051
0.0201425
0.0203151
0.0204926
0.020658
0.0208439
0.0210521
0.0212486
0.0214712
0.0217284
0.0219768
0.0222299
0.0224541
0.0226114
0.0227456
0.0228551
0.022923
0.0229628
0.0229859
0.0229815
0.0229798
0.0229786
0.0229775
0.0229664
0.0229807
0.0229839
0.0229718
0.0230005
0.0230025
0.0230248
0.0230405
0.0230303
0.0230256
0.0230347
0.0230464
0.0230379
0.0230356
0.0230198
)
;

boundaryField
{
    inlet
    {
        type            fixedValue;
        value           uniform 0;
    }
    outlet
    {
        type            zeroGradient;
    }
    yzfaces
    {
        type            empty;
    }
}


// ************************************************************************* //
