/*--------------------------------*- C++ -*----------------------------------*\
| =========                 |                                                 |
| \\      /  F ield         | foam-extend: Open Source CFD                    |
|  \\    /   O peration     | Version:     5.0                                |
|   \\  /    A nd           | Web:         http://www.foam-extend.org         |
|    \\/     M anipulation  |                                                 |
\*---------------------------------------------------------------------------*/
FoamFile
{
    version     2.0;
    format      ascii;
    class       volScalarField;
    location    "4";
    object      Ns;
}
// * * * * * * * * * * * * * * * * * * * * * * * * * * * * * * * * * * * * * //

dimensions      [0 -3 0 0 1 0 0];

internalField   nonuniform List<scalar> 
100
(
66.7676
119.668
56.2089
107.239
70.9979
60.4103
60.3494
47.8815
77.7667
45.3411
37.2532
75.5044
30.0423
57.5009
78.4112
52.2495
66.0383
49.7272
49.0305
70.3897
49.7241
58.9382
47.3919
35.8028
56.1387
48.4876
58.9331
57.8649
61.2738
46.8361
42.2777
64.2998
48.1476
47.3198
52.7241
53.4074
50.1851
51.3667
59.8892
56.7982
67.7621
58.8084
59.5991
62.7137
57.382
60.394
65.9865
47.5703
64.0274
52.6931
53.9735
51.2537
52.5432
55.6739
55.4547
62.5064
85.3562
2
2
2
2
2
2
2
2
2
2
2
2
2
2
2
2
2
2
2
2
2
2
2
2
2
2
2
2
2
2
2
2
2
2
2
2
2
2
2
2
2
2
2
)
;

boundaryField
{
    inlet
    {
        type            fixedValue;
        value           uniform 0;
    }
    outlet
    {
        type            zeroGradient;
    }
    yzfaces
    {
        type            empty;
    }
}


// ************************************************************************* //
