/*--------------------------------*- C++ -*----------------------------------*\
| =========                 |                                                 |
| \\      /  F ield         | foam-extend: Open Source CFD                    |
|  \\    /   O peration     | Version:     5.0                                |
|   \\  /    A nd           | Web:         http://www.foam-extend.org         |
|    \\/     M anipulation  |                                                 |
\*---------------------------------------------------------------------------*/
FoamFile
{
    version     2.0;
    format      ascii;
    class       volScalarField;
    location    "4";
    object      Ns;
}
// * * * * * * * * * * * * * * * * * * * * * * * * * * * * * * * * * * * * * //

dimensions      [0 -3 0 0 1 0 0];

internalField   nonuniform List<scalar> 
100
(
77.57
93.2182
86.7035
70.191
48.9853
63.9209
63.6102
30.4694
32.3331
70.2662
44.6128
84.5135
45.6383
57.5895
72.7097
39.9778
40.5811
53.9962
38.583
65.6115
50.1862
48.0798
42.1643
44.7492
59.7004
57.4847
62.0415
42.0599
64.1405
50.7514
59.5764
56.0192
50.6672
66.7891
57.4349
57.4879
63.1379
56.7045
59.4313
56.3883
57.4121
57.2909
64.7594
53.6606
56.4089
53.3125
53.7428
57.1385
49.0068
53.3147
48.6234
50.4337
51.422
54.9032
49.6866
57.4604
84.5932
2
2
2
2
2
2
2
2
2
2
2
2
2
2
2
2
2
2
2
2
2
2
2
2
2
2
2
2
2
2
2
2
2
2
2
2
2
2
2
2
2
2
2
)
;

boundaryField
{
    inlet
    {
        type            fixedValue;
        value           uniform 0;
    }
    outlet
    {
        type            zeroGradient;
    }
    yzfaces
    {
        type            empty;
    }
}


// ************************************************************************* //
