/*--------------------------------*- C++ -*----------------------------------*\
| =========                 |                                                 |
| \\      /  F ield         | foam-extend: Open Source CFD                    |
|  \\    /   O peration     | Version:     5.0                                |
|   \\  /    A nd           | Web:         http://www.foam-extend.org         |
|    \\/     M anipulation  |                                                 |
\*---------------------------------------------------------------------------*/
FoamFile
{
    version     2.0;
    format      ascii;
    class       volScalarField;
    location    "4";
    object      Ns;
}
// * * * * * * * * * * * * * * * * * * * * * * * * * * * * * * * * * * * * * //

dimensions      [0 -3 0 0 1 0 0];

internalField   nonuniform List<scalar> 
100
(
65.9936
94.2289
93.9224
97.359
74.1236
53.1344
55.9676
22.1914
47.5804
20.8042
65.4906
68.411
64.1164
47.4142
55.3337
43.5761
70.3339
35.065
72.3566
43.4545
59.4562
37.6208
30.4539
55.4839
51.3636
66.7953
35.7163
47.1427
55.0141
48.0651
50.8211
70.8655
53.1366
70.2452
50.854
53.2081
59.2376
59.8331
73.2992
50.9014
56.8921
44.3112
56.3987
52.1802
47.755
52.9759
58.5241
59.6902
44.8406
45.326
51.0418
42.0597
51.2943
55.4195
44.6951
53.9402
45.5616
50.78
47.0954
48.9002
50.3999
48.4181
52.8314
64.6115
55.7499
82.9181
2
2
2
2
2
2
2
2
2
2
2
2
2
2
2
2
2
2
2
2
2
2
2
2
2
2
2
2
2
2
2
2
2
2
)
;

boundaryField
{
    inlet
    {
        type            fixedValue;
        value           uniform 0;
    }
    outlet
    {
        type            zeroGradient;
    }
    yzfaces
    {
        type            empty;
    }
}


// ************************************************************************* //
