/*--------------------------------*- C++ -*----------------------------------*\
| =========                 |                                                 |
| \\      /  F ield         | foam-extend: Open Source CFD                    |
|  \\    /   O peration     | Version:     5.0                                |
|   \\  /    A nd           | Web:         http://www.foam-extend.org         |
|    \\/     M anipulation  |                                                 |
\*---------------------------------------------------------------------------*/
FoamFile
{
    version     2.0;
    format      ascii;
    class       surfaceScalarField;
    location    "4";
    object      phi;
}
// * * * * * * * * * * * * * * * * * * * * * * * * * * * * * * * * * * * * * //

dimensions      [0 3 -1 0 0 0 0];

internalField   nonuniform List<scalar> 
99
(
1.22597e-06
1.22164e-06
1.22632e-06
1.22051e-06
1.21621e-06
1.22123e-06
1.21225e-06
1.21177e-06
1.20965e-06
1.20975e-06
1.21361e-06
1.21646e-06
1.21373e-06
1.22101e-06
1.22011e-06
1.21973e-06
1.21934e-06
1.21794e-06
1.21553e-06
1.21421e-06
1.21622e-06
1.21608e-06
1.21601e-06
1.21369e-06
1.21521e-06
1.21104e-06
1.21395e-06
1.21228e-06
1.21382e-06
1.21355e-06
1.21312e-06
1.21027e-06
1.20949e-06
1.20951e-06
1.21132e-06
1.21027e-06
1.21044e-06
1.21015e-06
1.21413e-06
1.2094e-06
1.21143e-06
1.21276e-06
1.20534e-06
1.20863e-06
1.20663e-06
1.20623e-06
1.20963e-06
1.21079e-06
1.21154e-06
1.2099e-06
1.21176e-06
1.21059e-06
1.21384e-06
1.21138e-06
1.21235e-06
1.21375e-06
1.21289e-06
1.21201e-06
1.21328e-06
1.21312e-06
1.21332e-06
1.21502e-06
1.2155e-06
1.21452e-06
1.21339e-06
1.21188e-06
1.21499e-06
1.21641e-06
1.2157e-06
1.21637e-06
1.21784e-06
1.21635e-06
1.21626e-06
1.21608e-06
1.21455e-06
1.21434e-06
1.2158e-06
1.21554e-06
1.21548e-06
1.21574e-06
1.21247e-06
1.21317e-06
1.21293e-06
1.21255e-06
1.20994e-06
1.21026e-06
1.21174e-06
1.21405e-06
1.21483e-06
1.21343e-06
1.21399e-06
1.2135e-06
1.21497e-06
1.21398e-06
1.21305e-06
1.21328e-06
1.21418e-06
1.214e-06
1.21265e-06
)
;

boundaryField
{
    inlet
    {
        type            calculated;
        value           uniform -1.225e-06;
    }
    outlet
    {
        type            calculated;
        value           uniform 1.21444e-06;
    }
    yzfaces
    {
        type            empty;
    }
}


// ************************************************************************* //
