/*--------------------------------*- C++ -*----------------------------------*\
| =========                 |                                                 |
| \\      /  F ield         | foam-extend: Open Source CFD                    |
|  \\    /   O peration     | Version:     5.0                                |
|   \\  /    A nd           | Web:         http://www.foam-extend.org         |
|    \\/     M anipulation  |                                                 |
\*---------------------------------------------------------------------------*/
FoamFile
{
    version     2.0;
    format      ascii;
    class       surfaceScalarField;
    location    "4";
    object      phi;
}
// * * * * * * * * * * * * * * * * * * * * * * * * * * * * * * * * * * * * * //

dimensions      [0 3 -1 0 0 0 0];

internalField   nonuniform List<scalar> 
99
(
1.22536e-06
1.2384e-06
1.23134e-06
1.22101e-06
1.21464e-06
1.21399e-06
1.21986e-06
1.2192e-06
1.21866e-06
1.21956e-06
1.22748e-06
1.23392e-06
1.23464e-06
1.23813e-06
1.23296e-06
1.24422e-06
1.23987e-06
1.24979e-06
1.24522e-06
1.2474e-06
1.24618e-06
1.24956e-06
1.25257e-06
1.25485e-06
1.25312e-06
1.25124e-06
1.248e-06
1.25246e-06
1.25543e-06
1.25551e-06
1.25101e-06
1.25049e-06
1.24676e-06
1.25143e-06
1.24738e-06
1.25023e-06
1.24988e-06
1.24588e-06
1.24611e-06
1.2479e-06
1.24917e-06
1.25142e-06
1.24866e-06
1.25102e-06
1.24905e-06
1.24502e-06
1.24501e-06
1.24574e-06
1.24596e-06
1.24739e-06
1.24599e-06
1.24494e-06
1.24864e-06
1.24727e-06
1.24513e-06
1.2451e-06
1.24407e-06
1.24377e-06
1.24336e-06
1.24303e-06
1.24252e-06
1.24225e-06
1.24398e-06
1.24374e-06
1.24458e-06
1.24442e-06
1.24483e-06
1.24522e-06
1.24353e-06
1.24284e-06
1.24606e-06
1.24486e-06
1.24411e-06
1.24446e-06
1.24277e-06
1.24294e-06
1.24251e-06
1.24286e-06
1.24032e-06
1.24064e-06
1.24195e-06
1.24155e-06
1.24238e-06
1.24145e-06
1.24376e-06
1.24355e-06
1.24283e-06
1.24111e-06
1.24191e-06
1.2413e-06
1.2429e-06
1.2419e-06
1.24187e-06
1.24395e-06
1.24666e-06
1.24729e-06
1.24659e-06
1.24551e-06
1.24471e-06
)
;

boundaryField
{
    inlet
    {
        type            calculated;
        value           uniform -1.225e-06;
    }
    outlet
    {
        type            calculated;
        value           uniform 1.24282e-06;
    }
    yzfaces
    {
        type            empty;
    }
}


// ************************************************************************* //
