/*--------------------------------*- C++ -*----------------------------------*\
| =========                 |                                                 |
| \\      /  F ield         | foam-extend: Open Source CFD                    |
|  \\    /   O peration     | Version:     5.0                                |
|   \\  /    A nd           | Web:         http://www.foam-extend.org         |
|    \\/     M anipulation  |                                                 |
\*---------------------------------------------------------------------------*/
FoamFile
{
    version     2.0;
    format      ascii;
    class       surfaceScalarField;
    location    "4";
    object      phi;
}
// * * * * * * * * * * * * * * * * * * * * * * * * * * * * * * * * * * * * * //

dimensions      [0 3 -1 0 0 0 0];

internalField   nonuniform List<scalar> 
99
(
1.22486e-06
1.22969e-06
1.22467e-06
1.22728e-06
1.21972e-06
1.21578e-06
1.21653e-06
1.21032e-06
1.20421e-06
1.20596e-06
1.20138e-06
1.20114e-06
1.19386e-06
1.19498e-06
1.19242e-06
1.19193e-06
1.19519e-06
1.19781e-06
1.19497e-06
1.19135e-06
1.19074e-06
1.19156e-06
1.19409e-06
1.19276e-06
1.19024e-06
1.19137e-06
1.18936e-06
1.18725e-06
1.18582e-06
1.18543e-06
1.18266e-06
1.18373e-06
1.18214e-06
1.18306e-06
1.18189e-06
1.18145e-06
1.18251e-06
1.18204e-06
1.18096e-06
1.18068e-06
1.18269e-06
1.18112e-06
1.17681e-06
1.17524e-06
1.175e-06
1.1768e-06
1.17636e-06
1.17704e-06
1.17487e-06
1.17273e-06
1.17459e-06
1.17449e-06
1.17334e-06
1.17273e-06
1.17336e-06
1.17513e-06
1.17468e-06
1.17417e-06
1.1748e-06
1.17481e-06
1.17595e-06
1.17673e-06
1.17522e-06
1.17628e-06
1.17904e-06
1.17836e-06
1.17654e-06
1.17638e-06
1.17429e-06
1.17425e-06
1.17309e-06
1.17596e-06
1.17429e-06
1.1752e-06
1.17523e-06
1.17638e-06
1.17813e-06
1.17609e-06
1.17635e-06
1.17388e-06
1.17375e-06
1.1736e-06
1.17276e-06
1.17165e-06
1.17244e-06
1.17323e-06
1.1744e-06
1.17389e-06
1.1766e-06
1.17526e-06
1.1755e-06
1.17502e-06
1.17457e-06
1.17531e-06
1.17482e-06
1.17482e-06
1.17421e-06
1.1752e-06
1.17496e-06
)
;

boundaryField
{
    inlet
    {
        type            calculated;
        value           uniform -1.225e-06;
    }
    outlet
    {
        type            calculated;
        value           uniform 1.17813e-06;
    }
    yzfaces
    {
        type            empty;
    }
}


// ************************************************************************* //
