/*--------------------------------*- C++ -*----------------------------------*\
| =========                 |                                                 |
| \\      /  F ield         | foam-extend: Open Source CFD                    |
|  \\    /   O peration     | Version:     5.0                                |
|   \\  /    A nd           | Web:         http://www.foam-extend.org         |
|    \\/     M anipulation  |                                                 |
\*---------------------------------------------------------------------------*/
FoamFile
{
    version     2.0;
    format      ascii;
    class       surfaceScalarField;
    location    "4";
    object      phi.water;
}
// * * * * * * * * * * * * * * * * * * * * * * * * * * * * * * * * * * * * * //

dimensions      [0 3 -1 0 0 0 0];

internalField   nonuniform List<scalar> 
99
(
1.25291e-07
2.17274e-07
2.92942e-07
3.65493e-07
4.45899e-07
5.13184e-07
5.78104e-07
6.53086e-07
7.16905e-07
7.91105e-07
8.64948e-07
9.12084e-07
9.67241e-07
1.03355e-06
1.07785e-06
1.13718e-06
1.19434e-06
1.25634e-06
1.30501e-06
1.3548e-06
1.4145e-06
1.46851e-06
1.52337e-06
1.56984e-06
1.62171e-06
1.66804e-06
1.72893e-06
1.78301e-06
1.84328e-06
1.88695e-06
1.9441e-06
1.98992e-06
2.04708e-06
2.09842e-06
2.15031e-06
2.20363e-06
2.26219e-06
2.31842e-06
2.38008e-06
2.41734e-06
2.47899e-06
2.53081e-06
2.56093e-06
2.63531e-06
2.68425e-06
2.74775e-06
2.82235e-06
2.88724e-06
2.95541e-06
3.00824e-06
3.08391e-06
3.15108e-06
3.23209e-06
3.29517e-06
3.37924e-06
3.46065e-06
3.53673e-06
3.61965e-06
3.70993e-06
3.79967e-06
3.89525e-06
4.00316e-06
4.11e-06
4.21876e-06
4.3361e-06
4.46416e-06
4.61683e-06
4.7695e-06
4.92268e-06
5.09399e-06
5.27095e-06
5.43324e-06
5.59479e-06
5.73435e-06
5.84155e-06
5.93045e-06
5.9979e-06
6.03414e-06
6.0613e-06
6.07751e-06
6.06945e-06
6.08135e-06
6.08261e-06
6.08422e-06
6.07367e-06
6.07539e-06
6.08392e-06
6.09551e-06
6.10065e-06
6.09212e-06
6.09368e-06
6.09219e-06
6.09712e-06
6.09376e-06
6.08894e-06
6.09003e-06
6.09975e-06
6.09687e-06
6.08892e-06
)
;

boundaryField
{
    inlet
    {
        type            fixedValue;
        value           uniform 0;
    }
    outlet
    {
        type            calculated;
        value           uniform 6.10014e-06;
    }
    yzfaces
    {
        type            empty;
    }
}


// ************************************************************************* //
