/*--------------------------------*- C++ -*----------------------------------*\
| =========                 |                                                 |
| \\      /  F ield         | foam-extend: Open Source CFD                    |
|  \\    /   O peration     | Version:     5.0                                |
|   \\  /    A nd           | Web:         http://www.foam-extend.org         |
|    \\/     M anipulation  |                                                 |
\*---------------------------------------------------------------------------*/
FoamFile
{
    version     2.0;
    format      ascii;
    class       surfaceScalarField;
    location    "4";
    object      phi.water;
}
// * * * * * * * * * * * * * * * * * * * * * * * * * * * * * * * * * * * * * //

dimensions      [0 3 -1 0 0 0 0];

internalField   nonuniform List<scalar> 
99
(
1.27867e-07
2.10404e-07
2.95064e-07
3.69051e-07
4.36509e-07
5.09077e-07
5.83535e-07
6.46684e-07
7.08311e-07
7.8044e-07
8.41717e-07
8.9833e-07
9.49343e-07
1.01385e-06
1.05498e-06
1.11659e-06
1.16818e-06
1.23749e-06
1.27693e-06
1.33216e-06
1.38642e-06
1.44404e-06
1.49965e-06
1.55015e-06
1.59857e-06
1.65636e-06
1.69772e-06
1.75346e-06
1.80369e-06
1.85904e-06
1.90687e-06
1.95935e-06
2.01501e-06
2.06665e-06
2.11403e-06
2.16718e-06
2.2289e-06
2.27823e-06
2.32796e-06
2.37722e-06
2.43368e-06
2.47812e-06
2.51893e-06
2.56952e-06
2.62912e-06
2.68889e-06
2.74074e-06
2.80398e-06
2.85617e-06
2.91995e-06
2.99372e-06
3.05879e-06
3.1256e-06
3.19496e-06
3.27313e-06
3.35319e-06
3.429e-06
3.50785e-06
3.59339e-06
3.68544e-06
3.78255e-06
3.88144e-06
3.98062e-06
4.09722e-06
4.22469e-06
4.34725e-06
4.47748e-06
4.62289e-06
4.77097e-06
4.9389e-06
5.10109e-06
5.27731e-06
5.41905e-06
5.55308e-06
5.66176e-06
5.75158e-06
5.81484e-06
5.8401e-06
5.86555e-06
5.86826e-06
5.87889e-06
5.88633e-06
5.88723e-06
5.8848e-06
5.89142e-06
5.89544e-06
5.90051e-06
5.89963e-06
5.91028e-06
5.89836e-06
5.89517e-06
5.88846e-06
5.88586e-06
5.8903e-06
5.88643e-06
5.88355e-06
5.88067e-06
5.88827e-06
5.89005e-06
)
;

boundaryField
{
    inlet
    {
        type            fixedValue;
        value           uniform 0;
    }
    outlet
    {
        type            calculated;
        value           uniform 5.90797e-06;
    }
    yzfaces
    {
        type            empty;
    }
}


// ************************************************************************* //
