/*--------------------------------*- C++ -*----------------------------------*\
| =========                 |                                                 |
| \\      /  F ield         | foam-extend: Open Source CFD                    |
|  \\    /   O peration     | Version:     5.0                                |
|   \\  /    A nd           | Web:         http://www.foam-extend.org         |
|    \\/     M anipulation  |                                                 |
\*---------------------------------------------------------------------------*/
FoamFile
{
    version     2.0;
    format      ascii;
    class       volVectorField;
    location    "4";
    object      U.gas;
}
// * * * * * * * * * * * * * * * * * * * * * * * * * * * * * * * * * * * * * //

dimensions      [0 1 -1 0 0 0 0];

internalField   nonuniform List<vector> 
100
(
(0.00657353 0 0)
(0.0072524 0 0)
(0.0077445 0 0)
(0.00817993 0 0)
(0.00856223 0 0)
(0.00888144 0 0)
(0.00918452 0 0)
(0.0094593 0 0)
(0.00969621 0 0)
(0.00995445 0 0)
(0.0102001 0 0)
(0.0103651 0 0)
(0.0105515 0 0)
(0.0107472 0 0)
(0.0109006 0 0)
(0.0110635 0 0)
(0.0112123 0 0)
(0.011358 0 0)
(0.0114543 0 0)
(0.0115478 0 0)
(0.0116819 0 0)
(0.0118009 0 0)
(0.0119038 0 0)
(0.011983 0 0)
(0.0120689 0 0)
(0.0121463 0 0)
(0.012234 0 0)
(0.0123294 0 0)
(0.0124109 0 0)
(0.0124713 0 0)
(0.0125555 0 0)
(0.0125957 0 0)
(0.0126542 0 0)
(0.0126986 0 0)
(0.0127614 0 0)
(0.0128246 0 0)
(0.0128757 0 0)
(0.012925 0 0)
(0.0129855 0 0)
(0.0130039 0 0)
(0.013038 0 0)
(0.013082 0 0)
(0.0130672 0 0)
(0.0131003 0 0)
(0.0131165 0 0)
(0.013139 0 0)
(0.013179 0 0)
(0.0132091 0 0)
(0.0132368 0 0)
(0.0132231 0 0)
(0.0132443 0 0)
(0.013244 0 0)
(0.0132538 0 0)
(0.0132349 0 0)
(0.0132151 0 0)
(0.0131969 0 0)
(0.0131655 0 0)
(0.0131199 0 0)
(0.0130689 0 0)
(0.0130139 0 0)
(0.0129395 0 0)
(0.0128658 0 0)
(0.0127666 0 0)
(0.0126365 0 0)
(0.0124762 0 0)
(0.0122832 0 0)
(0.0120672 0 0)
(0.0118168 0 0)
(0.0114931 0 0)
(0.011098 0 0)
(0.0106187 0 0)
(0.0100407 0 0)
(0.00936316 0 0)
(0.0086109 0 0)
(0.00781385 0 0)
(0.00703509 0 0)
(0.00634299 0 0)
(0.00577991 0 0)
(0.00535832 0 0)
(0.00507331 0 0)
(0.004884 0 0)
(0.00476605 0 0)
(0.00469801 0 0)
(0.0046569 0 0)
(0.00462764 0 0)
(0.00460895 0 0)
(0.00460379 0 0)
(0.00460708 0 0)
(0.00461141 0 0)
(0.00460751 0 0)
(0.00460449 0 0)
(0.004605 0 0)
(0.00460757 0 0)
(0.00460906 0 0)
(0.00460433 0 0)
(0.00460289 0 0)
(0.00460435 0 0)
(0.00460514 0 0)
(0.0046026 0 0)
(0.00460331 0 0)
)
;

boundaryField
{
    inlet
    {
        type            fixedValue;
        value           uniform (0.005 0 0);
    }
    outlet
    {
        type            zeroGradient;
    }
    yzfaces
    {
        type            empty;
    }
}


// ************************************************************************* //
