/*--------------------------------*- C++ -*----------------------------------*\
| =========                 |                                                 |
| \\      /  F ield         | foam-extend: Open Source CFD                    |
|  \\    /   O peration     | Version:     5.0                                |
|   \\  /    A nd           | Web:         http://www.foam-extend.org         |
|    \\/     M anipulation  |                                                 |
\*---------------------------------------------------------------------------*/
FoamFile
{
    version     2.0;
    format      ascii;
    class       volVectorField;
    location    "4";
    object      U.gas;
}
// * * * * * * * * * * * * * * * * * * * * * * * * * * * * * * * * * * * * * //

dimensions      [0 1 -1 0 0 0 0];

internalField   nonuniform List<vector> 
100
(
(0.00658261 0 0)
(0.00730461 0 0)
(0.0077819 0 0)
(0.00814615 0 0)
(0.00852013 0 0)
(0.00884264 0 0)
(0.00918055 0 0)
(0.00954652 0 0)
(0.00981003 0 0)
(0.0100379 0 0)
(0.0103096 0 0)
(0.0104901 0 0)
(0.0107089 0 0)
(0.0108755 0 0)
(0.0110194 0 0)
(0.0112676 0 0)
(0.0114147 0 0)
(0.0115907 0 0)
(0.011724 0 0)
(0.0118687 0 0)
(0.0119671 0 0)
(0.0120918 0 0)
(0.0122454 0 0)
(0.0123702 0 0)
(0.0124805 0 0)
(0.0125304 0 0)
(0.0126206 0 0)
(0.0127247 0 0)
(0.0128408 0 0)
(0.0129339 0 0)
(0.0129669 0 0)
(0.0130276 0 0)
(0.0130742 0 0)
(0.0131337 0 0)
(0.0131747 0 0)
(0.0132475 0 0)
(0.0133142 0 0)
(0.0133199 0 0)
(0.0133468 0 0)
(0.0133977 0 0)
(0.0134536 0 0)
(0.0135117 0 0)
(0.0135211 0 0)
(0.0135594 0 0)
(0.0135851 0 0)
(0.0135656 0 0)
(0.0135744 0 0)
(0.0135954 0 0)
(0.0136136 0 0)
(0.013635 0 0)
(0.0136262 0 0)
(0.0136182 0 0)
(0.0136306 0 0)
(0.0136191 0 0)
(0.013577 0 0)
(0.013548 0 0)
(0.0135103 0 0)
(0.0134601 0 0)
(0.013409 0 0)
(0.0133405 0 0)
(0.0132657 0 0)
(0.0131694 0 0)
(0.0130666 0 0)
(0.0129441 0 0)
(0.0127943 0 0)
(0.0126048 0 0)
(0.0123822 0 0)
(0.0121024 0 0)
(0.0117513 0 0)
(0.0113294 0 0)
(0.0108357 0 0)
(0.0102366 0 0)
(0.00953658 0 0)
(0.00875838 0 0)
(0.00794146 0 0)
(0.00714456 0 0)
(0.00643799 0 0)
(0.00586871 0 0)
(0.00544542 0 0)
(0.00515688 0 0)
(0.00498019 0 0)
(0.00487225 0 0)
(0.00480664 0 0)
(0.00476883 0 0)
(0.0047485 0 0)
(0.00473942 0 0)
(0.00472931 0 0)
(0.00472005 0 0)
(0.00471594 0 0)
(0.00471517 0 0)
(0.00471553 0 0)
(0.00471575 0 0)
(0.00471432 0 0)
(0.00471806 0 0)
(0.00472721 0 0)
(0.00473389 0 0)
(0.00473385 0 0)
(0.00473045 0 0)
(0.00472583 0 0)
(0.00471727 0 0)
)
;

boundaryField
{
    inlet
    {
        type            fixedValue;
        value           uniform (0.005 0 0);
    }
    outlet
    {
        type            zeroGradient;
    }
    yzfaces
    {
        type            empty;
    }
}


// ************************************************************************* //
