/*--------------------------------*- C++ -*----------------------------------*\
| =========                 |                                                 |
| \\      /  F ield         | foam-extend: Open Source CFD                    |
|  \\    /   O peration     | Version:     5.0                                |
|   \\  /    A nd           | Web:         http://www.foam-extend.org         |
|    \\/     M anipulation  |                                                 |
\*---------------------------------------------------------------------------*/
FoamFile
{
    version     2.0;
    format      ascii;
    class       volVectorField;
    location    "4";
    object      U.gas;
}
// * * * * * * * * * * * * * * * * * * * * * * * * * * * * * * * * * * * * * //

dimensions      [0 1 -1 0 0 0 0];

internalField   nonuniform List<vector> 
100
(
(0.00658075 0 0)
(0.00722506 0 0)
(0.00777273 0 0)
(0.0081949 0 0)
(0.00855275 0 0)
(0.00886804 0 0)
(0.00918502 0 0)
(0.00944144 0 0)
(0.00964327 0 0)
(0.00988961 0 0)
(0.0100924 0 0)
(0.0102552 0 0)
(0.0103988 0 0)
(0.0105622 0 0)
(0.0106658 0 0)
(0.0108271 0 0)
(0.0109588 0 0)
(0.0111593 0 0)
(0.0112475 0 0)
(0.0113562 0 0)
(0.0114488 0 0)
(0.0115674 0 0)
(0.0116846 0 0)
(0.0117902 0 0)
(0.0118618 0 0)
(0.0119502 0 0)
(0.0120112 0 0)
(0.0120908 0 0)
(0.0121467 0 0)
(0.0122195 0 0)
(0.0122673 0 0)
(0.0123213 0 0)
(0.0123892 0 0)
(0.0124332 0 0)
(0.0124844 0 0)
(0.0125299 0 0)
(0.0125937 0 0)
(0.0126313 0 0)
(0.0126585 0 0)
(0.0126846 0 0)
(0.0127335 0 0)
(0.012764 0 0)
(0.0127582 0 0)
(0.0127545 0 0)
(0.0127786 0 0)
(0.0128035 0 0)
(0.0128194 0 0)
(0.0128441 0 0)
(0.0128434 0 0)
(0.0128416 0 0)
(0.0128408 0 0)
(0.0128405 0 0)
(0.0128291 0 0)
(0.0128089 0 0)
(0.0127874 0 0)
(0.0127744 0 0)
(0.0127492 0 0)
(0.0127033 0 0)
(0.0126563 0 0)
(0.0126027 0 0)
(0.012532 0 0)
(0.0124552 0 0)
(0.0123496 0 0)
(0.0122281 0 0)
(0.0120921 0 0)
(0.0119123 0 0)
(0.0116808 0 0)
(0.0114048 0 0)
(0.0110646 0 0)
(0.010657 0 0)
(0.0101646 0 0)
(0.0095902 0 0)
(0.0089209 0 0)
(0.00818264 0 0)
(0.00741224 0 0)
(0.00667189 0 0)
(0.00602324 0 0)
(0.00550359 0 0)
(0.00511965 0 0)
(0.00485807 0 0)
(0.00469159 0 0)
(0.00459273 0 0)
(0.00453181 0 0)
(0.00449322 0 0)
(0.00447301 0 0)
(0.00446418 0 0)
(0.00446141 0 0)
(0.00445938 0 0)
(0.00446234 0 0)
(0.00446494 0 0)
(0.00446264 0 0)
(0.00446273 0 0)
(0.0044614 0 0)
(0.00446189 0 0)
(0.00446291 0 0)
(0.00446097 0 0)
(0.00445949 0 0)
(0.00445923 0 0)
(0.00446011 0 0)
(0.0044656 0 0)
)
;

boundaryField
{
    inlet
    {
        type            fixedValue;
        value           uniform (0.005 0 0);
    }
    outlet
    {
        type            zeroGradient;
    }
    yzfaces
    {
        type            empty;
    }
}


// ************************************************************************* //
