/*--------------------------------*- C++ -*----------------------------------*\
| =========                 |                                                 |
| \\      /  F ield         | foam-extend: Open Source CFD                    |
|  \\    /   O peration     | Version:     5.0                                |
|   \\  /    A nd           | Web:         http://www.foam-extend.org         |
|    \\/     M anipulation  |                                                 |
\*---------------------------------------------------------------------------*/
FoamFile
{
    version     2.0;
    format      ascii;
    class       volVectorField;
    location    "4";
    object      U.water;
}
// * * * * * * * * * * * * * * * * * * * * * * * * * * * * * * * * * * * * * //

dimensions      [0 1 -1 0 0 0 0];

internalField   nonuniform List<vector> 
100
(
(5.97381e-05 0 0)
(0.000142223 0 0)
(0.000209723 0 0)
(0.000265665 0 0)
(0.000324061 0 0)
(0.000385959 0 0)
(0.000445411 0 0)
(0.000507353 0 0)
(0.00057068 0 0)
(0.000626951 0 0)
(0.000683046 0 0)
(0.000735082 0 0)
(0.000775678 0 0)
(0.000822483 0 0)
(0.000864475 0 0)
(0.000916257 0 0)
(0.000972972 0 0)
(0.00101984 0 0)
(0.00106738 0 0)
(0.00111146 0 0)
(0.0011598 0 0)
(0.00120301 0 0)
(0.00125225 0 0)
(0.0013021 0 0)
(0.00134831 0 0)
(0.00139083 0 0)
(0.00143107 0 0)
(0.00148297 0 0)
(0.0015368 0 0)
(0.00158439 0 0)
(0.00162543 0 0)
(0.00166582 0 0)
(0.00171056 0 0)
(0.00175727 0 0)
(0.00180007 0 0)
(0.00184281 0 0)
(0.00189478 0 0)
(0.00193726 0 0)
(0.00197679 0 0)
(0.00202358 0 0)
(0.00207185 0 0)
(0.00212159 0 0)
(0.00216693 0 0)
(0.00221084 0 0)
(0.00225863 0 0)
(0.00229993 0 0)
(0.00234354 0 0)
(0.00239575 0 0)
(0.00245014 0 0)
(0.00250797 0 0)
(0.00256559 0 0)
(0.00261891 0 0)
(0.00268109 0 0)
(0.00274443 0 0)
(0.00280011 0 0)
(0.00285989 0 0)
(0.00292485 0 0)
(0.0029912 0 0)
(0.00306087 0 0)
(0.00313462 0 0)
(0.00321192 0 0)
(0.00329466 0 0)
(0.00338499 0 0)
(0.00347994 0 0)
(0.00357998 0 0)
(0.00368742 0 0)
(0.00380191 0 0)
(0.00392654 0 0)
(0.00405469 0 0)
(0.00418731 0 0)
(0.00433414 0 0)
(0.00448053 0 0)
(0.00461354 0 0)
(0.00473763 0 0)
(0.00484084 0 0)
(0.00492133 0 0)
(0.0049819 0 0)
(0.0050234 0 0)
(0.00504585 0 0)
(0.00505797 0 0)
(0.00507122 0 0)
(0.00507891 0 0)
(0.00508324 0 0)
(0.00508496 0 0)
(0.00508896 0 0)
(0.00509391 0 0)
(0.00509243 0 0)
(0.00508766 0 0)
(0.00508589 0 0)
(0.00508634 0 0)
(0.00508846 0 0)
(0.00508974 0 0)
(0.00508759 0 0)
(0.0050918 0 0)
(0.00510162 0 0)
(0.00510844 0 0)
(0.00510828 0 0)
(0.00510462 0 0)
(0.00510083 0 0)
(0.00509551 0 0)
)
;

boundaryField
{
    inlet
    {
        type            fixedValue;
        value           uniform (0 0 0);
    }
    outlet
    {
        type            zeroGradient;
    }
    yzfaces
    {
        type            empty;
    }
}


// ************************************************************************* //
