/*--------------------------------*- C++ -*----------------------------------*\
| =========                 |                                                 |
| \\      /  F ield         | foam-extend: Open Source CFD                    |
|  \\    /   O peration     | Version:     5.0                                |
|   \\  /    A nd           | Web:         http://www.foam-extend.org         |
|    \\/     M anipulation  |                                                 |
\*---------------------------------------------------------------------------*/
FoamFile
{
    version     2.0;
    format      ascii;
    class       volVectorField;
    location    "4";
    object      U.water;
}
// * * * * * * * * * * * * * * * * * * * * * * * * * * * * * * * * * * * * * //

dimensions      [0 1 -1 0 0 0 0];

internalField   nonuniform List<vector> 
100
(
(5.97625e-05 0 0)
(0.000139478 0 0)
(0.00020642 0 0)
(0.000271496 0 0)
(0.000329821 0 0)
(0.000386451 0 0)
(0.000445551 0 0)
(0.000502114 0 0)
(0.00055367 0 0)
(0.000607301 0 0)
(0.000661849 0 0)
(0.000710353 0 0)
(0.000754802 0 0)
(0.000800517 0 0)
(0.000845643 0 0)
(0.000885881 0 0)
(0.000933038 0 0)
(0.000980528 0 0)
(0.00102747 0 0)
(0.0010654 0 0)
(0.00110995 0 0)
(0.00115484 0 0)
(0.00120099 0 0)
(0.00124478 0 0)
(0.00128561 0 0)
(0.00132819 0 0)
(0.00137002 0 0)
(0.00140888 0 0)
(0.00145228 0 0)
(0.00149506 0 0)
(0.00153756 0 0)
(0.00157888 0 0)
(0.00162213 0 0)
(0.00166621 0 0)
(0.00170698 0 0)
(0.00174781 0 0)
(0.00179379 0 0)
(0.00183995 0 0)
(0.00188061 0 0)
(0.00192051 0 0)
(0.0019631 0 0)
(0.00200546 0 0)
(0.00204148 0 0)
(0.00207819 0 0)
(0.00212153 0 0)
(0.00217021 0 0)
(0.00221705 0 0)
(0.00226394 0 0)
(0.00231143 0 0)
(0.00235757 0 0)
(0.00241298 0 0)
(0.00247056 0 0)
(0.00252473 0 0)
(0.00258007 0 0)
(0.00264001 0 0)
(0.00270428 0 0)
(0.00276807 0 0)
(0.00283151 0 0)
(0.00289895 0 0)
(0.00297077 0 0)
(0.00304771 0 0)
(0.00312856 0 0)
(0.00321005 0 0)
(0.00329853 0 0)
(0.00340075 0 0)
(0.003506 0 0)
(0.00360998 0 0)
(0.00372268 0 0)
(0.00384255 0 0)
(0.00396919 0 0)
(0.00410197 0 0)
(0.00424013 0 0)
(0.00437115 0 0)
(0.00448547 0 0)
(0.0045853 0 0)
(0.0046641 0 0)
(0.00472533 0 0)
(0.00476205 0 0)
(0.00478255 0 0)
(0.00479296 0 0)
(0.00479648 0 0)
(0.00480111 0 0)
(0.00480214 0 0)
(0.00479993 0 0)
(0.00480027 0 0)
(0.00480412 0 0)
(0.00480845 0 0)
(0.00480995 0 0)
(0.00481452 0 0)
(0.00481735 0 0)
(0.00481511 0 0)
(0.00481459 0 0)
(0.00481267 0 0)
(0.00481326 0 0)
(0.00481375 0 0)
(0.00481279 0 0)
(0.00481154 0 0)
(0.00481237 0 0)
(0.00481395 0 0)
(0.00481994 0 0)
)
;

boundaryField
{
    inlet
    {
        type            fixedValue;
        value           uniform (0 0 0);
    }
    outlet
    {
        type            zeroGradient;
    }
    yzfaces
    {
        type            empty;
    }
}


// ************************************************************************* //
