/*--------------------------------*- C++ -*----------------------------------*\
| =========                 |                                                 |
| \\      /  F ield         | foam-extend: Open Source CFD                    |
|  \\    /   O peration     | Version:     5.0                                |
|   \\  /    A nd           | Web:         http://www.foam-extend.org         |
|    \\/     M anipulation  |                                                 |
\*---------------------------------------------------------------------------*/
FoamFile
{
    version     2.0;
    format      ascii;
    class       volVectorField;
    location    "4";
    object      U.water;
}
// * * * * * * * * * * * * * * * * * * * * * * * * * * * * * * * * * * * * * //

dimensions      [0 1 -1 0 0 0 0];

internalField   nonuniform List<vector> 
100
(
(5.92262e-05 0 0)
(0.000140363 0 0)
(0.000209012 0 0)
(0.000269737 0 0)
(0.000330779 0 0)
(0.000392091 0 0)
(0.000446537 0 0)
(0.000503023 0 0)
(0.000560326 0 0)
(0.000615252 0 0)
(0.000674027 0 0)
(0.000725476 0 0)
(0.000766849 0 0)
(0.000815571 0 0)
(0.000862319 0 0)
(0.000904082 0 0)
(0.000951651 0 0)
(0.000999701 0 0)
(0.00104565 0 0)
(0.00108643 0 0)
(0.00113017 0 0)
(0.00117658 0 0)
(0.00122109 0 0)
(0.00126269 0 0)
(0.00130302 0 0)
(0.00134313 0 0)
(0.00138634 0 0)
(0.00143292 0 0)
(0.00147926 0 0)
(0.00152311 0 0)
(0.00156384 0 0)
(0.00160669 0 0)
(0.00164799 0 0)
(0.00169233 0 0)
(0.0017346 0 0)
(0.00177757 0 0)
(0.00182294 0 0)
(0.00186913 0 0)
(0.00191719 0 0)
(0.00195896 0 0)
(0.00199828 0 0)
(0.00204544 0 0)
(0.00208078 0 0)
(0.00212084 0 0)
(0.0021716 0 0)
(0.00221671 0 0)
(0.00227168 0 0)
(0.00232905 0 0)
(0.0023836 0 0)
(0.00243499 0 0)
(0.00248674 0 0)
(0.00254452 0 0)
(0.00260498 0 0)
(0.00266498 0 0)
(0.00272372 0 0)
(0.00279056 0 0)
(0.00285512 0 0)
(0.00291943 0 0)
(0.00299045 0 0)
(0.00306484 0 0)
(0.00314083 0 0)
(0.00322409 0 0)
(0.00331342 0 0)
(0.00340252 0 0)
(0.0034946 0 0)
(0.00359345 0 0)
(0.00370711 0 0)
(0.00383233 0 0)
(0.00395829 0 0)
(0.00409053 0 0)
(0.00423218 0 0)
(0.0043704 0 0)
(0.00450124 0 0)
(0.00462312 0 0)
(0.00472428 0 0)
(0.00480368 0 0)
(0.00486722 0 0)
(0.00491157 0 0)
(0.00493819 0 0)
(0.00495543 0 0)
(0.00495944 0 0)
(0.00496019 0 0)
(0.00496472 0 0)
(0.0049655 0 0)
(0.00496056 0 0)
(0.00495659 0 0)
(0.00496071 0 0)
(0.00496867 0 0)
(0.00497508 0 0)
(0.00497396 0 0)
(0.00497232 0 0)
(0.00497243 0 0)
(0.0049744 0 0)
(0.00497536 0 0)
(0.00497148 0 0)
(0.00497003 0 0)
(0.00497239 0 0)
(0.00497391 0 0)
(0.00497075 0 0)
(0.00497165 0 0)
)
;

boundaryField
{
    inlet
    {
        type            fixedValue;
        value           uniform (0 0 0);
    }
    outlet
    {
        type            zeroGradient;
    }
    yzfaces
    {
        type            empty;
    }
}


// ************************************************************************* //
