/*--------------------------------*- C++ -*----------------------------------*\
| =========                 |                                                 |
| \\      /  F ield         | foam-extend: Open Source CFD                    |
|  \\    /   O peration     | Version:     5.0                                |
|   \\  /    A nd           | Web:         http://www.foam-extend.org         |
|    \\/     M anipulation  |                                                 |
\*---------------------------------------------------------------------------*/
FoamFile
{
    version     2.0;
    format      ascii;
    class       volScalarField;
    location    "10";
    object      alpha.gas;
}
// * * * * * * * * * * * * * * * * * * * * * * * * * * * * * * * * * * * * * //

dimensions      [0 0 0 0 0 0 0];

internalField   nonuniform List<scalar> 
100
(
0.169296
0.158348
0.149113
0.147423
0.143827
0.138154
0.132227
0.128141
0.125545
0.1245
0.123175
0.120215
0.116259
0.112552
0.109961
0.107522
0.106073
0.103726
0.101617
0.0997104
0.0978659
0.0963087
0.0947893
0.093453
0.0922298
0.090665
0.0894202
0.088638
0.0875062
0.0870424
0.0867363
0.0863107
0.0858569
0.0855646
0.0852051
0.08466
0.0840298
0.0831409
0.0824384
0.0812798
0.0803823
0.0794328
0.0785478
0.0776081
0.0769233
0.0762642
0.0755408
0.0751535
0.074553
0.0741451
0.0735932
0.0731044
0.0726666
0.0720077
0.0713518
0.0708155
0.0703155
0.0698248
0.0693767
0.0690353
0.0687011
0.068347
0.0676755
0.0671184
0.0666457
0.0661849
0.0658778
0.065422
0.0650914
0.0647664
0.0643524
0.0639017
0.063478
0.0629863
0.062584
0.0621865
0.0617583
0.0614781
0.0612172
0.0608409
0.0605499
0.0602771
0.0599243
0.0595668
0.0591727
0.0588656
0.0585193
0.05818
0.0578231
0.0574809
0.0572342
0.0569311
0.0566174
0.0562885
0.0559676
0.05572
0.055468
0.055208
0.0549833
0.0547789
)
;

boundaryField
{
    inlet
    {
        type            fixedValue;
        value           uniform 0.2;
    }
    outlet
    {
        type            zeroGradient;
    }
    yzfaces
    {
        type            empty;
    }
}


// ************************************************************************* //
