/*--------------------------------*- C++ -*----------------------------------*\
| =========                 |                                                 |
| \\      /  F ield         | foam-extend: Open Source CFD                    |
|  \\    /   O peration     | Version:     5.0                                |
|   \\  /    A nd           | Web:         http://www.foam-extend.org         |
|    \\/     M anipulation  |                                                 |
\*---------------------------------------------------------------------------*/
FoamFile
{
    version     2.0;
    format      ascii;
    class       volScalarField;
    location    "10";
    object      Cl.water;
}
// * * * * * * * * * * * * * * * * * * * * * * * * * * * * * * * * * * * * * //

dimensions      [0 0 0 0 0 0 0];

internalField   nonuniform List<scalar> 
100
(
0.00575001
0.00838736
0.0103048
0.0124066
0.0132287
0.0136658
0.0146148
0.015355
0.0160914
0.016593
0.0168337
0.0170288
0.0173465
0.0176982
0.0181892
0.0185122
0.0188695
0.0191944
0.0197064
0.0200445
0.0204023
0.0207777
0.021039
0.0213375
0.0216156
0.0218731
0.0222532
0.0225412
0.0226846
0.0228184
0.0229756
0.0230146
0.0231405
0.0232527
0.0233751
0.023439
0.0235829
0.0236532
0.0238526
0.0239474
0.0242084
0.0243507
0.024525
0.0246838
0.0248614
0.0250143
0.0251466
0.0252909
0.0253831
0.0255515
0.0256529
0.0257489
0.0258957
0.0258937
0.0260142
0.0261875
0.0263014
0.0264024
0.0265029
0.0266224
0.0267874
0.0269182
0.0268961
0.0269705
0.0271147
0.0272305
0.0273204
0.0273792
0.0275173
0.0275912
0.0276346
0.0277054
0.0277835
0.0278645
0.0280145
0.0281449
0.0282564
0.0284059
0.028479
0.0284892
0.0285453
0.0285883
0.0286397
0.0286854
0.028735
0.0288287
0.0288795
0.0289638
0.0290604
0.0291516
0.0292337
0.0292844
0.0293537
0.0294244
0.0294452
0.0295172
0.0295689
0.0296376
0.0297267
0.0297999
)
;

boundaryField
{
    inlet
    {
        type            fixedValue;
        value           uniform 0;
    }
    outlet
    {
        type            zeroGradient;
    }
    yzfaces
    {
        type            empty;
    }
}


// ************************************************************************* //
