/*--------------------------------*- C++ -*----------------------------------*\
| =========                 |                                                 |
| \\      /  F ield         | foam-extend: Open Source CFD                    |
|  \\    /   O peration     | Version:     5.0                                |
|   \\  /    A nd           | Web:         http://www.foam-extend.org         |
|    \\/     M anipulation  |                                                 |
\*---------------------------------------------------------------------------*/
FoamFile
{
    version     2.0;
    format      ascii;
    class       volScalarField;
    location    "10";
    object      CO2.gas;
}
// * * * * * * * * * * * * * * * * * * * * * * * * * * * * * * * * * * * * * //

dimensions      [0 0 0 0 0 0 0];

internalField   nonuniform List<scalar> 
100
(
0.168967
0.15804
0.148822
0.147136
0.143547
0.137885
0.131969
0.127892
0.1253
0.124257
0.122935
0.119981
0.116033
0.112333
0.109747
0.107313
0.105866
0.103524
0.101419
0.0995162
0.0976753
0.0961212
0.0946047
0.093271
0.0920502
0.0904885
0.089246
0.0884654
0.0873358
0.0868729
0.0865674
0.0861426
0.0856897
0.085398
0.0850392
0.0844951
0.0838662
0.082979
0.0822778
0.0811215
0.0802258
0.0792781
0.0783949
0.077457
0.0767735
0.0761156
0.0753937
0.0750071
0.0744078
0.0740007
0.0734499
0.072962
0.0725251
0.0718674
0.0712129
0.0706776
0.0701786
0.0696889
0.0692416
0.0689008
0.0685673
0.0682139
0.0675437
0.0669877
0.0665159
0.066056
0.0657495
0.0652946
0.0649647
0.0646403
0.0642271
0.0637773
0.0633543
0.0628636
0.0624621
0.0620654
0.061638
0.0613584
0.061098
0.0607224
0.0604319
0.0601597
0.0598076
0.0594508
0.0590575
0.0587509
0.0584054
0.0580667
0.0577105
0.0573689
0.0571228
0.0568202
0.0565071
0.0561788
0.0558586
0.0556115
0.05536
0.0551004
0.0548762
0.0546722
)
;

boundaryField
{
    inlet
    {
        type            fixedValue;
        value           uniform 0.2;
    }
    outlet
    {
        type            zeroGradient;
    }
    yzfaces
    {
        type            empty;
    }
}


// ************************************************************************* //
