/*--------------------------------*- C++ -*----------------------------------*\
| =========                 |                                                 |
| \\      /  F ield         | foam-extend: Open Source CFD                    |
|  \\    /   O peration     | Version:     5.0                                |
|   \\  /    A nd           | Web:         http://www.foam-extend.org         |
|    \\/     M anipulation  |                                                 |
\*---------------------------------------------------------------------------*/
FoamFile
{
    version     2.0;
    format      ascii;
    class       volScalarField;
    location    "10";
    object      CO2.water;
}
// * * * * * * * * * * * * * * * * * * * * * * * * * * * * * * * * * * * * * //

dimensions      [0 0 0 0 0 0 0];

internalField   nonuniform List<scalar> 
100
(
0.000806419
0.00109397
0.00133653
0.00138091
0.00147535
0.00162435
0.00178003
0.00188734
0.00195553
0.00198298
0.00201778
0.00209552
0.00219941
0.00229677
0.00236483
0.00242888
0.00246696
0.00252859
0.00258398
0.00263406
0.00268251
0.0027234
0.00276331
0.00279841
0.00283053
0.00287163
0.00290433
0.00292487
0.0029546
0.00296678
0.00297482
0.002986
0.00299792
0.00300559
0.00301504
0.00302935
0.0030459
0.00306925
0.0030877
0.00311813
0.0031417
0.00316664
0.00318989
0.00321457
0.00323255
0.00324986
0.00326886
0.00327904
0.00329481
0.00330552
0.00332002
0.00333285
0.00334435
0.00336166
0.00337888
0.00339297
0.0034061
0.00341899
0.00343076
0.00343973
0.00344851
0.00345781
0.00347544
0.00349007
0.00350249
0.00351459
0.00352266
0.00353463
0.00354331
0.00355185
0.00356272
0.00357456
0.00358569
0.0035986
0.00360917
0.00361961
0.00363085
0.00363821
0.00364507
0.00365495
0.00366259
0.00366976
0.00367902
0.00368841
0.00369876
0.00370683
0.00371592
0.00372484
0.00373421
0.0037432
0.00374968
0.00375764
0.00376588
0.00377452
0.00378294
0.00378945
0.00379607
0.0038029
0.0038088
0.00381417
)
;

boundaryField
{
    inlet
    {
        type            fixedValue;
        value           uniform 0;
    }
    outlet
    {
        type            zeroGradient;
    }
    yzfaces
    {
        type            empty;
    }
}


// ************************************************************************* //
