/*--------------------------------*- C++ -*----------------------------------*\
| =========                 |                                                 |
| \\      /  F ield         | foam-extend: Open Source CFD                    |
|  \\    /   O peration     | Version:     5.0                                |
|   \\  /    A nd           | Web:         http://www.foam-extend.org         |
|    \\/     M anipulation  |                                                 |
\*---------------------------------------------------------------------------*/
FoamFile
{
    version     2.0;
    format      ascii;
    class       volScalarField;
    location    "10";
    object      H2O.water;
}
// * * * * * * * * * * * * * * * * * * * * * * * * * * * * * * * * * * * * * //

dimensions      [0 0 0 0 0 0 0];

internalField   nonuniform List<scalar> 
100
(
0.0183983
0.0237805
0.0289391
0.0263814
0.0282344
0.0328791
0.0367498
0.0392631
0.0403331
0.0403457
0.0411506
0.0436351
0.0468502
0.0497604
0.0513112
0.0530425
0.0537301
0.05536
0.0563998
0.0575811
0.0586382
0.0594065
0.0603533
0.0610623
0.0616933
0.0627023
0.063161
0.0633375
0.0641724
0.0643408
0.0643274
0.0646604
0.0648437
0.0648995
0.0650145
0.0654206
0.0657435
0.0664779
0.0667633
0.0676915
0.0680408
0.068688
0.0692097
0.0697983
0.0701123
0.0704504
0.0708882
0.0709755
0.0713863
0.07145
0.071777
0.0720598
0.0721955
0.0728449
0.0732539
0.0734211
0.0736635
0.0739377
0.0741714
0.0742737
0.0742764
0.0743612
0.075053
0.0754492
0.075626
0.0758385
0.0759662
0.0762938
0.0763416
0.0765159
0.0768334
0.0771317
0.0773788
0.0777035
0.0777882
0.077909
0.0781065
0.078076
0.0781859
0.0785349
0.0786925
0.0788602
0.0791064
0.0793823
0.0796718
0.0797966
0.0800315
0.0801721
0.0803328
0.080475
0.080556
0.0807527
0.0809181
0.0810772
0.0813499
0.0814553
0.0815986
0.0817055
0.0817551
0.0818065
)
;

boundaryField
{
    inlet
    {
        type            fixedValue;
        value           uniform 0;
    }
    outlet
    {
        type            zeroGradient;
    }
    yzfaces
    {
        type            empty;
    }
}


// ************************************************************************* //
