/*--------------------------------*- C++ -*----------------------------------*\
| =========                 |                                                 |
| \\      /  F ield         | foam-extend: Open Source CFD                    |
|  \\    /   O peration     | Version:     5.0                                |
|   \\  /    A nd           | Web:         http://www.foam-extend.org         |
|    \\/     M anipulation  |                                                 |
\*---------------------------------------------------------------------------*/
FoamFile
{
    version     2.0;
    format      ascii;
    class       volScalarField;
    location    "10";
    object      H2O.gas;
}
// * * * * * * * * * * * * * * * * * * * * * * * * * * * * * * * * * * * * * //

dimensions      [0 0 0 0 0 0 0];

internalField   nonuniform List<scalar> 
100
(
0.0003297
0.000308378
0.000290393
0.000287102
0.0002801
0.000269051
0.000257508
0.000249551
0.000244495
0.000242459
0.000239879
0.000234115
0.000226411
0.000219193
0.000214146
0.000209397
0.000206573
0.000202003
0.000197896
0.000194183
0.000190591
0.000187558
0.000184599
0.000181997
0.000179615
0.000176568
0.000174143
0.00017262
0.000170416
0.000169513
0.000168916
0.000168088
0.000167204
0.000166635
0.000165934
0.000164873
0.000163646
0.000161915
0.000160546
0.00015829
0.000156542
0.000154693
0.00015297
0.00015114
0.000149806
0.000148522
0.000147113
0.000146359
0.00014519
0.000144395
0.000143321
0.000142369
0.000141516
0.000140233
0.000138956
0.000137911
0.000136937
0.000135982
0.000135109
0.000134444
0.000133793
0.000133104
0.000131796
0.000130711
0.000129791
0.000128893
0.000128295
0.000127408
0.000126764
0.000126131
0.000125324
0.000124447
0.000123621
0.000122664
0.000121881
0.000121106
0.000120273
0.000119727
0.000119219
0.000118486
0.000117919
0.000117388
0.000116701
0.000116005
0.000115237
0.000114639
0.000113965
0.000113304
0.000112609
0.000111942
0.000111462
0.000110872
0.000110261
0.00010962
0.000108995
0.000108513
0.000108022
0.000107516
0.000107078
0.00010668
)
;

boundaryField
{
    inlet
    {
        type            fixedValue;
        value           uniform 0;
    }
    outlet
    {
        type            zeroGradient;
    }
    yzfaces
    {
        type            empty;
    }
}


// ************************************************************************* //
