/*--------------------------------*- C++ -*----------------------------------*\
| =========                 |                                                 |
| \\      /  F ield         | foam-extend: Open Source CFD                    |
|  \\    /   O peration     | Version:     5.0                                |
|   \\  /    A nd           | Web:         http://www.foam-extend.org         |
|    \\/     M anipulation  |                                                 |
\*---------------------------------------------------------------------------*/
FoamFile
{
    version     2.0;
    format      ascii;
    class       volScalarField;
    location    "10";
    object      Na.water;
}
// * * * * * * * * * * * * * * * * * * * * * * * * * * * * * * * * * * * * * //

dimensions      [0 0 0 0 0 0 0];

internalField   nonuniform List<scalar> 
100
(
0.00574897
0.00839021
0.0103068
0.0124079
0.0132343
0.0136765
0.0146284
0.0153534
0.0160751
0.0165786
0.0168233
0.0170256
0.0173448
0.0176923
0.0181737
0.018494
0.0188609
0.0191911
0.0196927
0.0200299
0.0204111
0.0207837
0.021055
0.0213488
0.0216307
0.021888
0.0222613
0.0225584
0.0226822
0.0228316
0.0229859
0.0230283
0.023161
0.0232776
0.0233903
0.023451
0.0235979
0.0236587
0.023858
0.0239632
0.0242268
0.0243619
0.0245276
0.0246952
0.0248705
0.0250213
0.0251556
0.0253011
0.0253828
0.0255479
0.0256568
0.025754
0.0258977
0.0258921
0.0260012
0.0261829
0.0263135
0.0264161
0.0265183
0.0266289
0.0267867
0.0269159
0.0269
0.0269719
0.0271111
0.0272315
0.027313
0.0273703
0.0275064
0.0275747
0.0276169
0.0276866
0.027774
0.0278471
0.0280041
0.02814
0.0282479
0.0284017
0.0284728
0.0284801
0.0285498
0.0286047
0.0286506
0.0286771
0.0287217
0.0288023
0.0288537
0.0289593
0.0290495
0.0291493
0.0292265
0.0292742
0.029345
0.0294354
0.0294543
0.029518
0.0295685
0.029646
0.0297261
0.0298006
)
;

boundaryField
{
    inlet
    {
        type            fixedValue;
        value           uniform 0;
    }
    outlet
    {
        type            zeroGradient;
    }
    yzfaces
    {
        type            empty;
    }
}


// ************************************************************************* //
