/*--------------------------------*- C++ -*----------------------------------*\
| =========                 |                                                 |
| \\      /  F ield         | foam-extend: Open Source CFD                    |
|  \\    /   O peration     | Version:     5.0                                |
|   \\  /    A nd           | Web:         http://www.foam-extend.org         |
|    \\/     M anipulation  |                                                 |
\*---------------------------------------------------------------------------*/
FoamFile
{
    version     2.0;
    format      ascii;
    class       surfaceScalarField;
    location    "10";
    object      phi;
}
// * * * * * * * * * * * * * * * * * * * * * * * * * * * * * * * * * * * * * //

dimensions      [0 3 -1 0 0 0 0];

internalField   nonuniform List<scalar> 
99
(
1.219e-06
1.23285e-06
1.23216e-06
1.23027e-06
1.20939e-06
1.20401e-06
1.20697e-06
1.19249e-06
1.19382e-06
1.17926e-06
1.16727e-06
1.16272e-06
1.16257e-06
1.16072e-06
1.16066e-06
1.16143e-06
1.15694e-06
1.15668e-06
1.1521e-06
1.14381e-06
1.14204e-06
1.14662e-06
1.13978e-06
1.14576e-06
1.14741e-06
1.15085e-06
1.16005e-06
1.15575e-06
1.16385e-06
1.16548e-06
1.16573e-06
1.16582e-06
1.17009e-06
1.17395e-06
1.16989e-06
1.16583e-06
1.1624e-06
1.16814e-06
1.16446e-06
1.16216e-06
1.16307e-06
1.16682e-06
1.16289e-06
1.16452e-06
1.16408e-06
1.1614e-06
1.16254e-06
1.16228e-06
1.16173e-06
1.16275e-06
1.16265e-06
1.15893e-06
1.16125e-06
1.15986e-06
1.15971e-06
1.15884e-06
1.1598e-06
1.16232e-06
1.16361e-06
1.16346e-06
1.16028e-06
1.15436e-06
1.1583e-06
1.15842e-06
1.16179e-06
1.15964e-06
1.15799e-06
1.15399e-06
1.15603e-06
1.15708e-06
1.15767e-06
1.15735e-06
1.15958e-06
1.16116e-06
1.16208e-06
1.16218e-06
1.16346e-06
1.16308e-06
1.1644e-06
1.16628e-06
1.16561e-06
1.16224e-06
1.16692e-06
1.16717e-06
1.16434e-06
1.1632e-06
1.16305e-06
1.1621e-06
1.16364e-06
1.16477e-06
1.16538e-06
1.16515e-06
1.16384e-06
1.1648e-06
1.16715e-06
1.16737e-06
1.16588e-06
1.16236e-06
1.15987e-06
)
;

boundaryField
{
    inlet
    {
        type            calculated;
        value           uniform -1.225e-06;
    }
    outlet
    {
        type            calculated;
        value           uniform 1.16104e-06;
    }
    yzfaces
    {
        type            empty;
    }
}


// ************************************************************************* //
