/*--------------------------------*- C++ -*----------------------------------*\
| =========                 |                                                 |
| \\      /  F ield         | foam-extend: Open Source CFD                    |
|  \\    /   O peration     | Version:     5.0                                |
|   \\  /    A nd           | Web:         http://www.foam-extend.org         |
|    \\/     M anipulation  |                                                 |
\*---------------------------------------------------------------------------*/
FoamFile
{
    version     2.0;
    format      ascii;
    class       volVectorField;
    location    "10";
    object      U.gas;
}
// * * * * * * * * * * * * * * * * * * * * * * * * * * * * * * * * * * * * * //

dimensions      [0 1 -1 0 0 0 0];

internalField   nonuniform List<vector> 
100
(
(0.00588684 0 0)
(0.00630166 0 0)
(0.00671208 0 0)
(0.00677084 0 0)
(0.00686892 0 0)
(0.0070594 0 0)
(0.00734581 0 0)
(0.00751971 0 0)
(0.00761401 0 0)
(0.00762419 0 0)
(0.00761186 0 0)
(0.00772849 0 0)
(0.00794666 0 0)
(0.00816453 0 0)
(0.0083156 0 0)
(0.00847542 0 0)
(0.00855088 0 0)
(0.00869777 0 0)
(0.00882325 0 0)
(0.00890512 0 0)
(0.00899612 0 0)
(0.00911717 0 0)
(0.00921892 0 0)
(0.00931141 0 0)
(0.00943349 0 0)
(0.00957883 0 0)
(0.00972343 0 0)
(0.00979864 0 0)
(0.00990906 0 0)
(0.0099764 0 0)
(0.0100068 0 0)
(0.0100448 0 0)
(0.0101001 0 0)
(0.010155 0 0)
(0.0101846 0 0)
(0.0101972 0 0)
(0.0102173 0 0)
(0.0103049 0 0)
(0.010368 0 0)
(0.0104464 0 0)
(0.0105085 0 0)
(0.0106105 0 0)
(0.0106817 0 0)
(0.0107513 0 0)
(0.0108072 0 0)
(0.0108469 0 0)
(0.0109016 0 0)
(0.0109279 0 0)
(0.0109805 0 0)
(0.0110098 0 0)
(0.0110647 0 0)
(0.0110844 0 0)
(0.0111121 0 0)
(0.0111792 0 0)
(0.0112257 0 0)
(0.0112601 0 0)
(0.0112988 0 0)
(0.0113549 0 0)
(0.0114093 0 0)
(0.0114389 0 0)
(0.0114484 0 0)
(0.0114324 0 0)
(0.0114893 0 0)
(0.0115475 0 0)
(0.0115989 0 0)
(0.0116395 0 0)
(0.0116372 0 0)
(0.0116522 0 0)
(0.011661 0 0)
(0.0117002 0 0)
(0.0117436 0 0)
(0.0117804 0 0)
(0.0118201 0 0)
(0.0118797 0 0)
(0.0119162 0 0)
(0.011951 0 0)
(0.0119919 0 0)
(0.0120059 0 0)
(0.0120269 0 0)
(0.0120779 0 0)
(0.0120978 0 0)
(0.0120935 0 0)
(0.0121282 0 0)
(0.0121789 0 0)
(0.0121953 0 0)
(0.0121872 0 0)
(0.012204 0 0)
(0.0122189 0 0)
(0.0122468 0 0)
(0.0122808 0 0)
(0.0122973 0 0)
(0.0123219 0 0)
(0.0123312 0 0)
(0.0123477 0 0)
(0.0123831 0 0)
(0.0124039 0 0)
(0.0124104 0 0)
(0.0123976 0 0)
(0.0123753 0 0)
(0.0123795 0 0)
)
;

boundaryField
{
    inlet
    {
        type            fixedValue;
        value           uniform (0.005 0 0);
    }
    outlet
    {
        type            zeroGradient;
    }
    yzfaces
    {
        type            empty;
    }
}


// ************************************************************************* //
