/*--------------------------------*- C++ -*----------------------------------*\
| =========                 |                                                 |
| \\      /  F ield         | foam-extend: Open Source CFD                    |
|  \\    /   O peration     | Version:     5.0                                |
|   \\  /    A nd           | Web:         http://www.foam-extend.org         |
|    \\/     M anipulation  |                                                 |
\*---------------------------------------------------------------------------*/
FoamFile
{
    version     2.0;
    format      ascii;
    class       volVectorField;
    location    "10";
    object      U.water;
}
// * * * * * * * * * * * * * * * * * * * * * * * * * * * * * * * * * * * * * //

dimensions      [0 1 -1 0 0 0 0];

internalField   nonuniform List<vector> 
100
(
(3.02935e-05 0 0)
(6.95565e-05 0 0)
(0.000103516 0 0)
(0.000131106 0 0)
(0.000139603 0 0)
(0.000158029 0 0)
(0.000188264 0 0)
(0.000219721 0 0)
(0.000243173 0 0)
(0.000256933 0 0)
(0.000262683 0 0)
(0.000274956 0 0)
(0.000301249 0 0)
(0.000335571 0 0)
(0.000367726 0 0)
(0.000394604 0 0)
(0.000417954 0 0)
(0.000437789 0 0)
(0.000465142 0 0)
(0.000490281 0 0)
(0.00051488 0 0)
(0.000540879 0 0)
(0.000564296 0 0)
(0.000588438 0 0)
(0.000611833 0 0)
(0.000636574 0 0)
(0.00066697 0 0)
(0.000688663 0 0)
(0.000708241 0 0)
(0.000729281 0 0)
(0.000737799 0 0)
(0.000744854 0 0)
(0.000755829 0 0)
(0.000767646 0 0)
(0.000774368 0 0)
(0.000780831 0 0)
(0.000791106 0 0)
(0.000808507 0 0)
(0.000828164 0 0)
(0.000847061 0 0)
(0.000872584 0 0)
(0.000897054 0 0)
(0.000921183 0 0)
(0.000944294 0 0)
(0.000967876 0 0)
(0.000985533 0 0)
(0.00100456 0 0)
(0.00102238 0 0)
(0.00103586 0 0)
(0.00105232 0 0)
(0.00106682 0 0)
(0.00108169 0 0)
(0.00109577 0 0)
(0.00111257 0 0)
(0.0011332 0 0)
(0.00115306 0 0)
(0.00117132 0 0)
(0.00119032 0 0)
(0.00120819 0 0)
(0.00122273 0 0)
(0.00123341 0 0)
(0.00124095 0 0)
(0.0012575 0 0)
(0.00128345 0 0)
(0.00130486 0 0)
(0.00132393 0 0)
(0.00133713 0 0)
(0.00134758 0 0)
(0.00136267 0 0)
(0.00137796 0 0)
(0.0013938 0 0)
(0.00141162 0 0)
(0.00143107 0 0)
(0.0014523 0 0)
(0.00147363 0 0)
(0.00149105 0 0)
(0.00150924 0 0)
(0.00152691 0 0)
(0.0015401 0 0)
(0.00155556 0 0)
(0.00157241 0 0)
(0.00158298 0 0)
(0.00159844 0 0)
(0.00161808 0 0)
(0.00163324 0 0)
(0.00164815 0 0)
(0.00166326 0 0)
(0.00167917 0 0)
(0.00169603 0 0)
(0.00171528 0 0)
(0.0017319 0 0)
(0.00174557 0 0)
(0.00176068 0 0)
(0.00177739 0 0)
(0.00179657 0 0)
(0.00181396 0 0)
(0.00182635 0 0)
(0.00183614 0 0)
(0.00184401 0 0)
(0.00185354 0 0)
)
;

boundaryField
{
    inlet
    {
        type            fixedValue;
        value           uniform (0 0 0);
    }
    outlet
    {
        type            zeroGradient;
    }
    yzfaces
    {
        type            empty;
    }
}


// ************************************************************************* //
