/*--------------------------------*- C++ -*----------------------------------*\
| =========                 |                                                 |
| \\      /  F ield         | foam-extend: Open Source CFD                    |
|  \\    /   O peration     | Version:     5.0                                |
|   \\  /    A nd           | Web:         http://www.foam-extend.org         |
|    \\/     M anipulation  |                                                 |
\*---------------------------------------------------------------------------*/
FoamFile
{
    version     2.0;
    format      ascii;
    class       volScalarField;
    location    "5";
    object      alpha.gas;
}
// * * * * * * * * * * * * * * * * * * * * * * * * * * * * * * * * * * * * * //

dimensions      [0 0 0 0 0 0 0];

internalField   nonuniform List<scalar> 
100
(
0.15598
0.141186
0.13111
0.123158
0.117573
0.11264
0.108988
0.105503
0.10224
0.099198
0.0962689
0.0934607
0.0912511
0.089129
0.0868924
0.0851867
0.0837891
0.082329
0.0809096
0.0800138
0.0792455
0.0781141
0.0766834
0.0754497
0.074204
0.072966
0.071662
0.070442
0.0693098
0.0683044
0.0671898
0.0661333
0.0649327
0.0638436
0.0627838
0.0618261
0.0608843
0.0599271
0.0591172
0.0582474
0.0572009
0.056146
0.0550391
0.0537735
0.0524116
0.0507829
0.0487422
0.0464896
0.044266
0.0339107
0.0308395
0.0313525
0.0327496
0.0339644
0.0347427
0.0351528
0.0353487
0.0353945
0.0353855
0.0353612
0.0353068
0.035235
0.0351539
0.0350527
0.0349382
0.0348007
0.0346357
0.0344519
0.0342216
0.0339627
0.0336616
0.0333017
0.0328915
0.0323977
0.0318139
0.0311659
0.0304315
0.0295816
0.0286044
0.0274938
0.0262488
0.0248615
0.0233057
0.0216047
0.0197904
0.0179174
0.0160857
0.0144201
0.0130291
0.011968
0.0112252
0.0107404
0.0104373
0.0102542
0.0101461
0.0100853
0.0100483
0.0100274
0.0100154
0.0100099
)
;

boundaryField
{
    inlet
    {
        type            fixedValue;
        value           uniform 0.2;
    }
    outlet
    {
        type            zeroGradient;
    }
    yzfaces
    {
        type            empty;
    }
}


// ************************************************************************* //
