/*--------------------------------*- C++ -*----------------------------------*\
| =========                 |                                                 |
| \\      /  F ield         | foam-extend: Open Source CFD                    |
|  \\    /   O peration     | Version:     5.0                                |
|   \\  /    A nd           | Web:         http://www.foam-extend.org         |
|    \\/     M anipulation  |                                                 |
\*---------------------------------------------------------------------------*/
FoamFile
{
    version     2.0;
    format      ascii;
    class       volScalarField;
    location    "5";
    object      Cl.water;
}
// * * * * * * * * * * * * * * * * * * * * * * * * * * * * * * * * * * * * * //

dimensions      [0 0 0 0 0 0 0];

internalField   nonuniform List<scalar> 
100
(
1.0758e-15
0.00213252
0.00436405
0.00516912
0.00536529
0.00573396
0.00653998
0.00716372
0.00740108
0.00747118
0.00772179
0.00803962
0.00817312
0.00815936
0.00833922
0.00862308
0.00873334
0.00873949
0.00887154
0.00905486
0.00902611
0.00891914
0.00906153
0.00925899
0.00928157
0.00922128
0.00940504
0.0100452
0.0105575
0.0105454
0.0103445
0.0105175
0.0104454
0.0100107
0.00986535
0.0104918
0.0104439
0.00992306
0.0100574
0.0111746
0.010429
0.00968539
0.0104894
0.0123876
0.0144202
0.00965719
0.010038
0.0132199
0.0160567
0.00401406
0.0137654
0.0184642
0.0197824
0.0200308
0.0200058
0.0199638
0.0199348
0.0199296
0.0199336
0.0199355
0.0199217
0.0199305
0.0199511
0.019962
0.0199887
0.0199961
0.0200199
0.0200449
0.020085
0.0201258
0.0201582
0.0202059
0.0202526
0.0202863
0.020358
0.0204395
0.0205228
0.0206258
0.0207557
0.0208932
0.0210622
0.0212364
0.0214281
0.0216358
0.0218536
0.0220663
0.0222958
0.0225026
0.0226507
0.022778
0.0228611
0.0229256
0.0229816
0.0230073
0.0230002
0.0229995
0.0230197
0.0230235
0.023003
0.0230125
)
;

boundaryField
{
    inlet
    {
        type            fixedValue;
        value           uniform 0;
    }
    outlet
    {
        type            zeroGradient;
    }
    yzfaces
    {
        type            empty;
    }
}


// ************************************************************************* //
