/*--------------------------------*- C++ -*----------------------------------*\
| =========                 |                                                 |
| \\      /  F ield         | foam-extend: Open Source CFD                    |
|  \\    /   O peration     | Version:     5.0                                |
|   \\  /    A nd           | Web:         http://www.foam-extend.org         |
|    \\/     M anipulation  |                                                 |
\*---------------------------------------------------------------------------*/
FoamFile
{
    version     2.0;
    format      ascii;
    class       volScalarField;
    location    "5";
    object      CO2.water;
}
// * * * * * * * * * * * * * * * * * * * * * * * * * * * * * * * * * * * * * //

dimensions      [0 0 0 0 0 0 0];

internalField   nonuniform List<scalar> 
100
(
0.00115627
0.00107673
0.000851804
0.000878057
0.000999244
0.00104519
0.000978176
0.000924149
0.000957359
0.00102039
0.00103641
0.00104316
0.00108727
0.00114343
0.00116117
0.00115616
0.0011724
0.00121194
0.0012193
0.00121403
0.00123545
0.0012749
0.00127548
0.00126093
0.00128642
0.00132825
0.00131551
0.0012094
0.00113002
0.00115998
0.00122688
0.00121665
0.00126199
0.00138676
0.00144757
0.00134243
0.00138346
0.00152462
0.00151926
0.00129646
0.00148688
0.00167622
0.00152551
0.0011428
0.000740859
0.00182173
0.00179416
0.00116903
0.000609267
0.0034842
0.00145384
0.000423895
0.000102076
2.21786e-05
4.63049e-06
9.71463e-07
2.09801e-07
4.67871e-08
1.06711e-08
2.45426e-09
5.63865e-10
1.30369e-10
3.16721e-11
8.72877e-12
2.93038e-12
1.14114e-12
4.43026e-13
1.6496e-13
5.89689e-14
2.07942e-14
7.87471e-15
3.54036e-15
1.84042e-15
1.04326e-15
5.7482e-16
3.00214e-16
1.51997e-16
7.58147e-17
3.76299e-17
1.86638e-17
9.27195e-18
4.61296e-18
2.29678e-18
1.14153e-18
5.64332e-19
2.76228e-19
1.33287e-19
6.29775e-20
2.89552e-20
1.28886e-20
5.54032e-21
2.30389e-21
9.28412e-22
3.64655e-22
1.40385e-22
5.35319e-23
2.04362e-23
7.86674e-24
3.07203e-24
1.35809e-24
)
;

boundaryField
{
    inlet
    {
        type            fixedValue;
        value           uniform 0;
    }
    outlet
    {
        type            zeroGradient;
    }
    yzfaces
    {
        type            empty;
    }
}


// ************************************************************************* //
