/*--------------------------------*- C++ -*----------------------------------*\
| =========                 |                                                 |
| \\      /  F ield         | foam-extend: Open Source CFD                    |
|  \\    /   O peration     | Version:     5.0                                |
|   \\  /    A nd           | Web:         http://www.foam-extend.org         |
|    \\/     M anipulation  |                                                 |
\*---------------------------------------------------------------------------*/
FoamFile
{
    version     2.0;
    format      ascii;
    class       volScalarField;
    location    "5";
    object      CO2.gas;
}
// * * * * * * * * * * * * * * * * * * * * * * * * * * * * * * * * * * * * * //

dimensions      [0 0 0 0 0 0 0];

internalField   nonuniform List<scalar> 
100
(
0.155971
0.140643
0.130339
0.122006
0.117513
0.112422
0.109322
0.105333
0.102075
0.0989774
0.095813
0.093074
0.0913999
0.0891467
0.0869003
0.0855159
0.0842063
0.0827762
0.0813222
0.0807062
0.0797942
0.0783213
0.0767377
0.0754334
0.0741811
0.0728206
0.0713469
0.0701728
0.0691162
0.0680823
0.0668496
0.0657941
0.064569
0.0635041
0.0625024
0.0616486
0.0607943
0.0598729
0.0591067
0.0581567
0.0571132
0.0560448
0.0548852
0.0535291
0.0521898
0.0505507
0.0484632
0.046177
0.0437773
0.0334123
0.0300496
0.0300815
0.0309076
0.031505
0.0315208
0.0310953
0.0303646
0.0293986
0.0283062
0.0271128
0.0258083
0.0244432
0.0230356
0.0215655
0.0200808
0.0185392
0.0170021
0.0154753
0.0139606
0.0124828
0.0110487
0.0096724
0.00836703
0.00713614
0.00600626
0.00497818
0.0040545
0.00323688
0.00252496
0.00191828
0.00141314
0.00100235
0.000678749
0.000434929
0.00026009
0.000143078
7.13893e-05
3.19092e-05
1.27131e-05
4.54931e-06
1.48482e-06
4.5134e-07
1.29859e-07
3.59648e-08
9.70475e-09
2.5672e-09
6.61795e-10
1.63582e-10
3.79655e-11
6.7111e-12
)
;

boundaryField
{
    inlet
    {
        type            fixedValue;
        value           uniform 0.2;
    }
    outlet
    {
        type            zeroGradient;
    }
    yzfaces
    {
        type            empty;
    }
}


// ************************************************************************* //
