/*--------------------------------*- C++ -*----------------------------------*\
| =========                 |                                                 |
| \\      /  F ield         | foam-extend: Open Source CFD                    |
|  \\    /   O peration     | Version:     5.0                                |
|   \\  /    A nd           | Web:         http://www.foam-extend.org         |
|    \\/     M anipulation  |                                                 |
\*---------------------------------------------------------------------------*/
FoamFile
{
    version     2.0;
    format      ascii;
    class       volScalarField;
    location    "5";
    object      H2O.gas;
}
// * * * * * * * * * * * * * * * * * * * * * * * * * * * * * * * * * * * * * //

dimensions      [0 0 0 0 0 0 0];

internalField   nonuniform List<scalar> 
100
(
1.03993e-18
3.25803e-17
3.22279e-16
2.05103e-15
1.03824e-14
4.27134e-14
1.54241e-13
4.8222e-13
1.38864e-12
3.71517e-12
9.22757e-12
2.20703e-11
5.14479e-11
1.14486e-10
2.46009e-10
5.19663e-10
1.06253e-09
2.10175e-09
4.04379e-09
7.66481e-09
1.39761e-08
2.45868e-08
4.22067e-08
7.09002e-08
1.16789e-07
1.88561e-07
2.98487e-07
4.67384e-07
7.20972e-07
1.0963e-06
1.63895e-06
2.42463e-06
3.53862e-06
5.12519e-06
7.34944e-06
1.04583e-05
1.47431e-05
2.0588e-05
2.85536e-05
3.90666e-05
5.29299e-05
7.10736e-05
9.45967e-05
0.000125303
0.000167118
0.000217011
0.00027839
0.000368927
0.000511579
0.000441985
0.00076565
0.00125741
0.00183413
0.00249379
0.00323357
0.00405924
0.00497244
0.00597411
0.00705743
0.00822469
0.0094498
0.0107414
0.0120892
0.0134618
0.0148705
0.0162639
0.0176445
0.0189905
0.0202803
0.0215104
0.0226358
0.0236604
0.0245513
0.0252483
0.0258038
0.0261842
0.0263714
0.0263314
0.0260749
0.025572
0.0248446
0.0238747
0.022652
0.0211958
0.0195492
0.0177745
0.0160196
0.0143955
0.0130137
0.011962
0.0112197
0.0107417
0.0104513
0.0102718
0.0101555
0.0100883
0.0100593
0.0100375
0.0100174
0.0100179
)
;

boundaryField
{
    inlet
    {
        type            fixedValue;
        value           uniform 0;
    }
    outlet
    {
        type            zeroGradient;
    }
    yzfaces
    {
        type            empty;
    }
}


// ************************************************************************* //
