/*--------------------------------*- C++ -*----------------------------------*\
| =========                 |                                                 |
| \\      /  F ield         | foam-extend: Open Source CFD                    |
|  \\    /   O peration     | Version:     5.0                                |
|   \\  /    A nd           | Web:         http://www.foam-extend.org         |
|    \\/     M anipulation  |                                                 |
\*---------------------------------------------------------------------------*/
FoamFile
{
    version     2.0;
    format      ascii;
    class       volScalarField;
    location    "5";
    object      Na.water;
}
// * * * * * * * * * * * * * * * * * * * * * * * * * * * * * * * * * * * * * //

dimensions      [0 0 0 0 0 0 0];

internalField   nonuniform List<scalar> 
100
(
1.07579e-15
0.00213225
0.00436262
0.00516797
0.00536326
0.0057319
0.00654048
0.00716253
0.0073985
0.00747061
0.00771963
0.00804122
0.00817965
0.00817133
0.0083498
0.00863393
0.0087438
0.00874686
0.00887608
0.00905675
0.00902992
0.0089191
0.00905336
0.00925316
0.00927891
0.00922017
0.00940545
0.0100467
0.010563
0.0105451
0.0103505
0.0105238
0.0104515
0.0100155
0.00987459
0.010498
0.0104431
0.00992005
0.0100534
0.0111716
0.0104245
0.00968401
0.0104934
0.0123882
0.0144217
0.00965563
0.01004
0.0132186
0.0160528
0.00401217
0.0137588
0.0184541
0.0197717
0.0200183
0.0199935
0.0199476
0.0199201
0.0199143
0.0199172
0.0199262
0.0199139
0.0199165
0.0199379
0.0199548
0.0199877
0.0199991
0.0200273
0.0200518
0.0200833
0.0201227
0.0201593
0.0202062
0.0202553
0.0202898
0.0203621
0.02044
0.0205248
0.0206249
0.0207478
0.0208815
0.0210423
0.0212169
0.0214163
0.0216343
0.0218581
0.0220574
0.0222779
0.02248
0.0226372
0.0227673
0.0228532
0.0229256
0.0229827
0.0230092
0.0230051
0.0229994
0.0230187
0.0230192
0.022998
0.0230129
)
;

boundaryField
{
    inlet
    {
        type            fixedValue;
        value           uniform 0;
    }
    outlet
    {
        type            zeroGradient;
    }
    yzfaces
    {
        type            empty;
    }
}


// ************************************************************************* //
