/*--------------------------------*- C++ -*----------------------------------*\
| =========                 |                                                 |
| \\      /  F ield         | foam-extend: Open Source CFD                    |
|  \\    /   O peration     | Version:     5.0                                |
|   \\  /    A nd           | Web:         http://www.foam-extend.org         |
|    \\/     M anipulation  |                                                 |
\*---------------------------------------------------------------------------*/
FoamFile
{
    version     2.0;
    format      ascii;
    class       surfaceScalarField;
    location    "5";
    object      phi;
}
// * * * * * * * * * * * * * * * * * * * * * * * * * * * * * * * * * * * * * //

dimensions      [0 3 -1 0 0 0 0];

internalField   nonuniform List<scalar> 
99
(
1.22548e-06
1.22206e-06
1.23033e-06
1.22678e-06
1.23721e-06
1.23254e-06
1.23782e-06
1.23662e-06
1.22591e-06
1.22585e-06
1.22351e-06
1.23543e-06
1.23546e-06
1.23516e-06
1.24363e-06
1.24392e-06
1.24194e-06
1.23774e-06
1.23945e-06
1.23825e-06
1.23592e-06
1.22488e-06
1.22943e-06
1.22658e-06
1.22409e-06
1.22221e-06
1.22017e-06
1.21665e-06
1.21799e-06
1.21458e-06
1.21405e-06
1.21261e-06
1.21795e-06
1.2168e-06
1.22124e-06
1.22494e-06
1.22669e-06
1.23169e-06
1.23394e-06
1.23237e-06
1.23084e-06
1.23483e-06
1.23213e-06
1.23414e-06
1.23546e-06
1.23657e-06
1.23459e-06
1.23641e-06
1.2347e-06
1.2311e-06
1.23309e-06
1.23398e-06
1.2343e-06
1.23361e-06
1.23268e-06
1.23207e-06
1.23306e-06
1.23299e-06
1.23244e-06
1.23214e-06
1.23116e-06
1.23112e-06
1.22965e-06
1.23162e-06
1.23091e-06
1.23056e-06
1.23093e-06
1.22926e-06
1.2314e-06
1.23251e-06
1.23145e-06
1.23047e-06
1.2283e-06
1.22889e-06
1.22967e-06
1.23084e-06
1.22936e-06
1.22802e-06
1.22795e-06
1.2297e-06
1.22917e-06
1.22858e-06
1.22954e-06
1.22726e-06
1.22794e-06
1.2282e-06
1.22919e-06
1.22713e-06
1.22527e-06
1.2259e-06
1.22673e-06
1.22685e-06
1.2303e-06
1.22785e-06
1.22559e-06
1.22722e-06
1.2277e-06
1.22728e-06
1.22696e-06
)
;

boundaryField
{
    inlet
    {
        type            calculated;
        value           uniform -1.225e-06;
    }
    outlet
    {
        type            calculated;
        value           uniform 1.22654e-06;
    }
    yzfaces
    {
        type            empty;
    }
}


// ************************************************************************* //
