/*--------------------------------*- C++ -*----------------------------------*\
| =========                 |                                                 |
| \\      /  F ield         | foam-extend: Open Source CFD                    |
|  \\    /   O peration     | Version:     5.0                                |
|   \\  /    A nd           | Web:         http://www.foam-extend.org         |
|    \\/     M anipulation  |                                                 |
\*---------------------------------------------------------------------------*/
FoamFile
{
    version     2.0;
    format      ascii;
    class       volVectorField;
    location    "5";
    object      U.gas;
}
// * * * * * * * * * * * * * * * * * * * * * * * * * * * * * * * * * * * * * //

dimensions      [0 1 -1 0 0 0 0];

internalField   nonuniform List<vector> 
100
(
(0.00639787 0 0)
(0.00702524 0 0)
(0.00753821 0 0)
(0.00799201 0 0)
(0.00834497 0 0)
(0.00867996 0 0)
(0.00892226 0 0)
(0.00918209 0 0)
(0.0093741 0 0)
(0.00955941 0 0)
(0.00977557 0 0)
(0.010037 0 0)
(0.0102594 0 0)
(0.0104343 0 0)
(0.0106622 0 0)
(0.0108385 0 0)
(0.0109471 0 0)
(0.0110489 0 0)
(0.0111617 0 0)
(0.0112305 0 0)
(0.0112794 0 0)
(0.0113281 0 0)
(0.0114323 0 0)
(0.0115441 0 0)
(0.0116309 0 0)
(0.0117191 0 0)
(0.0118175 0 0)
(0.0118935 0 0)
(0.0119771 0 0)
(0.0120477 0 0)
(0.012127 0 0)
(0.0122027 0 0)
(0.0123276 0 0)
(0.0124306 0 0)
(0.0125305 0 0)
(0.0126409 0 0)
(0.0127384 0 0)
(0.0128433 0 0)
(0.0129297 0 0)
(0.0129988 0 0)
(0.0130646 0 0)
(0.0131461 0 0)
(0.0132237 0 0)
(0.0133035 0 0)
(0.0134002 0 0)
(0.0135129 0 0)
(0.0136282 0 0)
(0.0137091 0 0)
(0.0137246 0 0)
(0.0149964 0 0)
(0.0129177 0 0)
(0.0119997 0 0)
(0.0120157 0 0)
(0.0122647 0 0)
(0.0124821 0 0)
(0.0126211 0 0)
(0.0127008 0 0)
(0.0127482 0 0)
(0.0127577 0 0)
(0.0127544 0 0)
(0.0127487 0 0)
(0.0127377 0 0)
(0.0127214 0 0)
(0.0127168 0 0)
(0.0127118 0 0)
(0.0126949 0 0)
(0.0126805 0 0)
(0.0126526 0 0)
(0.0126363 0 0)
(0.0126242 0 0)
(0.0125928 0 0)
(0.0125448 0 0)
(0.0124788 0 0)
(0.0124162 0 0)
(0.0123518 0 0)
(0.0122661 0 0)
(0.0121531 0 0)
(0.0120067 0 0)
(0.0118357 0 0)
(0.011637 0 0)
(0.0113845 0 0)
(0.0110627 0 0)
(0.0106788 0 0)
(0.0102003 0 0)
(0.00962757 0 0)
(0.00897214 0 0)
(0.00823822 0 0)
(0.00746415 0 0)
(0.00671487 0 0)
(0.00607385 0 0)
(0.00558104 0 0)
(0.00523251 0 0)
(0.00500971 0 0)
(0.0048686 0 0)
(0.00477391 0 0)
(0.00472202 0 0)
(0.00469788 0 0)
(0.00468048 0 0)
(0.00466886 0 0)
(0.00466348 0 0)
)
;

boundaryField
{
    inlet
    {
        type            fixedValue;
        value           uniform (0.005 0 0);
    }
    outlet
    {
        type            zeroGradient;
    }
    yzfaces
    {
        type            empty;
    }
}


// ************************************************************************* //
