/*--------------------------------*- C++ -*----------------------------------*\
| =========                 |                                                 |
| \\      /  F ield         | foam-extend: Open Source CFD                    |
|  \\    /   O peration     | Version:     5.0                                |
|   \\  /    A nd           | Web:         http://www.foam-extend.org         |
|    \\/     M anipulation  |                                                 |
\*---------------------------------------------------------------------------*/
FoamFile
{
    version     2.0;
    format      ascii;
    class       volVectorField;
    location    "5";
    object      U.water;
}
// * * * * * * * * * * * * * * * * * * * * * * * * * * * * * * * * * * * * * //

dimensions      [0 1 -1 0 0 0 0];

internalField   nonuniform List<vector> 
100
(
(5.12659e-05 0 0)
(0.000121259 0 0)
(0.000183452 0 0)
(0.000242377 0 0)
(0.000298093 0 0)
(0.000347435 0 0)
(0.000394343 0 0)
(0.000436393 0 0)
(0.000477712 0 0)
(0.000520274 0 0)
(0.00056547 0 0)
(0.000615593 0 0)
(0.000665301 0 0)
(0.000707259 0 0)
(0.00075404 0 0)
(0.000801525 0 0)
(0.000838052 0 0)
(0.000870813 0 0)
(0.000906933 0 0)
(0.000939382 0 0)
(0.000960808 0 0)
(0.000980626 0 0)
(0.00101441 0 0)
(0.00105543 0 0)
(0.0010908 0 0)
(0.00112882 0 0)
(0.00116901 0 0)
(0.00121042 0 0)
(0.00125182 0 0)
(0.00129067 0 0)
(0.00132871 0 0)
(0.0013705 0 0)
(0.00141856 0 0)
(0.00147008 0 0)
(0.00151882 0 0)
(0.00156977 0 0)
(0.00161804 0 0)
(0.00166883 0 0)
(0.0017178 0 0)
(0.0017602 0 0)
(0.00180733 0 0)
(0.00186506 0 0)
(0.00192536 0 0)
(0.00199186 0 0)
(0.00207114 0 0)
(0.00216307 0 0)
(0.00227671 0 0)
(0.00241835 0 0)
(0.00257543 0 0)
(0.00299785 0 0)
(0.00359078 0 0)
(0.00374002 0 0)
(0.00367085 0 0)
(0.00355797 0 0)
(0.00346724 0 0)
(0.00341137 0 0)
(0.00338424 0 0)
(0.00337372 0 0)
(0.00337066 0 0)
(0.00337067 0 0)
(0.00337178 0 0)
(0.0033757 0 0)
(0.00338008 0 0)
(0.00338802 0 0)
(0.00339865 0 0)
(0.00340734 0 0)
(0.00341969 0 0)
(0.00343257 0 0)
(0.00344989 0 0)
(0.00347465 0 0)
(0.00349771 0 0)
(0.00352194 0 0)
(0.00354937 0 0)
(0.00358395 0 0)
(0.00363013 0 0)
(0.00368413 0 0)
(0.00374082 0 0)
(0.00380142 0 0)
(0.00387338 0 0)
(0.0039603 0 0)
(0.00405632 0 0)
(0.00415743 0 0)
(0.00426973 0 0)
(0.00438576 0 0)
(0.00450358 0 0)
(0.0046229 0 0)
(0.00473318 0 0)
(0.00482242 0 0)
(0.00488573 0 0)
(0.00493418 0 0)
(0.00497113 0 0)
(0.00499453 0 0)
(0.00501485 0 0)
(0.00502462 0 0)
(0.00501947 0 0)
(0.0050208 0 0)
(0.00502655 0 0)
(0.00502756 0 0)
(0.00502657 0 0)
(0.00502526 0 0)
)
;

boundaryField
{
    inlet
    {
        type            fixedValue;
        value           uniform (0 0 0);
    }
    outlet
    {
        type            zeroGradient;
    }
    yzfaces
    {
        type            empty;
    }
}


// ************************************************************************* //
