/*--------------------------------*- C++ -*----------------------------------*\
| =========                 |                                                 |
| \\      /  F ield         | foam-extend: Open Source CFD                    |
|  \\    /   O peration     | Version:     5.0                                |
|   \\  /    A nd           | Web:         http://www.foam-extend.org         |
|    \\/     M anipulation  |                                                 |
\*---------------------------------------------------------------------------*/
FoamFile
{
    version     2.0;
    format      ascii;
    class       volScalarField;
    location    "3";
    object      alpha.gas;
}
// * * * * * * * * * * * * * * * * * * * * * * * * * * * * * * * * * * * * * //

dimensions      [0 0 0 0 0 0 0];

internalField   nonuniform List<scalar> 
100
(
0.144217
0.12767
0.117274
0.109538
0.103273
0.0980953
0.0932017
0.0896348
0.0867749
0.0841002
0.0818432
0.0795786
0.0773845
0.0750748
0.0731153
0.0711288
0.0692495
0.067579
0.0659005
0.0643404
0.0629387
0.0615129
0.0599065
0.0583125
0.0567401
0.0550252
0.0530795
0.0510295
0.048894
0.0468413
0.0387729
0.0348442
0.0338885
0.0342913
0.0350746
0.0357374
0.0361919
0.0363693
0.0363238
0.0360775
0.0356784
0.035197
0.034609
0.033928
0.0331226
0.032233
0.0312137
0.0300699
0.0287691
0.0273064
0.0256742
0.023885
0.0219248
0.0198657
0.0177847
0.0157971
0.0140549
0.0126655
0.011657
0.0109873
0.01057
0.0103242
0.0101831
0.0101018
0.0100575
0.0100333
0.010019
0.0100112
0.0100074
0.0100031
0.0100019
0.0100002
0.0100001
0.00999991
0.0100004
0.0100006
0.0100006
0.0099994
0.00999871
0.0100018
0.010001
0.0100015
0.0100034
0.0100028
0.0100028
0.0100025
0.0100023
0.0100008
0.010004
0.0100047
0.0100038
0.0100056
0.0100048
0.0100049
0.0100037
0.010004
0.0100055
0.0100062
0.0100064
0.0100082
)
;

boundaryField
{
    inlet
    {
        type            fixedValue;
        value           uniform 0.2;
    }
    outlet
    {
        type            zeroGradient;
    }
    yzfaces
    {
        type            empty;
    }
}


// ************************************************************************* //
