/*--------------------------------*- C++ -*----------------------------------*\
| =========                 |                                                 |
| \\      /  F ield         | foam-extend: Open Source CFD                    |
|  \\    /   O peration     | Version:     5.0                                |
|   \\  /    A nd           | Web:         http://www.foam-extend.org         |
|    \\/     M anipulation  |                                                 |
\*---------------------------------------------------------------------------*/
FoamFile
{
    version     2.0;
    format      ascii;
    class       volScalarField;
    location    "3";
    object      Cl.water;
}
// * * * * * * * * * * * * * * * * * * * * * * * * * * * * * * * * * * * * * //

dimensions      [0 0 0 0 0 0 0];

internalField   nonuniform List<scalar> 
100
(
0
0.00311031
0.00600469
0.00830034
0.00819044
0.00757358
0.00774804
0.00875822
0.0101323
0.0102403
0.00957936
0.00930882
0.00991389
0.0111204
0.0110321
0.0102032
0.0100403
0.0109152
0.0123471
0.0115127
0.0103414
0.0106084
0.0120762
0.0138666
0.0153686
0.0110321
0.010212
0.0124833
0.0151014
0.0169824
0.00515882
0.0128297
0.0176186
0.0193421
0.0197726
0.0198245
0.0198098
0.0197957
0.0198129
0.0198303
0.019862
0.0199425
0.0200048
0.0200951
0.0201876
0.020313
0.0204284
0.0205651
0.0207259
0.0208989
0.0210956
0.0213102
0.0215372
0.0217949
0.0220643
0.0222879
0.0225006
0.0226784
0.0227966
0.0228885
0.0229267
0.0229501
0.0229608
0.022977
0.0229846
0.0229838
0.0229906
0.0229859
0.022996
0.023009
0.0230195
0.0230078
0.0230035
0.02302
0.0230103
0.0229848
0.0229818
0.0229888
0.0229918
0.0230036
0.0230006
0.0230027
0.0230063
0.0230138
0.0230034
0.0229942
0.0229833
0.0230043
0.0230015
0.0230083
0.022996
0.0229938
0.0229935
0.0229839
0.0229975
0.0229725
0.0229644
0.0229597
0.0229633
0.0229579
)
;

boundaryField
{
    inlet
    {
        type            fixedValue;
        value           uniform 0;
    }
    outlet
    {
        type            zeroGradient;
    }
    yzfaces
    {
        type            empty;
    }
}


// ************************************************************************* //
