/*--------------------------------*- C++ -*----------------------------------*\
| =========                 |                                                 |
| \\      /  F ield         | foam-extend: Open Source CFD                    |
|  \\    /   O peration     | Version:     5.0                                |
|   \\  /    A nd           | Web:         http://www.foam-extend.org         |
|    \\/     M anipulation  |                                                 |
\*---------------------------------------------------------------------------*/
FoamFile
{
    version     2.0;
    format      ascii;
    class       volScalarField;
    location    "3";
    object      CO2.water;
}
// * * * * * * * * * * * * * * * * * * * * * * * * * * * * * * * * * * * * * //

dimensions      [0 0 0 0 0 0 0];

internalField   nonuniform List<scalar> 
100
(
0.00146525
0.00121693
0.000865615
0.000570645
0.000748895
0.00101525
0.00109559
0.000979372
0.000764711
0.000811652
0.00102806
0.0011464
0.0010714
0.000864043
0.000938629
0.00116718
0.00125126
0.00111392
0.000848143
0.00107035
0.00136398
0.00134151
0.00105686
0.000710742
0.000425418
0.00141239
0.00164088
0.00120458
0.000690842
0.000339905
0.00311189
0.00154815
0.000536737
0.000152645
3.79863e-05
8.62988e-06
1.85019e-06
3.83261e-07
7.84533e-08
1.6293e-08
3.53947e-09
8.26941e-10
2.07401e-10
5.61202e-11
1.6381e-11
5.19574e-12
1.77268e-12
6.05976e-13
2.00611e-13
6.34997e-14
1.91583e-14
5.38809e-15
1.33958e-15
2.36256e-16
0
0
0
0
0
0
0
0
0
0
0
0
0
0
0
0
0
0
1.71783e-24
1.98331e-24
1.19772e-24
6.04225e-25
2.78843e-25
1.22127e-25
5.1689e-26
2.13512e-26
8.67201e-27
3.46052e-27
1.36589e-27
5.34588e-28
2.07817e-28
8.03279e-29
3.07891e-29
1.17601e-29
4.46851e-30
1.69125e-30
6.38968e-31
2.40534e-31
9.04799e-32
3.39208e-32
1.26685e-32
4.73564e-33
1.76204e-33
6.54051e-34
2.42861e-34
1.10391e-34
)
;

boundaryField
{
    inlet
    {
        type            fixedValue;
        value           uniform 0;
    }
    outlet
    {
        type            zeroGradient;
    }
    yzfaces
    {
        type            empty;
    }
}


// ************************************************************************* //
