/*--------------------------------*- C++ -*----------------------------------*\
| =========                 |                                                 |
| \\      /  F ield         | foam-extend: Open Source CFD                    |
|  \\    /   O peration     | Version:     5.0                                |
|   \\  /    A nd           | Web:         http://www.foam-extend.org         |
|    \\/     M anipulation  |                                                 |
\*---------------------------------------------------------------------------*/
FoamFile
{
    version     2.0;
    format      ascii;
    class       volScalarField;
    location    "3";
    object      H2O.gas;
}
// * * * * * * * * * * * * * * * * * * * * * * * * * * * * * * * * * * * * * //

dimensions      [0 0 0 0 0 0 0];

internalField   nonuniform List<scalar> 
100
(
4.45184e-14
3.19282e-12
2.87874e-11
1.56563e-10
6.38719e-10
2.17504e-09
6.46906e-09
1.7398e-08
4.28784e-08
9.71388e-08
2.08857e-07
4.2296e-07
8.16249e-07
1.50844e-06
2.70391e-06
4.66658e-06
7.83041e-06
1.28573e-05
2.05045e-05
3.20136e-05
4.89084e-05
7.29033e-05
0.000106212
0.000153153
0.000218797
0.000305857
0.000416369
0.000564717
0.00077631
0.00109024
0.00106154
0.00158125
0.00246964
0.0035691
0.00481648
0.00619584
0.00769453
0.00929521
0.0109766
0.0126886
0.0143898
0.0161059
0.0177199
0.019236
0.0205602
0.0217116
0.0225824
0.0231684
0.0234167
0.0232914
0.0227935
0.0219173
0.0206564
0.0191246
0.0173942
0.0156063
0.0139712
0.0126389
0.011649
0.0109948
0.0105729
0.0103247
0.0101784
0.0100999
0.0100577
0.0100295
0.0100159
0.0100031
0.0100037
0.0100039
0.0100043
0.00999535
0.00999324
0.0100003
0.0100011
0.00999287
0.00999269
0.00999326
0.00999649
0.0100037
0.0100034
0.0100049
0.0100062
0.0100083
0.0100044
0.00999816
0.00999444
0.00999972
0.0100021
0.0100057
0.00999873
0.00999738
0.0100018
0.00999839
0.0100059
0.00999285
0.00999228
0.00999166
0.00999297
0.00999521
)
;

boundaryField
{
    inlet
    {
        type            fixedValue;
        value           uniform 0;
    }
    outlet
    {
        type            zeroGradient;
    }
    yzfaces
    {
        type            empty;
    }
}


// ************************************************************************* //
