/*--------------------------------*- C++ -*----------------------------------*\
| =========                 |                                                 |
| \\      /  F ield         | foam-extend: Open Source CFD                    |
|  \\    /   O peration     | Version:     5.0                                |
|   \\  /    A nd           | Web:         http://www.foam-extend.org         |
|    \\/     M anipulation  |                                                 |
\*---------------------------------------------------------------------------*/
FoamFile
{
    version     2.0;
    format      ascii;
    class       volScalarField;
    location    "3";
    object      Na.water;
}
// * * * * * * * * * * * * * * * * * * * * * * * * * * * * * * * * * * * * * //

dimensions      [0 0 0 0 0 0 0];

internalField   nonuniform List<scalar> 
100
(
0
0.00310943
0.00600302
0.00829466
0.00818792
0.00757516
0.00774854
0.0087572
0.0101348
0.0102433
0.00957356
0.00930063
0.00990782
0.0111116
0.0110212
0.0101946
0.0100373
0.0109197
0.0123534
0.0115155
0.0103366
0.0106048
0.012076
0.0138619
0.015361
0.0110269
0.0102121
0.012483
0.0150974
0.0169785
0.00515759
0.0128309
0.0176252
0.0193456
0.0197699
0.0198224
0.0198069
0.0197986
0.019812
0.0198413
0.0198744
0.0199616
0.0200237
0.0201133
0.0201967
0.020317
0.0204368
0.0205775
0.0207403
0.0209143
0.0211154
0.0213311
0.021553
0.02181
0.0220749
0.0223003
0.0225048
0.0226852
0.0228037
0.0228999
0.0229425
0.0229733
0.0229789
0.0229929
0.023004
0.0229947
0.0229954
0.0229892
0.0229984
0.0230014
0.0230079
0.0229911
0.0229897
0.023002
0.0230025
0.022978
0.0229744
0.0229771
0.0229851
0.022993
0.0230042
0.0230057
0.0230126
0.0230174
0.0230105
0.0229933
0.0229901
0.023011
0.023014
0.0230205
0.0230089
0.0229989
0.0230063
0.0229869
0.0230068
0.0229765
0.0229691
0.0229675
0.0229681
0.0229627
)
;

boundaryField
{
    inlet
    {
        type            fixedValue;
        value           uniform 0;
    }
    outlet
    {
        type            zeroGradient;
    }
    yzfaces
    {
        type            empty;
    }
}


// ************************************************************************* //
