/*--------------------------------*- C++ -*----------------------------------*\
| =========                 |                                                 |
| \\      /  F ield         | foam-extend: Open Source CFD                    |
|  \\    /   O peration     | Version:     5.0                                |
|   \\  /    A nd           | Web:         http://www.foam-extend.org         |
|    \\/     M anipulation  |                                                 |
\*---------------------------------------------------------------------------*/
FoamFile
{
    version     2.0;
    format      ascii;
    class       surfaceScalarField;
    location    "3";
    object      phi;
}
// * * * * * * * * * * * * * * * * * * * * * * * * * * * * * * * * * * * * * //

dimensions      [0 3 -1 0 0 0 0];

internalField   nonuniform List<scalar> 
99
(
1.22648e-06
1.22308e-06
1.22832e-06
1.22228e-06
1.22153e-06
1.21867e-06
1.22089e-06
1.22965e-06
1.23571e-06
1.23895e-06
1.23726e-06
1.23088e-06
1.22444e-06
1.2229e-06
1.22129e-06
1.22253e-06
1.22352e-06
1.22615e-06
1.22805e-06
1.22716e-06
1.22565e-06
1.2194e-06
1.22002e-06
1.22004e-06
1.22154e-06
1.22141e-06
1.22344e-06
1.22361e-06
1.22415e-06
1.22255e-06
1.21907e-06
1.22211e-06
1.22185e-06
1.2218e-06
1.22362e-06
1.22498e-06
1.22504e-06
1.2252e-06
1.2238e-06
1.22378e-06
1.22639e-06
1.22588e-06
1.22707e-06
1.22687e-06
1.22896e-06
1.22795e-06
1.23058e-06
1.22968e-06
1.22866e-06
1.22934e-06
1.22935e-06
1.22879e-06
1.22913e-06
1.22919e-06
1.22725e-06
1.22808e-06
1.22859e-06
1.22745e-06
1.22938e-06
1.22937e-06
1.22761e-06
1.22663e-06
1.22688e-06
1.22683e-06
1.227e-06
1.22653e-06
1.22528e-06
1.22665e-06
1.22674e-06
1.22705e-06
1.22729e-06
1.22547e-06
1.22532e-06
1.22512e-06
1.22463e-06
1.22415e-06
1.2242e-06
1.22441e-06
1.22467e-06
1.22651e-06
1.22718e-06
1.22625e-06
1.22583e-06
1.22424e-06
1.22349e-06
1.2236e-06
1.22317e-06
1.22337e-06
1.22442e-06
1.2247e-06
1.22362e-06
1.22455e-06
1.22634e-06
1.22819e-06
1.22665e-06
1.22585e-06
1.22592e-06
1.2254e-06
1.22713e-06
)
;

boundaryField
{
    inlet
    {
        type            calculated;
        value           uniform -1.225e-06;
    }
    outlet
    {
        type            calculated;
        value           uniform 1.2302e-06;
    }
    yzfaces
    {
        type            empty;
    }
}


// ************************************************************************* //
