/*--------------------------------*- C++ -*----------------------------------*\
| =========                 |                                                 |
| \\      /  F ield         | foam-extend: Open Source CFD                    |
|  \\    /   O peration     | Version:     5.0                                |
|   \\  /    A nd           | Web:         http://www.foam-extend.org         |
|    \\/     M anipulation  |                                                 |
\*---------------------------------------------------------------------------*/
FoamFile
{
    version     2.0;
    format      ascii;
    class       surfaceScalarField;
    location    "3";
    object      phi.water;
}
// * * * * * * * * * * * * * * * * * * * * * * * * * * * * * * * * * * * * * //

dimensions      [0 3 -1 0 0 0 0];

internalField   nonuniform List<scalar> 
99
(
1.61398e-07
2.83124e-07
3.90883e-07
4.89098e-07
5.88003e-07
6.81729e-07
7.8764e-07
8.76332e-07
9.54479e-07
1.03306e-06
1.09769e-06
1.16616e-06
1.23588e-06
1.32186e-06
1.39683e-06
1.48236e-06
1.56628e-06
1.64455e-06
1.73088e-06
1.81134e-06
1.88356e-06
1.95449e-06
2.05353e-06
2.15222e-06
2.25448e-06
2.3682e-06
2.50865e-06
2.66053e-06
2.83096e-06
2.9413e-06
3.70657e-06
4.14281e-06
4.25468e-06
4.21933e-06
4.14409e-06
4.07746e-06
4.02771e-06
4.00621e-06
4.00303e-06
4.02778e-06
4.07441e-06
4.11837e-06
4.18084e-06
4.24843e-06
4.33619e-06
4.42104e-06
4.53453e-06
4.6463e-06
4.77191e-06
4.91879e-06
5.07607e-06
5.24154e-06
5.41568e-06
5.58387e-06
5.73204e-06
5.87286e-06
5.97913e-06
6.0456e-06
6.1002e-06
6.12825e-06
6.13858e-06
6.14534e-06
6.15252e-06
6.15378e-06
6.15675e-06
6.15623e-06
6.15193e-06
6.15911e-06
6.15699e-06
6.15688e-06
6.15982e-06
6.15359e-06
6.15126e-06
6.14796e-06
6.14793e-06
6.14815e-06
6.14795e-06
6.1473e-06
6.14617e-06
6.15382e-06
6.15675e-06
6.15203e-06
6.14921e-06
6.14151e-06
6.1409e-06
6.14436e-06
6.14114e-06
6.14042e-06
6.14498e-06
6.1473e-06
6.14472e-06
6.14862e-06
6.15714e-06
6.16485e-06
6.1585e-06
6.15936e-06
6.16066e-06
6.15807e-06
6.16631e-06
)
;

boundaryField
{
    inlet
    {
        type            fixedValue;
        value           uniform 0;
    }
    outlet
    {
        type            calculated;
        value           uniform 6.18146e-06;
    }
    yzfaces
    {
        type            empty;
    }
}


// ************************************************************************* //
