/*--------------------------------*- C++ -*----------------------------------*\
| =========                 |                                                 |
| \\      /  F ield         | foam-extend: Open Source CFD                    |
|  \\    /   O peration     | Version:     5.0                                |
|   \\  /    A nd           | Web:         http://www.foam-extend.org         |
|    \\/     M anipulation  |                                                 |
\*---------------------------------------------------------------------------*/
FoamFile
{
    version     2.0;
    format      ascii;
    class       volVectorField;
    location    "3";
    object      U.gas;
}
// * * * * * * * * * * * * * * * * * * * * * * * * * * * * * * * * * * * * * //

dimensions      [0 1 -1 0 0 0 0];

internalField   nonuniform List<vector> 
100
(
(0.006909 0 0)
(0.00772837 0 0)
(0.00833823 0 0)
(0.0088358 0 0)
(0.00924917 0 0)
(0.00961859 0 0)
(0.0100036 0 0)
(0.0103291 0 0)
(0.0106256 0 0)
(0.0108958 0 0)
(0.011094 0 0)
(0.0112604 0 0)
(0.0113967 0 0)
(0.0115706 0 0)
(0.0117201 0 0)
(0.0118967 0 0)
(0.0120697 0 0)
(0.0122247 0 0)
(0.0123923 0 0)
(0.0125217 0 0)
(0.0126156 0 0)
(0.0126916 0 0)
(0.0127946 0 0)
(0.0129102 0 0)
(0.0130236 0 0)
(0.0131502 0 0)
(0.0132902 0 0)
(0.0134123 0 0)
(0.0135069 0 0)
(0.0135405 0 0)
(0.0144794 0 0)
(0.0134935 0 0)
(0.0126892 0 0)
(0.0123994 0 0)
(0.0124208 0 0)
(0.0125518 0 0)
(0.012663 0 0)
(0.0127487 0 0)
(0.0127886 0 0)
(0.0128006 0 0)
(0.0128052 0 0)
(0.01278 0 0)
(0.0127377 0 0)
(0.0126766 0 0)
(0.0126042 0 0)
(0.0124977 0 0)
(0.012372 0 0)
(0.0122067 0 0)
(0.0119842 0 0)
(0.0117117 0 0)
(0.0113722 0 0)
(0.0109389 0 0)
(0.0104136 0 0)
(0.00977138 0 0)
(0.00901776 0 0)
(0.00819128 0 0)
(0.00734866 0 0)
(0.0065637 0 0)
(0.00591979 0 0)
(0.00544768 0 0)
(0.00512619 0 0)
(0.00492479 0 0)
(0.00480787 0 0)
(0.00474151 0 0)
(0.00470368 0 0)
(0.00468274 0 0)
(0.00466728 0 0)
(0.0046608 0 0)
(0.00466074 0 0)
(0.00465942 0 0)
(0.0046582 0 0)
(0.00465481 0 0)
(0.00465016 0 0)
(0.00464917 0 0)
(0.0046483 0 0)
(0.00464704 0 0)
(0.00464583 0 0)
(0.00464578 0 0)
(0.00464646 0 0)
(0.00465063 0 0)
(0.0046569 0 0)
(0.00465549 0 0)
(0.00465275 0 0)
(0.00465094 0 0)
(0.00464615 0 0)
(0.0046438 0 0)
(0.00464313 0 0)
(0.00464288 0 0)
(0.00464456 0 0)
(0.00464846 0 0)
(0.00464779 0 0)
(0.00464769 0 0)
(0.00465345 0 0)
(0.00465957 0 0)
(0.00466078 0 0)
(0.00465554 0 0)
(0.00465409 0 0)
(0.0046547 0 0)
(0.00465721 0 0)
(0.00466666 0 0)
)
;

boundaryField
{
    inlet
    {
        type            fixedValue;
        value           uniform (0.005 0 0);
    }
    outlet
    {
        type            zeroGradient;
    }
    yzfaces
    {
        type            empty;
    }
}


// ************************************************************************* //
