/*--------------------------------*- C++ -*----------------------------------*\
| =========                 |                                                 |
| \\      /  F ield         | foam-extend: Open Source CFD                    |
|  \\    /   O peration     | Version:     5.0                                |
|   \\  /    A nd           | Web:         http://www.foam-extend.org         |
|    \\/     M anipulation  |                                                 |
\*---------------------------------------------------------------------------*/
FoamFile
{
    version     2.0;
    format      ascii;
    class       volVectorField;
    location    "3";
    object      U.water;
}
// * * * * * * * * * * * * * * * * * * * * * * * * * * * * * * * * * * * * * //

dimensions      [0 1 -1 0 0 0 0];

internalField   nonuniform List<vector> 
100
(
(7.54556e-05 0 0)
(0.000181662 0 0)
(0.000274583 0 0)
(0.000358058 0 0)
(0.000437172 0 0)
(0.000514807 0 0)
(0.00059349 0 0)
(0.00067388 0 0)
(0.000743915 0 0)
(0.000808645 0 0)
(0.000869397 0 0)
(0.000924417 0 0)
(0.000980676 0 0)
(0.00104267 0 0)
(0.00110899 0 0)
(0.0011739 0 0)
(0.00124331 0 0)
(0.00131196 0 0)
(0.00137998 0 0)
(0.00144827 0 0)
(0.00151127 0 0)
(0.00156898 0 0)
(0.00163607 0 0)
(0.00171587 0 0)
(0.00179816 0 0)
(0.00188672 0 0)
(0.00199063 0 0)
(0.00211031 0 0)
(0.00224134 0 0)
(0.00237921 0 0)
(0.00269913 0 0)
(0.00318627 0 0)
(0.0034165 0 0)
(0.00345317 0 0)
(0.0034105 0 0)
(0.00335351 0 0)
(0.00330698 0 0)
(0.00327833 0 0)
(0.00326901 0 0)
(0.00327714 0 0)
(0.00330572 0 0)
(0.00334406 0 0)
(0.00338811 0 0)
(0.00344138 0 0)
(0.00350496 0 0)
(0.00357628 0 0)
(0.00365733 0 0)
(0.0037494 0 0)
(0.00384646 0 0)
(0.00395766 0 0)
(0.00408187 0 0)
(0.00421341 0 0)
(0.00435163 0 0)
(0.00449266 0 0)
(0.00462228 0 0)
(0.00473811 0 0)
(0.0048371 0 0)
(0.00490743 0 0)
(0.00495786 0 0)
(0.00499286 0 0)
(0.00500799 0 0)
(0.00501321 0 0)
(0.00501786 0 0)
(0.00502172 0 0)
(0.00502391 0 0)
(0.00502433 0 0)
(0.00502144 0 0)
(0.00502201 0 0)
(0.00502514 0 0)
(0.00502608 0 0)
(0.00502732 0 0)
(0.00502409 0 0)
(0.0050201 0 0)
(0.0050194 0 0)
(0.00501798 0 0)
(0.00501596 0 0)
(0.00501509 0 0)
(0.00501565 0 0)
(0.00501663 0 0)
(0.00502092 0 0)
(0.00502598 0 0)
(0.00502549 0 0)
(0.00502275 0 0)
(0.00501854 0 0)
(0.00501377 0 0)
(0.00501251 0 0)
(0.00501184 0 0)
(0.00501135 0 0)
(0.00501396 0 0)
(0.00501662 0 0)
(0.00501494 0 0)
(0.00501463 0 0)
(0.00502016 0 0)
(0.00502766 0 0)
(0.00502826 0 0)
(0.0050235 0 0)
(0.00502202 0 0)
(0.00502104 0 0)
(0.0050235 0 0)
(0.0050333 0 0)
)
;

boundaryField
{
    inlet
    {
        type            fixedValue;
        value           uniform (0 0 0);
    }
    outlet
    {
        type            zeroGradient;
    }
    yzfaces
    {
        type            empty;
    }
}


// ************************************************************************* //
