/*--------------------------------*- C++ -*----------------------------------*\
| =========                 |                                                 |
| \\      /  F ield         | foam-extend: Open Source CFD                    |
|  \\    /   O peration     | Version:     5.0                                |
|   \\  /    A nd           | Web:         http://www.foam-extend.org         |
|    \\/     M anipulation  |                                                 |
\*---------------------------------------------------------------------------*/
FoamFile
{
    version     2.0;
    format      ascii;
    class       volScalarField;
    location    "1";
    object      alpha.gas;
}
// * * * * * * * * * * * * * * * * * * * * * * * * * * * * * * * * * * * * * //

dimensions      [0 0 0 0 0 0 0];

internalField   nonuniform List<scalar> 
100
(
0.112963
0.0935018
0.0814005
0.0725345
0.0646804
0.0571368
0.0484458
0.0370291
0.0160111
0.0360774
0.0363137
0.0362078
0.0356215
0.0345417
0.0330391
0.0311524
0.0290022
0.0265908
0.023992
0.0212738
0.0185798
0.0160917
0.0140003
0.0124455
0.0113964
0.0107637
0.0104091
0.0102131
0.0101135
0.0100626
0.0100358
0.0100211
0.0100121
0.0100085
0.0100068
0.0100029
0.0100038
0.010002
0.0100038
0.0100024
0.010003
0.0100022
0.0100053
0.0100023
0.0100026
0.0100025
0.0100033
0.0100027
0.0100013
0.0100005
0.0100013
0.0100033
0.0100035
0.0100031
0.0100043
0.0100046
0.0100027
0.0100015
0.00999782
0.00999671
0.00999701
0.00999715
0.00999903
0.00999881
0.00999926
0.00999931
0.00999858
0.0100018
0.00999945
0.00999847
0.00999997
0.0100013
0.0100053
0.0100049
0.0100027
0.0100016
0.0100008
0.0099962
0.00999498
0.00999847
0.00999813
0.0100016
0.0100034
0.0100042
0.0100026
0.0100009
0.00999919
0.0100023
0.0100038
0.0100031
0.0100027
0.0100028
0.0100045
0.0100002
0.0100053
0.0100046
0.00999919
0.00999868
0.0100063
0.0100024
)
;

boundaryField
{
    inlet
    {
        type            fixedValue;
        value           uniform 0.2;
    }
    outlet
    {
        type            zeroGradient;
    }
    yzfaces
    {
        type            empty;
    }
}


// ************************************************************************* //
