/*--------------------------------*- C++ -*----------------------------------*\
| =========                 |                                                 |
| \\      /  F ield         | foam-extend: Open Source CFD                    |
|  \\    /   O peration     | Version:     5.0                                |
|   \\  /    A nd           | Web:         http://www.foam-extend.org         |
|    \\/     M anipulation  |                                                 |
\*---------------------------------------------------------------------------*/
FoamFile
{
    version     2.0;
    format      ascii;
    class       volScalarField;
    location    "1";
    object      Cl.water;
}
// * * * * * * * * * * * * * * * * * * * * * * * * * * * * * * * * * * * * * //

dimensions      [0 0 0 0 0 0 0];

internalField   nonuniform List<scalar> 
100
(
0.00998525
0.0122201
0.013612
0.0146166
0.0155074
0.0163725
0.0173316
0.0185392
0.0207649
0.0188309
0.0188022
0.0188134
0.0188739
0.0190041
0.0191718
0.0193994
0.019636
0.0199171
0.0202173
0.0205299
0.0208347
0.0211175
0.0213658
0.0215362
0.0216567
0.0217322
0.0217642
0.0217814
0.0218055
0.0218125
0.021813
0.021814
0.0218165
0.0218069
0.0218109
0.0218159
0.0218035
0.0218112
0.0218098
0.0218105
0.0218129
0.0218219
0.0218074
0.0218129
0.0218126
0.0218188
0.0218082
0.0218275
0.0218146
0.0218154
0.0218075
0.0218142
0.0218133
0.0218113
0.0218217
0.0218175
0.0218269
0.021815
0.0218141
0.0218149
0.0218226
0.0218198
0.0218209
0.0218167
0.0218133
0.0218169
0.0218121
0.0218148
0.0218187
0.0218194
0.0218247
0.0218137
0.0218223
0.0218114
0.0218166
0.0218237
0.02183
0.0218259
0.0218246
0.021821
0.0218221
0.0218197
0.0218221
0.0218228
0.021826
0.0218219
0.0218223
0.0218244
0.0218196
0.0218172
0.0218211
0.0218202
0.0218186
0.0218289
0.0218169
0.0218282
0.0218223
0.0218248
0.0218197
0.0218079
)
;

boundaryField
{
    inlet
    {
        type            fixedValue;
        value           uniform 0;
    }
    outlet
    {
        type            zeroGradient;
    }
    yzfaces
    {
        type            empty;
    }
}


// ************************************************************************* //
