/*--------------------------------*- C++ -*----------------------------------*\
| =========                 |                                                 |
| \\      /  F ield         | foam-extend: Open Source CFD                    |
|  \\    /   O peration     | Version:     5.0                                |
|   \\  /    A nd           | Web:         http://www.foam-extend.org         |
|    \\/     M anipulation  |                                                 |
\*---------------------------------------------------------------------------*/
FoamFile
{
    version     2.0;
    format      ascii;
    class       volScalarField;
    location    "1";
    object      CO2.water;
}
// * * * * * * * * * * * * * * * * * * * * * * * * * * * * * * * * * * * * * //

dimensions      [0 0 0 0 0 0 0];

internalField   nonuniform List<scalar> 
100
(
0.00228364
0.0027955
0.0031137
0.00334266
0.00354654
0.00374396
0.00396424
0.00424085
0.00475074
0.000426069
0.000110881
2.81248e-05
7.35016e-06
2.03587e-06
5.9539e-07
1.79053e-07
5.38463e-08
1.5849e-08
4.5731e-09
1.36154e-09
5.40908e-10
3.33969e-10
2.45372e-10
1.79926e-10
1.24114e-10
8.08129e-11
5.01138e-11
2.98523e-11
1.72254e-11
9.71869e-12
5.37033e-12
2.92068e-12
1.56428e-12
8.26134e-13
4.31041e-13
2.22144e-13
1.13087e-13
5.70172e-14
2.84606e-14
1.40735e-14
6.90513e-15
3.36313e-15
1.62619e-15
7.82126e-16
3.74158e-16
1.78236e-16
8.46365e-17
4.00536e-17
1.89419e-17
8.95019e-18
4.23017e-18
1.99871e-18
9.45706e-19
4.48637e-19
2.13253e-19
1.01642e-19
4.85375e-20
2.32449e-20
1.11412e-20
5.35061e-21
2.57254e-21
1.23759e-21
5.94956e-22
2.85568e-22
1.36761e-22
6.53323e-23
3.11186e-23
1.47866e-23
6.99913e-24
3.30387e-24
1.55533e-24
7.29316e-25
3.39727e-25
1.57382e-25
7.22675e-26
3.29465e-26
1.49058e-26
6.68734e-27
2.97762e-27
1.31621e-27
5.76782e-28
2.51061e-28
1.0813e-28
4.61369e-29
1.94776e-29
8.13488e-30
3.35819e-30
1.36943e-30
5.507e-31
2.17716e-31
8.42921e-32
3.18656e-32
1.16716e-32
4.07312e-33
1.33669e-33
3.82861e-34
8.05339e-35
0
0
0
)
;

boundaryField
{
    inlet
    {
        type            fixedValue;
        value           uniform 0;
    }
    outlet
    {
        type            zeroGradient;
    }
    yzfaces
    {
        type            empty;
    }
}


// ************************************************************************* //
