/*--------------------------------*- C++ -*----------------------------------*\
| =========                 |                                                 |
| \\      /  F ield         | foam-extend: Open Source CFD                    |
|  \\    /   O peration     | Version:     5.0                                |
|   \\  /    A nd           | Web:         http://www.foam-extend.org         |
|    \\/     M anipulation  |                                                 |
\*---------------------------------------------------------------------------*/
FoamFile
{
    version     2.0;
    format      ascii;
    class       volScalarField;
    location    "1";
    object      H2O.gas;
}
// * * * * * * * * * * * * * * * * * * * * * * * * * * * * * * * * * * * * * //

dimensions      [0 0 0 0 0 0 0];

internalField   nonuniform List<scalar> 
100
(
0.000219993
0.000182092
0.000158525
0.000141259
0.000125963
0.000111272
9.43468e-05
7.21131e-05
3.11812e-05
0.00202026
0.00354359
0.00535785
0.00741026
0.0095903
0.0117877
0.0138077
0.0155208
0.0167119
0.0172573
0.0170767
0.0162362
0.0149422
0.0135066
0.0122637
0.0113349
0.0107403
0.0104045
0.0102154
0.0101094
0.0100659
0.0100361
0.0100253
0.0100159
0.0100088
0.0100076
0.010004
0.00999955
0.010001
0.0100021
0.0100009
0.0100023
0.0100026
0.010003
0.0100028
0.0100028
0.0100005
0.0100063
0.00999654
0.0100005
0.00999983
0.0100063
0.0100036
0.0100041
0.0100046
0.0100001
0.0100041
0.00999948
0.0100026
0.00999863
0.00999621
0.00999449
0.00999731
0.00999788
0.00999849
0.00999824
0.00999888
0.0100003
0.0100028
0.00999956
0.00999746
0.0099979
0.0100039
0.0100034
0.010008
0.0100044
0.0100005
0.00999693
0.0099958
0.00999468
0.00999879
0.00999688
0.0100028
0.0100025
0.010003
0.0100021
0.0100021
0.00999925
0.0100022
0.010004
0.0100053
0.0100027
0.0100024
0.010003
0.00999749
0.0100082
0.0100037
0.0100003
0.00999779
0.0100061
0.0100053
)
;

boundaryField
{
    inlet
    {
        type            fixedValue;
        value           uniform 0;
    }
    outlet
    {
        type            zeroGradient;
    }
    yzfaces
    {
        type            empty;
    }
}


// ************************************************************************* //
