/*--------------------------------*- C++ -*----------------------------------*\
| =========                 |                                                 |
| \\      /  F ield         | foam-extend: Open Source CFD                    |
|  \\    /   O peration     | Version:     5.0                                |
|   \\  /    A nd           | Web:         http://www.foam-extend.org         |
|    \\/     M anipulation  |                                                 |
\*---------------------------------------------------------------------------*/
FoamFile
{
    version     2.0;
    format      ascii;
    class       volScalarField;
    location    "1";
    object      Na.water;
}
// * * * * * * * * * * * * * * * * * * * * * * * * * * * * * * * * * * * * * //

dimensions      [0 0 0 0 0 0 0];

internalField   nonuniform List<scalar> 
100
(
0.00998378
0.0122249
0.0136154
0.014613
0.015505
0.0163662
0.0173334
0.0185445
0.0207774
0.0188382
0.0188052
0.0188145
0.0188712
0.0189989
0.0191702
0.019395
0.0196332
0.0199163
0.0202132
0.0205277
0.0208306
0.0211144
0.0213548
0.0215315
0.0216633
0.0217465
0.0217789
0.0217972
0.0218186
0.0218231
0.0218227
0.0218298
0.0218291
0.021824
0.0218292
0.0218301
0.02181
0.021817
0.0218126
0.0218128
0.021822
0.0218295
0.0218153
0.0218249
0.021823
0.0218262
0.0218175
0.0218314
0.0218269
0.0218263
0.0218114
0.0218209
0.021821
0.0218195
0.0218278
0.0218203
0.0218204
0.0218154
0.0218204
0.0218239
0.0218237
0.0218182
0.0218218
0.0218227
0.0218269
0.0218217
0.0218192
0.021817
0.0218181
0.0218226
0.0218198
0.0218131
0.0218172
0.0218128
0.0218123
0.0218155
0.0218214
0.0218154
0.0218166
0.0218139
0.0218188
0.0218106
0.0218173
0.0218155
0.0218107
0.0218107
0.0218146
0.0218101
0.0218141
0.0218119
0.0218155
0.0218165
0.0218204
0.0218214
0.0218074
0.0218116
0.021813
0.0218193
0.0218154
0.0218178
)
;

boundaryField
{
    inlet
    {
        type            fixedValue;
        value           uniform 0;
    }
    outlet
    {
        type            zeroGradient;
    }
    yzfaces
    {
        type            empty;
    }
}


// ************************************************************************* //
