/*--------------------------------*- C++ -*----------------------------------*\
| =========                 |                                                 |
| \\      /  F ield         | foam-extend: Open Source CFD                    |
|  \\    /   O peration     | Version:     5.0                                |
|   \\  /    A nd           | Web:         http://www.foam-extend.org         |
|    \\/     M anipulation  |                                                 |
\*---------------------------------------------------------------------------*/
FoamFile
{
    version     2.0;
    format      ascii;
    class       volScalarField;
    location    "1";
    object      Ns;
}
// * * * * * * * * * * * * * * * * * * * * * * * * * * * * * * * * * * * * * //

dimensions      [0 -3 0 0 1 0 0];

internalField   nonuniform List<scalar> 
100
(
3.28933
2.2925
1.77857
7.2619
10.6503
11.6447
22.8769
55.5893
114.9
170.296
172.626
173.527
173.107
175.297
173.735
170.421
171.378
170.309
175.168
170.458
171.982
173.656
173.791
174.747
171.195
169.839
171.124
171.448
169.369
172.373
173.074
173.841
173.523
173.98
172.553
173.493
174.891
173.117
172.14
173.412
161.797
177.64
175.615
163.098
180.157
174.276
173.848
170.268
172.3
173.163
176.614
172.359
173.159
172.613
171.539
174.37
170.791
173.134
175.019
171.849
174.998
172.836
173.819
171.84
171.574
172.467
173.972
174.46
171.865
175.182
173.548
172.922
172.829
174.239
177.293
170.132
173.998
172.649
171.879
171.584
171.908
173.822
171.435
173
172.705
170.895
174.184
173.545
172.369
175.38
170.87
172.752
171.449
172.284
173.647
173.967
174.163
174.612
173.354
172.034
)
;

boundaryField
{
    inlet
    {
        type            fixedValue;
        value           uniform 0;
    }
    outlet
    {
        type            zeroGradient;
    }
    yzfaces
    {
        type            empty;
    }
}


// ************************************************************************* //
