/*--------------------------------*- C++ -*----------------------------------*\
| =========                 |                                                 |
| \\      /  F ield         | foam-extend: Open Source CFD                    |
|  \\    /   O peration     | Version:     5.0                                |
|   \\  /    A nd           | Web:         http://www.foam-extend.org         |
|    \\/     M anipulation  |                                                 |
\*---------------------------------------------------------------------------*/
FoamFile
{
    version     2.0;
    format      ascii;
    class       surfaceScalarField;
    location    "1";
    object      phi;
}
// * * * * * * * * * * * * * * * * * * * * * * * * * * * * * * * * * * * * * //

dimensions      [0 3 -1 0 0 0 0];

internalField   nonuniform List<scalar> 
99
(
1.22251e-06
1.22351e-06
1.21937e-06
1.22117e-06
1.21767e-06
1.2152e-06
1.2134e-06
1.20444e-06
1.21464e-06
1.21608e-06
1.21883e-06
1.21902e-06
1.21834e-06
1.21883e-06
1.21813e-06
1.21993e-06
1.21919e-06
1.21985e-06
1.22127e-06
1.22249e-06
1.22333e-06
1.22249e-06
1.22317e-06
1.22262e-06
1.22222e-06
1.22511e-06
1.22419e-06
1.22332e-06
1.22353e-06
1.22364e-06
1.22442e-06
1.22278e-06
1.22284e-06
1.22377e-06
1.22467e-06
1.223e-06
1.22451e-06
1.22461e-06
1.22484e-06
1.22492e-06
1.22486e-06
1.22493e-06
1.22547e-06
1.22631e-06
1.22665e-06
1.22627e-06
1.22547e-06
1.22818e-06
1.2283e-06
1.22799e-06
1.2256e-06
1.22566e-06
1.2257e-06
1.22503e-06
1.22759e-06
1.22682e-06
1.22839e-06
1.22818e-06
1.22785e-06
1.22793e-06
1.22919e-06
1.22876e-06
1.22892e-06
1.22908e-06
1.22968e-06
1.23018e-06
1.22939e-06
1.22844e-06
1.22947e-06
1.22983e-06
1.23058e-06
1.22993e-06
1.23056e-06
1.22968e-06
1.22937e-06
1.23001e-06
1.23139e-06
1.23124e-06
1.23189e-06
1.23175e-06
1.23251e-06
1.23204e-06
1.23211e-06
1.23316e-06
1.2331e-06
1.23278e-06
1.23262e-06
1.2331e-06
1.23241e-06
1.2317e-06
1.23202e-06
1.23247e-06
1.23369e-06
1.23398e-06
1.23304e-06
1.23357e-06
1.23193e-06
1.23309e-06
1.23255e-06
)
;

boundaryField
{
    inlet
    {
        type            calculated;
        value           uniform -1.225e-06;
    }
    outlet
    {
        type            calculated;
        value           uniform 1.23278e-06;
    }
    yzfaces
    {
        type            empty;
    }
}


// ************************************************************************* //
