/*--------------------------------*- C++ -*----------------------------------*\
| =========                 |                                                 |
| \\      /  F ield         | foam-extend: Open Source CFD                    |
|  \\    /   O peration     | Version:     5.0                                |
|   \\  /    A nd           | Web:         http://www.foam-extend.org         |
|    \\/     M anipulation  |                                                 |
\*---------------------------------------------------------------------------*/
FoamFile
{
    version     2.0;
    format      ascii;
    class       surfaceScalarField;
    location    "1";
    object      phi.water;
}
// * * * * * * * * * * * * * * * * * * * * * * * * * * * * * * * * * * * * * //

dimensions      [0 3 -1 0 0 0 0];

internalField   nonuniform List<scalar> 
99
(
4.13879e-07
7.4037e-07
1.06629e-06
1.37749e-06
1.73228e-06
2.15645e-06
2.73544e-06
3.76283e-06
4.00507e-06
4.00959e-06
3.98967e-06
3.99381e-06
4.0453e-06
4.14966e-06
4.2959e-06
4.49026e-06
4.70058e-06
4.9396e-06
5.19004e-06
5.43477e-06
5.65319e-06
5.82468e-06
5.95467e-06
6.03262e-06
6.08049e-06
6.1209e-06
6.12734e-06
6.13176e-06
6.13646e-06
6.13747e-06
6.14213e-06
6.13323e-06
6.13512e-06
6.14087e-06
6.1452e-06
6.13852e-06
6.14668e-06
6.14644e-06
6.14763e-06
6.1479e-06
6.14699e-06
6.1478e-06
6.15037e-06
6.1539e-06
6.15643e-06
6.15356e-06
6.15085e-06
6.16563e-06
6.1646e-06
6.1613e-06
6.14904e-06
6.15053e-06
6.15031e-06
6.14864e-06
6.16199e-06
6.15771e-06
6.16523e-06
6.16294e-06
6.16192e-06
6.16341e-06
6.16954e-06
6.16688e-06
6.1678e-06
6.16853e-06
6.17167e-06
6.17324e-06
6.169e-06
6.16446e-06
6.17034e-06
6.17292e-06
6.17556e-06
6.17221e-06
6.17501e-06
6.16954e-06
6.16928e-06
6.17433e-06
6.181e-06
6.17931e-06
6.18239e-06
6.1819e-06
6.18553e-06
6.18287e-06
6.18398e-06
6.189e-06
6.188e-06
6.18622e-06
6.18604e-06
6.18831e-06
6.18395e-06
6.18054e-06
6.18296e-06
6.18571e-06
6.1924e-06
6.19271e-06
6.1872e-06
6.19038e-06
6.18231e-06
6.18873e-06
6.18454e-06
)
;

boundaryField
{
    inlet
    {
        type            fixedValue;
        value           uniform 0;
    }
    outlet
    {
        type            calculated;
        value           uniform 6.1851e-06;
    }
    yzfaces
    {
        type            empty;
    }
}


// ************************************************************************* //
