/*--------------------------------*- C++ -*----------------------------------*\
| =========                 |                                                 |
| \\      /  F ield         | foam-extend: Open Source CFD                    |
|  \\    /   O peration     | Version:     5.0                                |
|   \\  /    A nd           | Web:         http://www.foam-extend.org         |
|    \\/     M anipulation  |                                                 |
\*---------------------------------------------------------------------------*/
FoamFile
{
    version     2.0;
    format      ascii;
    class       volScalarField;
    location    "1";
    object      S.gas;
}
// * * * * * * * * * * * * * * * * * * * * * * * * * * * * * * * * * * * * * //

dimensions      [0 0 0 0 0 0 0];

internalField   nonuniform List<scalar> 
100
(
0.564617
0.468891
0.407443
0.364136
0.324684
0.286892
0.245098
0.190659
0.180412
0.180387
0.181569
0.181039
0.178107
0.172709
0.165196
0.155762
0.145011
0.132954
0.11996
0.106369
0.0928989
0.0804585
0.0700013
0.0622276
0.056982
0.0538185
0.0520453
0.0510654
0.0505677
0.0503132
0.0501788
0.0501054
0.0500604
0.0500426
0.0500342
0.0500144
0.0500189
0.0500099
0.0500188
0.0500119
0.050015
0.0500109
0.0500266
0.0500114
0.0500128
0.0500123
0.0500166
0.0500134
0.0500063
0.0500026
0.0500066
0.0500164
0.0500173
0.0500154
0.0500217
0.0500229
0.0500133
0.0500073
0.0499891
0.0499836
0.049985
0.0499857
0.0499952
0.0499941
0.0499963
0.0499965
0.0499929
0.0500088
0.0499973
0.0499923
0.0499998
0.0500064
0.0500264
0.0500245
0.0500137
0.050008
0.0500041
0.049981
0.0499749
0.0499924
0.0499907
0.0500082
0.0500171
0.0500212
0.0500131
0.0500044
0.049996
0.0500116
0.050019
0.0500154
0.0500136
0.050014
0.0500227
0.0500008
0.0500263
0.050023
0.0499959
0.0499934
0.0500317
0.0500118
)
;

boundaryField
{
    inlet
    {
        type            calculated;
        value           uniform 1;
    }
    outlet
    {
        type            calculated;
        value           uniform 0.0500118;
    }
    yzfaces
    {
        type            empty;
    }
}


// ************************************************************************* //
