/*--------------------------------*- C++ -*----------------------------------*\
| =========                 |                                                 |
| \\      /  F ield         | foam-extend: Open Source CFD                    |
|  \\    /   O peration     | Version:     5.0                                |
|   \\  /    A nd           | Web:         http://www.foam-extend.org         |
|    \\/     M anipulation  |                                                 |
\*---------------------------------------------------------------------------*/
FoamFile
{
    version     2.0;
    format      ascii;
    class       volVectorField;
    location    "1";
    object      U.gas;
}
// * * * * * * * * * * * * * * * * * * * * * * * * * * * * * * * * * * * * * //

dimensions      [0 1 -1 0 0 0 0];

internalField   nonuniform List<vector> 
100
(
(0.0087021 0 0)
(0.0101104 0 0)
(0.0111642 0 0)
(0.011934 0 0)
(0.0126864 0 0)
(0.0133525 0 0)
(0.0140544 0 0)
(0.0148075 0 0)
(0.0130561 0 0)
(0.0126577 0 0)
(0.0126496 0 0)
(0.0127324 0 0)
(0.0127746 0 0)
(0.0127656 0 0)
(0.0126765 0 0)
(0.0124996 0 0)
(0.0121988 0 0)
(0.0117703 0 0)
(0.0111947 0 0)
(0.0104557 0 0)
(0.00954757 0 0)
(0.00851642 0 0)
(0.00746504 0 0)
(0.00652194 0 0)
(0.00579266 0 0)
(0.00530031 0 0)
(0.00500621 0 0)
(0.00483655 0 0)
(0.00474299 0 0)
(0.00469741 0 0)
(0.00467438 0 0)
(0.00466024 0 0)
(0.0046512 0 0)
(0.00464857 0 0)
(0.00465003 0 0)
(0.00464734 0 0)
(0.00464531 0 0)
(0.00464937 0 0)
(0.00464956 0 0)
(0.00465057 0 0)
(0.00464932 0 0)
(0.00465003 0 0)
(0.00465105 0 0)
(0.00465494 0 0)
(0.00465535 0 0)
(0.00465576 0 0)
(0.00465399 0 0)
(0.00465732 0 0)
(0.00466202 0 0)
(0.00466119 0 0)
(0.00465574 0 0)
(0.00465161 0 0)
(0.00465334 0 0)
(0.00465154 0 0)
(0.00465428 0 0)
(0.00465948 0 0)
(0.00466114 0 0)
(0.00466202 0 0)
(0.00466046 0 0)
(0.00465826 0 0)
(0.00466012 0 0)
(0.00466242 0 0)
(0.00466231 0 0)
(0.00466383 0 0)
(0.00466449 0 0)
(0.00466664 0 0)
(0.00466621 0 0)
(0.00466239 0 0)
(0.00466459 0 0)
(0.00466587 0 0)
(0.00466724 0 0)
(0.00466818 0 0)
(0.00466903 0 0)
(0.00467053 0 0)
(0.0046684 0 0)
(0.00466799 0 0)
(0.00467062 0 0)
(0.0046725 0 0)
(0.0046716 0 0)
(0.00467178 0 0)
(0.00467425 0 0)
(0.00467536 0 0)
(0.00467633 0 0)
(0.00467908 0 0)
(0.00468154 0 0)
(0.0046802 0 0)
(0.00467838 0 0)
(0.00467752 0 0)
(0.00467921 0 0)
(0.00467734 0 0)
(0.00467573 0 0)
(0.00467717 0 0)
(0.00468029 0 0)
(0.00468433 0 0)
(0.00468111 0 0)
(0.00468244 0 0)
(0.00468037 0 0)
(0.00467722 0 0)
(0.00467736 0 0)
(0.00467795 0 0)
)
;

boundaryField
{
    inlet
    {
        type            fixedValue;
        value           uniform (0.005 0 0);
    }
    outlet
    {
        type            zeroGradient;
    }
    yzfaces
    {
        type            empty;
    }
}


// ************************************************************************* //
