/*--------------------------------*- C++ -*----------------------------------*\
| =========                 |                                                 |
| \\      /  F ield         | foam-extend: Open Source CFD                    |
|  \\    /   O peration     | Version:     5.0                                |
|   \\  /    A nd           | Web:         http://www.foam-extend.org         |
|    \\/     M anipulation  |                                                 |
\*---------------------------------------------------------------------------*/
FoamFile
{
    version     2.0;
    format      ascii;
    class       volVectorField;
    location    "1";
    object      U.water;
}
// * * * * * * * * * * * * * * * * * * * * * * * * * * * * * * * * * * * * * //

dimensions      [0 1 -1 0 0 0 0];

internalField   nonuniform List<vector> 
100
(
(0.000187359 0 0)
(0.000472988 0 0)
(0.000736966 0 0)
(0.000998771 0 0)
(0.00127072 0 0)
(0.00159063 0 0)
(0.00200239 0 0)
(0.0026085 0 0)
(0.00314968 0 0)
(0.00326663 0 0)
(0.0032653 0 0)
(0.0032604 0 0)
(0.00328384 0 0)
(0.0033472 0 0)
(0.00344907 0 0)
(0.00358747 0 0)
(0.00375308 0 0)
(0.00393604 0 0)
(0.00413499 0 0)
(0.00433634 0 0)
(0.00452486 0 0)
(0.00468304 0 0)
(0.00480493 0 0)
(0.00488985 0 0)
(0.00494092 0 0)
(0.00497715 0 0)
(0.00499815 0 0)
(0.00500345 0 0)
(0.00500693 0 0)
(0.00500996 0 0)
(0.00501304 0 0)
(0.0050119 0 0)
(0.00500897 0 0)
(0.00501122 0 0)
(0.00501508 0 0)
(0.00501356 0 0)
(0.00501333 0 0)
(0.00501658 0 0)
(0.00501727 0 0)
(0.00501789 0 0)
(0.00501801 0 0)
(0.00501797 0 0)
(0.00501923 0 0)
(0.00502199 0 0)
(0.00502449 0 0)
(0.00502439 0 0)
(0.00502196 0 0)
(0.00502588 0 0)
(0.0050317 0 0)
(0.00503134 0 0)
(0.00502584 0 0)
(0.00502104 0 0)
(0.00502116 0 0)
(0.00501991 0 0)
(0.00502382 0 0)
(0.0050274 0 0)
(0.00502905 0 0)
(0.00503191 0 0)
(0.00503083 0 0)
(0.0050304 0 0)
(0.00503318 0 0)
(0.00503484 0 0)
(0.00503427 0 0)
(0.00503488 0 0)
(0.00503647 0 0)
(0.00503873 0 0)
(0.00503814 0 0)
(0.00503459 0 0)
(0.00503464 0 0)
(0.00503755 0 0)
(0.00503988 0 0)
(0.00504005 0 0)
(0.00503995 0 0)
(0.00503935 0 0)
(0.00503691 0 0)
(0.00503764 0 0)
(0.00504184 0 0)
(0.00504437 0 0)
(0.00504547 0 0)
(0.00504656 0 0)
(0.00504777 0 0)
(0.00504835 0 0)
(0.00504745 0 0)
(0.00504971 0 0)
(0.0050517 0 0)
(0.00505094 0 0)
(0.00505001 0 0)
(0.00505075 0 0)
(0.00505021 0 0)
(0.0050473 0 0)
(0.00504655 0 0)
(0.00504813 0 0)
(0.00505155 0 0)
(0.00505458 0 0)
(0.00505335 0 0)
(0.00505239 0 0)
(0.0050501 0 0)
(0.00504924 0 0)
(0.00505059 0 0)
(0.00504989 0 0)
)
;

boundaryField
{
    inlet
    {
        type            fixedValue;
        value           uniform (0 0 0);
    }
    outlet
    {
        type            zeroGradient;
    }
    yzfaces
    {
        type            empty;
    }
}


// ************************************************************************* //
