/*--------------------------------*- C++ -*----------------------------------*\
| =========                 |                                                 |
| \\      /  F ield         | foam-extend: Open Source CFD                    |
|  \\    /   O peration     | Version:     5.0                                |
|   \\  /    A nd           | Web:         http://www.foam-extend.org         |
|    \\/     M anipulation  |                                                 |
\*---------------------------------------------------------------------------*/
FoamFile
{
    version     2.0;
    format      ascii;
    class       volScalarField;
    location    "90";
    object      alpha.water;
}
// * * * * * * * * * * * * * * * * * * * * * * * * * * * * * * * * * * * * * //

dimensions      [0 0 0 0 0 0 0];

internalField   nonuniform List<scalar> 
100
(
0.00679668
0.0147983
0.0268247
0.0365286
0.0363819
0.0333301
0.0358126
0.0338002
0.0354898
0.0337241
0.0356936
0.0341615
0.0354205
0.0342793
0.035442
0.0339603
0.0352027
0.0343804
0.034984
0.0348489
0.0344674
0.035166
0.0358338
0.03951
0.0449983
0.0507159
0.0535571
0.0553772
0.0508694
0.0453568
0.044767
0.0472067
0.0510876
0.0526805
0.0531785
0.0541991
0.0539437
0.0546518
0.0499333
0.0452671
0.0446992
0.0437637
0.0457182
0.0507337
0.0529281
0.0548513
0.0558545
0.0542211
0.0521885
0.0519394
0.0521967
0.0530492
0.0528008
0.0528045
0.0523366
0.0522733
0.0539836
0.0531075
0.0520885
0.0508366
0.0476563
0.0476505
0.0460799
0.0461163
0.0456363
0.0460098
0.0475988
0.0483874
0.0475315
0.0478668
0.0477367
0.0473523
0.0479004
0.0494813
0.051053
0.051127
0.0530984
0.05398
0.0548268
0.0571237
0.0610606
0.064792
0.0672261
0.0692043
0.0704572
0.0729387
0.0752522
0.0755476
0.0764606
0.076789
0.0770737
0.0777729
0.0784284
0.0780943
0.0786794
0.0780242
0.0783059
0.0777393
0.0772503
0.0758568
)
;

boundaryField
{
    inlet
    {
        type            fixedValue;
        value           uniform 0;
    }
    outlet
    {
        type            zeroGradient;
    }
    yzfaces
    {
        type            empty;
    }
}


// ************************************************************************* //
