/*--------------------------------*- C++ -*----------------------------------*\
| =========                 |                                                 |
| \\      /  F ield         | foam-extend: Open Source CFD                    |
|  \\    /   O peration     | Version:     5.0                                |
|   \\  /    A nd           | Web:         http://www.foam-extend.org         |
|    \\/     M anipulation  |                                                 |
\*---------------------------------------------------------------------------*/
FoamFile
{
    version     2.0;
    format      ascii;
    class       volScalarField;
    location    "90";
    object      alpha.water;
}
// * * * * * * * * * * * * * * * * * * * * * * * * * * * * * * * * * * * * * //

dimensions      [0 0 0 0 0 0 0];

internalField   nonuniform List<scalar> 
100
(
0.00694739
0.0141678
0.0277513
0.037508
0.0379098
0.0347769
0.034779
0.0358494
0.03359
0.0359325
0.0334764
0.0358921
0.0334948
0.0359747
0.0350604
0.0345087
0.0349222
0.0343992
0.0350052
0.0346954
0.0347965
0.0351941
0.0362349
0.0400729
0.0460958
0.0508886
0.0527189
0.0570491
0.0551181
0.0484048
0.0492435
0.052238
0.0543696
0.0548719
0.0545651
0.0516389
0.0510872
0.0523724
0.0540695
0.0539479
0.0539948
0.0533017
0.051529
0.0512188
0.0527417
0.0537812
0.0536479
0.0544507
0.0537693
0.0528864
0.0519128
0.0475359
0.0473034
0.0478887
0.0476877
0.0465138
0.0448272
0.0451631
0.0452088
0.0455636
0.0480229
0.050172
0.0520198
0.0501429
0.0476403
0.0481916
0.0473438
0.047092
0.0469439
0.0466281
0.048194
0.0486125
0.0490694
0.0497131
0.0493631
0.0511153
0.0528606
0.0544961
0.0561066
0.0582536
0.060658
0.063896
0.0662184
0.0696376
0.0716358
0.0741189
0.0759205
0.0770002
0.0775571
0.0769742
0.0778527
0.0778862
0.077722
0.0777527
0.0779944
0.0774212
0.0769162
0.0764809
0.0766947
0.077399
)
;

boundaryField
{
    inlet
    {
        type            fixedValue;
        value           uniform 0;
    }
    outlet
    {
        type            zeroGradient;
    }
    yzfaces
    {
        type            empty;
    }
}


// ************************************************************************* //
