/*--------------------------------*- C++ -*----------------------------------*\
| =========                 |                                                 |
| \\      /  F ield         | foam-extend: Open Source CFD                    |
|  \\    /   O peration     | Version:     5.0                                |
|   \\  /    A nd           | Web:         http://www.foam-extend.org         |
|    \\/     M anipulation  |                                                 |
\*---------------------------------------------------------------------------*/
FoamFile
{
    version     2.0;
    format      ascii;
    class       volScalarField;
    location    "90";
    object      Cl.water;
}
// * * * * * * * * * * * * * * * * * * * * * * * * * * * * * * * * * * * * * //

dimensions      [0 0 0 0 0 0 0];

internalField   nonuniform List<scalar> 
100
(
0.000511206
0.000315658
0.000150378
0.000177829
0.000657787
0.0019473
0.00286264
0.00352703
0.00453152
0.00473561
0.00546463
0.00533191
0.00577254
0.00578727
0.00587072
0.00635728
0.0063735
0.00660459
0.00644818
0.00651081
0.00662674
0.00742389
0.00832887
0.00761879
0.00730828
0.00751998
0.00776304
0.00743054
0.00995164
0.013397
0.0116827
0.0095638
0.00882885
0.0089905
0.00994328
0.0114157
0.0111035
0.0100601
0.00936652
0.00947069
0.00968299
0.0104714
0.0113065
0.0109445
0.0102837
0.00955503
0.00940955
0.00940091
0.00964171
0.0102462
0.0111938
0.0128084
0.0120594
0.0115654
0.0117122
0.0124376
0.0122377
0.0116004
0.0113301
0.010935
0.00982465
0.00937538
0.00983161
0.0111105
0.0118156
0.0113383
0.0116146
0.0118573
0.0117524
0.0116801
0.0113829
0.0114352
0.0118415
0.0124498
0.013049
0.0125059
0.0124482
0.0124339
0.0123061
0.0120988
0.0121046
0.0123398
0.0127257
0.0127821
0.0131694
0.0133943
0.0137125
0.0139945
0.0139486
0.0140644
0.0140509
0.0141078
0.0143388
0.0144413
0.0146604
0.0145009
0.014183
0.0136828
0.0134633
0.0133858
)
;

boundaryField
{
    inlet
    {
        type            fixedValue;
        value           uniform 0;
    }
    outlet
    {
        type            zeroGradient;
    }
    yzfaces
    {
        type            empty;
    }
}


// ************************************************************************* //
