/*--------------------------------*- C++ -*----------------------------------*\
| =========                 |                                                 |
| \\      /  F ield         | foam-extend: Open Source CFD                    |
|  \\    /   O peration     | Version:     5.0                                |
|   \\  /    A nd           | Web:         http://www.foam-extend.org         |
|    \\/     M anipulation  |                                                 |
\*---------------------------------------------------------------------------*/
FoamFile
{
    version     2.0;
    format      ascii;
    class       volScalarField;
    location    "90";
    object      Cl.water;
}
// * * * * * * * * * * * * * * * * * * * * * * * * * * * * * * * * * * * * * //

dimensions      [0 0 0 0 0 0 0];

internalField   nonuniform List<scalar> 
100
(
0.000512772
0.000287958
0.000160251
0.000180063
0.000721037
0.00203956
0.00260828
0.00390019
0.00407261
0.00511466
0.00498639
0.00573767
0.00549154
0.00597708
0.00573799
0.00612748
0.00602747
0.00636623
0.00651441
0.00669148
0.0069336
0.0070398
0.00708172
0.00692049
0.00721441
0.00787589
0.00859069
0.00914808
0.0121148
0.0148024
0.0128452
0.00988516
0.00817048
0.00806106
0.00835142
0.00875437
0.00930382
0.00978711
0.0128486
0.0149837
0.0133603
0.0117748
0.00959999
0.00789793
0.00792926
0.00808678
0.00894218
0.0104595
0.0112945
0.0112781
0.0108803
0.0102789
0.0100763
0.0101336
0.0103851
0.0102936
0.00953045
0.0101007
0.0110183
0.0118067
0.0124407
0.0117315
0.0126596
0.0121873
0.0124215
0.0117281
0.0114928
0.011432
0.0118441
0.0116744
0.0121097
0.0123535
0.0120251
0.0120029
0.0121938
0.0124954
0.0123842
0.0124564
0.0125528
0.0126506
0.0126946
0.0127156
0.0130506
0.013165
0.013403
0.0131783
0.0134392
0.0137831
0.0137806
0.0136721
0.0133342
0.0131108
0.0133663
0.0134939
0.0133575
0.0134254
0.0132557
0.0133578
0.0134422
0.0137832
)
;

boundaryField
{
    inlet
    {
        type            fixedValue;
        value           uniform 0;
    }
    outlet
    {
        type            zeroGradient;
    }
    yzfaces
    {
        type            empty;
    }
}


// ************************************************************************* //
