/*--------------------------------*- C++ -*----------------------------------*\
| =========                 |                                                 |
| \\      /  F ield         | foam-extend: Open Source CFD                    |
|  \\    /   O peration     | Version:     5.0                                |
|   \\  /    A nd           | Web:         http://www.foam-extend.org         |
|    \\/     M anipulation  |                                                 |
\*---------------------------------------------------------------------------*/
FoamFile
{
    version     2.0;
    format      ascii;
    class       volScalarField;
    location    "90";
    object      CO2.water;
}
// * * * * * * * * * * * * * * * * * * * * * * * * * * * * * * * * * * * * * //

dimensions      [0 0 0 0 0 0 0];

internalField   nonuniform List<scalar> 
100
(
0.000178512
0.000388671
0.000704538
0.000959407
0.000955555
0.000875399
0.000940601
0.000887746
0.000932124
0.000885747
0.000937476
0.000897236
0.000930302
0.000900331
0.000930868
0.000891951
0.000924583
0.000902985
0.000918839
0.000915291
0.00090527
0.000923618
0.000941157
0.00103771
0.00118186
0.00133203
0.00140665
0.00145446
0.00133606
0.00119128
0.00117579
0.00123986
0.00134179
0.00138363
0.00139671
0.00142351
0.00141681
0.0014354
0.00131147
0.00118892
0.001174
0.00114943
0.00120077
0.0013325
0.00139013
0.00144064
0.00146699
0.00142409
0.00137071
0.00136417
0.00137092
0.00139331
0.00138679
0.00138689
0.0013746
0.00137293
0.00141785
0.00139484
0.00136808
0.0013352
0.00125167
0.00125152
0.00121027
0.00121122
0.00119862
0.00120843
0.00125016
0.00127087
0.00124839
0.0012572
0.00125378
0.00124369
0.00125808
0.0012996
0.00134088
0.00134283
0.00139461
0.00141776
0.00144
0.00150033
0.00160373
0.00170173
0.00176566
0.00181762
0.00185053
0.0019157
0.00197647
0.00198422
0.0020082
0.00201683
0.00202431
0.00204267
0.00205989
0.00205111
0.00206648
0.00204927
0.00205667
0.00204179
0.00202894
0.00199234
)
;

boundaryField
{
    inlet
    {
        type            fixedValue;
        value           uniform 0;
    }
    outlet
    {
        type            zeroGradient;
    }
    yzfaces
    {
        type            empty;
    }
}


// ************************************************************************* //
