/*--------------------------------*- C++ -*----------------------------------*\
| =========                 |                                                 |
| \\      /  F ield         | foam-extend: Open Source CFD                    |
|  \\    /   O peration     | Version:     5.0                                |
|   \\  /    A nd           | Web:         http://www.foam-extend.org         |
|    \\/     M anipulation  |                                                 |
\*---------------------------------------------------------------------------*/
FoamFile
{
    version     2.0;
    format      ascii;
    class       volScalarField;
    location    "90";
    object      CO2.water;
}
// * * * * * * * * * * * * * * * * * * * * * * * * * * * * * * * * * * * * * //

dimensions      [0 0 0 0 0 0 0];

internalField   nonuniform List<scalar> 
100
(
0.00018247
0.000372111
0.000728876
0.00098513
0.000995682
0.000913399
0.000913453
0.000941569
0.000882226
0.00094375
0.000879241
0.00094269
0.000879724
0.000944859
0.000920845
0.000906354
0.000917216
0.000903478
0.000919394
0.00091126
0.000913915
0.000924357
0.000951694
0.0010525
0.00121069
0.00133657
0.00138464
0.00149837
0.00144765
0.00127133
0.00129336
0.00137201
0.00142799
0.00144119
0.00143313
0.00135627
0.00134178
0.00137554
0.00142011
0.00141692
0.00141815
0.00139994
0.00135338
0.00134524
0.00138524
0.00141254
0.00140904
0.00143012
0.00141223
0.00138904
0.00136347
0.00124851
0.0012424
0.00125777
0.0012525
0.00122166
0.00117737
0.00118619
0.00118739
0.00119671
0.0012613
0.00131774
0.00136628
0.00131698
0.00125125
0.00126573
0.00124346
0.00123685
0.00123296
0.00122467
0.00126579
0.00127679
0.00128879
0.00130569
0.0012965
0.00134252
0.00138836
0.00143131
0.00147361
0.00153
0.00159315
0.0016782
0.0017392
0.001829
0.00188148
0.0019467
0.00199402
0.00202238
0.002037
0.00202169
0.00204477
0.00204564
0.00204133
0.00204214
0.00204849
0.00203343
0.00202017
0.00200874
0.00201435
0.00203285
)
;

boundaryField
{
    inlet
    {
        type            fixedValue;
        value           uniform 0;
    }
    outlet
    {
        type            zeroGradient;
    }
    yzfaces
    {
        type            empty;
    }
}


// ************************************************************************* //
