/*--------------------------------*- C++ -*----------------------------------*\
| =========                 |                                                 |
| \\      /  F ield         | foam-extend: Open Source CFD                    |
|  \\    /   O peration     | Version:     5.0                                |
|   \\  /    A nd           | Web:         http://www.foam-extend.org         |
|    \\/     M anipulation  |                                                 |
\*---------------------------------------------------------------------------*/
FoamFile
{
    version     2.0;
    format      ascii;
    class       volScalarField;
    location    "90";
    object      H2O.gas;
}
// * * * * * * * * * * * * * * * * * * * * * * * * * * * * * * * * * * * * * //

dimensions      [0 0 0 0 0 0 0];

internalField   nonuniform List<scalar> 
100
(
0.000375964
0.000361903
0.000335449
0.000316448
0.000315666
0.000321767
0.000321763
0.000319678
0.000324079
0.000319517
0.0003243
0.000319595
0.000324264
0.000319435
0.000321215
0.00032229
0.000321484
0.000322503
0.000321323
0.000321926
0.000321729
0.000320955
0.000318928
0.000311453
0.000299724
0.00029039
0.000286826
0.000278393
0.000282153
0.000295227
0.000293594
0.000287762
0.000283611
0.000282633
0.00028323
0.000288929
0.000290003
0.0002875
0.000284195
0.000284432
0.000284341
0.000285691
0.000289143
0.000289747
0.000286781
0.000284757
0.000285016
0.000283453
0.00028478
0.000286499
0.000288396
0.000296919
0.000297372
0.000296232
0.000296624
0.00029891
0.000302195
0.00030154
0.000301451
0.00030076
0.000295971
0.000291786
0.000288187
0.000291842
0.000296716
0.000295643
0.000297293
0.000297784
0.000298072
0.000298687
0.000295638
0.000294823
0.000293933
0.000292679
0.000293361
0.000289949
0.00028655
0.000283365
0.000280228
0.000276047
0.000271364
0.000265059
0.000260536
0.000253877
0.000249986
0.00024515
0.000241641
0.000239538
0.000238454
0.000239589
0.000237878
0.000237813
0.000238133
0.000238073
0.000237602
0.000238719
0.000239702
0.00024055
0.000240133
0.000238762
)
;

boundaryField
{
    inlet
    {
        type            fixedValue;
        value           uniform 0;
    }
    outlet
    {
        type            zeroGradient;
    }
    yzfaces
    {
        type            empty;
    }
}


// ************************************************************************* //
