/*--------------------------------*- C++ -*----------------------------------*\
| =========                 |                                                 |
| \\      /  F ield         | foam-extend: Open Source CFD                    |
|  \\    /   O peration     | Version:     5.0                                |
|   \\  /    A nd           | Web:         http://www.foam-extend.org         |
|    \\/     M anipulation  |                                                 |
\*---------------------------------------------------------------------------*/
FoamFile
{
    version     2.0;
    format      ascii;
    class       volScalarField;
    location    "90";
    object      H2O.water;
}
// * * * * * * * * * * * * * * * * * * * * * * * * * * * * * * * * * * * * * //

dimensions      [0 0 0 0 0 0 0];

internalField   nonuniform List<scalar> 
100
(
0.00559271
0.0138336
0.0257995
0.0352088
0.0339839
0.0283743
0.0296529
0.025109
0.0264088
0.0226033
0.0247759
0.0217833
0.0235011
0.0214214
0.0230319
0.0208086
0.0222174
0.0207351
0.0210253
0.0205428
0.0196865
0.0201646
0.0207285
0.0246296
0.0293842
0.0336253
0.0349584
0.0356178
0.0252862
0.0145438
0.0178951
0.0261998
0.0334025
0.03517
0.0350827
0.0352749
0.0339319
0.0336546
0.0229464
0.0141279
0.0168086
0.0190699
0.025322
0.0336052
0.0356792
0.0372398
0.03651
0.0318823
0.0282279
0.0280217
0.0290649
0.0310918
0.0312539
0.0311477
0.0301979
0.0303192
0.0335156
0.031523
0.0286991
0.0259003
0.0215392
0.0229517
0.0195626
0.0205344
0.0195984
0.021342
0.0233571
0.0242593
0.0225954
0.0232649
0.0222575
0.0213822
0.0225763
0.0241583
0.0253091
0.0247764
0.0269199
0.027641
0.0282679
0.0303157
0.03406
0.0376507
0.0393556
0.0410511
0.0418131
0.0446674
0.0464041
0.0460146
0.046915
0.0474524
0.0484053
0.049529
0.0496558
0.0490788
0.0499212
0.0491478
0.0497531
0.0489855
0.048355
0.0463068
)
;

boundaryField
{
    inlet
    {
        type            fixedValue;
        value           uniform 0;
    }
    outlet
    {
        type            zeroGradient;
    }
    yzfaces
    {
        type            empty;
    }
}


// ************************************************************************* //
