/*--------------------------------*- C++ -*----------------------------------*\
| =========                 |                                                 |
| \\      /  F ield         | foam-extend: Open Source CFD                    |
|  \\    /   O peration     | Version:     5.0                                |
|   \\  /    A nd           | Web:         http://www.foam-extend.org         |
|    \\/     M anipulation  |                                                 |
\*---------------------------------------------------------------------------*/
FoamFile
{
    version     2.0;
    format      ascii;
    class       volScalarField;
    location    "90";
    object      H2O.water;
}
// * * * * * * * * * * * * * * * * * * * * * * * * * * * * * * * * * * * * * //

dimensions      [0 0 0 0 0 0 0];

internalField   nonuniform List<scalar> 
100
(
0.00574274
0.0131645
0.0267217
0.0361672
0.0355982
0.0299678
0.0281382
0.0278545
0.0236439
0.025512
0.0216565
0.0242753
0.0210592
0.0234465
0.0223873
0.0208744
0.0212453
0.0202754
0.0211855
0.0207589
0.0206267
0.0194257
0.0186281
0.0237913
0.0302732
0.0345155
0.0358141
0.0406951
0.0337833
0.0203608
0.0246084
0.0317486
0.0352931
0.0354525
0.0332538
0.0274666
0.0275519
0.0308765
0.0339008
0.0335706
0.0331944
0.0309452
0.0275456
0.0279901
0.0307974
0.0332676
0.033429
0.0342336
0.0330943
0.0310184
0.0281746
0.0206908
0.0219661
0.0235107
0.0230196
0.0204254
0.0191833
0.0207738
0.0213525
0.0224955
0.0271157
0.0301084
0.0309955
0.0266041
0.0227516
0.0242456
0.0228677
0.0221477
0.0222205
0.0220634
0.0241712
0.0244798
0.0241191
0.0235342
0.0220048
0.0247941
0.0266087
0.0282149
0.0300278
0.0325234
0.0348701
0.0375531
0.0390419
0.0422523
0.0434128
0.0453716
0.0464865
0.0469737
0.0476148
0.046816
0.0477092
0.0476436
0.0470278
0.0468615
0.0466479
0.0464121
0.046562
0.0471386
0.0477931
0.0486452
)
;

boundaryField
{
    inlet
    {
        type            fixedValue;
        value           uniform 0;
    }
    outlet
    {
        type            zeroGradient;
    }
    yzfaces
    {
        type            empty;
    }
}


// ************************************************************************* //
