/*--------------------------------*- C++ -*----------------------------------*\
| =========                 |                                                 |
| \\      /  F ield         | foam-extend: Open Source CFD                    |
|  \\    /   O peration     | Version:     5.0                                |
|   \\  /    A nd           | Web:         http://www.foam-extend.org         |
|    \\/     M anipulation  |                                                 |
\*---------------------------------------------------------------------------*/
FoamFile
{
    version     2.0;
    format      ascii;
    class       volScalarField;
    location    "90";
    object      H2O.gas;
}
// * * * * * * * * * * * * * * * * * * * * * * * * * * * * * * * * * * * * * //

dimensions      [0 0 0 0 0 0 0];

internalField   nonuniform List<scalar> 
100
(
0.000376258
0.000360675
0.000337254
0.000318356
0.000318641
0.000324585
0.00031975
0.000323669
0.000320379
0.000323818
0.000319982
0.000322966
0.000320514
0.000322736
0.000320472
0.000323358
0.000320938
0.000322539
0.000321364
0.000321627
0.00032237
0.000321009
0.000319709
0.00031255
0.000301861
0.000290727
0.000285193
0.000281649
0.000290427
0.000301163
0.000302312
0.00029756
0.000290003
0.0002869
0.000285931
0.000283943
0.00028444
0.000283061
0.000292251
0.000301338
0.000302444
0.000304266
0.000300459
0.000290692
0.000286418
0.000282673
0.000280719
0.0002839
0.000287859
0.000288344
0.000287843
0.000286182
0.000286666
0.000286659
0.00028757
0.000287694
0.000284363
0.000286069
0.000288053
0.000290491
0.000296685
0.000296696
0.000299755
0.000299684
0.000300619
0.000299892
0.000296797
0.000295261
0.000296928
0.000296275
0.000296528
0.000297277
0.00029621
0.000293131
0.00029007
0.000289926
0.000286087
0.00028437
0.000282721
0.000278247
0.000270581
0.000263314
0.000258573
0.000254721
0.000252281
0.000247448
0.000242943
0.000242367
0.000240589
0.00023995
0.000239395
0.000238034
0.000236757
0.000237408
0.000236268
0.000237544
0.000236996
0.000238099
0.000239052
0.000241765
)
;

boundaryField
{
    inlet
    {
        type            fixedValue;
        value           uniform 0;
    }
    outlet
    {
        type            zeroGradient;
    }
    yzfaces
    {
        type            empty;
    }
}


// ************************************************************************* //
