/*--------------------------------*- C++ -*----------------------------------*\
| =========                 |                                                 |
| \\      /  F ield         | foam-extend: Open Source CFD                    |
|  \\    /   O peration     | Version:     5.0                                |
|   \\  /    A nd           | Web:         http://www.foam-extend.org         |
|    \\/     M anipulation  |                                                 |
\*---------------------------------------------------------------------------*/
FoamFile
{
    version     2.0;
    format      ascii;
    class       volScalarField;
    location    "90";
    object      Na.water;
}
// * * * * * * * * * * * * * * * * * * * * * * * * * * * * * * * * * * * * * //

dimensions      [0 0 0 0 0 0 0];

internalField   nonuniform List<scalar> 
100
(
0.00051269
0.000288097
0.000160401
0.000180285
0.000721406
0.00204082
0.00261077
0.00390319
0.00407633
0.00512032
0.00499379
0.00574327
0.00549752
0.00598047
0.00574126
0.00613224
0.00603329
0.00637607
0.00652549
0.00669937
0.006942
0.00703794
0.00708243
0.00692225
0.00721786
0.00788269
0.00860139
0.0091568
0.0121323
0.0148193
0.0128509
0.00988193
0.00817283
0.00806576
0.00834761
0.00874626
0.00929111
0.00977471
0.0128268
0.0149666
0.0133563
0.0117696
0.00959539
0.0078981
0.00792944
0.00808407
0.00893526
0.0104553
0.0112954
0.0112754
0.0108806
0.0102852
0.0100838
0.0101363
0.010379
0.0102875
0.00951967
0.010089
0.0110031
0.0117943
0.0124247
0.0117157
0.0126474
0.0121834
0.0124178
0.0117313
0.0114987
0.0114252
0.0118435
0.0116702
0.0121157
0.0123729
0.0120409
0.0120206
0.0122093
0.0125124
0.0123996
0.0124648
0.0125661
0.012657
0.0127021
0.012724
0.0130542
0.0131705
0.0133906
0.0131773
0.0134325
0.0137656
0.0137569
0.0136477
0.0133099
0.0130904
0.0133464
0.0134704
0.0133342
0.0134017
0.0132404
0.0133542
0.0134242
0.0137744
)
;

boundaryField
{
    inlet
    {
        type            fixedValue;
        value           uniform 0;
    }
    outlet
    {
        type            zeroGradient;
    }
    yzfaces
    {
        type            empty;
    }
}


// ************************************************************************* //
