/*--------------------------------*- C++ -*----------------------------------*\
| =========                 |                                                 |
| \\      /  F ield         | foam-extend: Open Source CFD                    |
|  \\    /   O peration     | Version:     5.0                                |
|   \\  /    A nd           | Web:         http://www.foam-extend.org         |
|    \\/     M anipulation  |                                                 |
\*---------------------------------------------------------------------------*/
FoamFile
{
    version     2.0;
    format      ascii;
    class       volScalarField;
    location    "90";
    object      Na.water;
}
// * * * * * * * * * * * * * * * * * * * * * * * * * * * * * * * * * * * * * //

dimensions      [0 0 0 0 0 0 0];

internalField   nonuniform List<scalar> 
100
(
0.000510972
0.000315549
0.000150376
0.000177831
0.000658134
0.00194841
0.00286461
0.00352636
0.0045324
0.0047411
0.00547599
0.00534222
0.00578329
0.00579603
0.00588147
0.00637066
0.00638618
0.00661566
0.00645213
0.00651448
0.00662915
0.00742013
0.00832629
0.00761023
0.0073037
0.00751658
0.00775712
0.00742515
0.00993544
0.0133756
0.011659
0.00955356
0.00881973
0.00898773
0.00993495
0.0114004
0.01109
0.0100602
0.009382
0.00948968
0.00969928
0.0104852
0.0113234
0.010939
0.0102754
0.00954608
0.00940029
0.00938604
0.0096211
0.0102328
0.0111809
0.0127882
0.0120355
0.0115548
0.0117034
0.0124291
0.0122289
0.0116028
0.0113388
0.0109365
0.00982132
0.00937045
0.00982644
0.0111113
0.0118219
0.0113419
0.011618
0.0118501
0.0117381
0.0116598
0.0113742
0.0114207
0.0118201
0.0124234
0.0130129
0.0124727
0.0124152
0.012416
0.012299
0.0121014
0.0120901
0.0123249
0.0127116
0.0127742
0.0131721
0.0134063
0.0137275
0.0140096
0.0139566
0.0140721
0.0140478
0.0140892
0.014314
0.0144078
0.0146376
0.0144748
0.014151
0.0136509
0.0134239
0.0133351
)
;

boundaryField
{
    inlet
    {
        type            fixedValue;
        value           uniform 0;
    }
    outlet
    {
        type            zeroGradient;
    }
    yzfaces
    {
        type            empty;
    }
}


// ************************************************************************* //
