/*--------------------------------*- C++ -*----------------------------------*\
| =========                 |                                                 |
| \\      /  F ield         | foam-extend: Open Source CFD                    |
|  \\    /   O peration     | Version:     5.0                                |
|   \\  /    A nd           | Web:         http://www.foam-extend.org         |
|    \\/     M anipulation  |                                                 |
\*---------------------------------------------------------------------------*/
FoamFile
{
    version     2.0;
    format      ascii;
    class       surfaceScalarField;
    location    "90";
    object      phi;
}
// * * * * * * * * * * * * * * * * * * * * * * * * * * * * * * * * * * * * * //

dimensions      [0 3 -1 0 0 0 0];

internalField   nonuniform List<scalar> 
99
(
1.21823e-06
1.22243e-06
1.22557e-06
1.21643e-06
1.22735e-06
1.21238e-06
1.20278e-06
1.19882e-06
1.2118e-06
1.21665e-06
1.21177e-06
1.20982e-06
1.20948e-06
1.19428e-06
1.19522e-06
1.19719e-06
1.19483e-06
1.20938e-06
1.20669e-06
1.20738e-06
1.21133e-06
1.2196e-06
1.21294e-06
1.22494e-06
1.21517e-06
1.21298e-06
1.21836e-06
1.22097e-06
1.21125e-06
1.18815e-06
1.19079e-06
1.20346e-06
1.20933e-06
1.2058e-06
1.19825e-06
1.21106e-06
1.20529e-06
1.21173e-06
1.21992e-06
1.22901e-06
1.23001e-06
1.23318e-06
1.23602e-06
1.23774e-06
1.24645e-06
1.25445e-06
1.24703e-06
1.2558e-06
1.25535e-06
1.26119e-06
1.27612e-06
1.27051e-06
1.27997e-06
1.2772e-06
1.26995e-06
1.28234e-06
1.27975e-06
1.27792e-06
1.27403e-06
1.26976e-06
1.26541e-06
1.26577e-06
1.27721e-06
1.2944e-06
1.29588e-06
1.29523e-06
1.30822e-06
1.3134e-06
1.31652e-06
1.3144e-06
1.31927e-06
1.32795e-06
1.3353e-06
1.33954e-06
1.33753e-06
1.34566e-06
1.35028e-06
1.35817e-06
1.36797e-06
1.35345e-06
1.33181e-06
1.32426e-06
1.3142e-06
1.2976e-06
1.30057e-06
1.2935e-06
1.28956e-06
1.28781e-06
1.26939e-06
1.26833e-06
1.26488e-06
1.2604e-06
1.26914e-06
1.28056e-06
1.28812e-06
1.29161e-06
1.30401e-06
1.30669e-06
1.3103e-06
)
;

boundaryField
{
    inlet
    {
        type            calculated;
        value           uniform -1.225e-06;
    }
    outlet
    {
        type            calculated;
        value           uniform 1.33434e-06;
    }
    yzfaces
    {
        type            empty;
    }
}


// ************************************************************************* //
