/*--------------------------------*- C++ -*----------------------------------*\
| =========                 |                                                 |
| \\      /  F ield         | foam-extend: Open Source CFD                    |
|  \\    /   O peration     | Version:     5.0                                |
|   \\  /    A nd           | Web:         http://www.foam-extend.org         |
|    \\/     M anipulation  |                                                 |
\*---------------------------------------------------------------------------*/
FoamFile
{
    version     2.0;
    format      ascii;
    class       surfaceScalarField;
    location    "90";
    object      phi;
}
// * * * * * * * * * * * * * * * * * * * * * * * * * * * * * * * * * * * * * //

dimensions      [0 3 -1 0 0 0 0];

internalField   nonuniform List<scalar> 
99
(
1.23616e-06
1.22429e-06
1.22559e-06
1.24438e-06
1.23737e-06
1.21722e-06
1.23162e-06
1.21065e-06
1.21288e-06
1.20865e-06
1.23153e-06
1.22411e-06
1.21996e-06
1.21922e-06
1.22328e-06
1.2039e-06
1.21639e-06
1.19153e-06
1.204e-06
1.18701e-06
1.2078e-06
1.18734e-06
1.17887e-06
1.16955e-06
1.1602e-06
1.17009e-06
1.16695e-06
1.17615e-06
1.16047e-06
1.14502e-06
1.15102e-06
1.14439e-06
1.143e-06
1.14447e-06
1.1456e-06
1.15041e-06
1.14311e-06
1.14447e-06
1.14342e-06
1.11562e-06
1.11784e-06
1.12008e-06
1.12412e-06
1.12715e-06
1.11928e-06
1.12321e-06
1.12438e-06
1.11809e-06
1.11409e-06
1.10924e-06
1.10915e-06
1.08776e-06
1.08395e-06
1.07329e-06
1.046e-06
1.02763e-06
1.02223e-06
1.0204e-06
1.01067e-06
1.00458e-06
9.95465e-07
9.80395e-07
9.75015e-07
9.68067e-07
9.61808e-07
9.5632e-07
9.50827e-07
9.43078e-07
9.43094e-07
9.17807e-07
9.21205e-07
9.06457e-07
8.96801e-07
8.84266e-07
8.79541e-07
8.80602e-07
8.77355e-07
8.73414e-07
8.61452e-07
8.5492e-07
8.51453e-07
8.5104e-07
8.51212e-07
8.57676e-07
8.45799e-07
8.44283e-07
8.45942e-07
8.45706e-07
8.56973e-07
8.59274e-07
8.75696e-07
8.80044e-07
8.83921e-07
8.99087e-07
8.98573e-07
9.01061e-07
9.08885e-07
9.20622e-07
9.22149e-07
)
;

boundaryField
{
    inlet
    {
        type            calculated;
        value           uniform -1.225e-06;
    }
    outlet
    {
        type            calculated;
        value           uniform 9.10408e-07;
    }
    yzfaces
    {
        type            empty;
    }
}


// ************************************************************************* //
