/*--------------------------------*- C++ -*----------------------------------*\
| =========                 |                                                 |
| \\      /  F ield         | foam-extend: Open Source CFD                    |
|  \\    /   O peration     | Version:     5.0                                |
|   \\  /    A nd           | Web:         http://www.foam-extend.org         |
|    \\/     M anipulation  |                                                 |
\*---------------------------------------------------------------------------*/
FoamFile
{
    version     2.0;
    format      ascii;
    class       surfaceScalarField;
    location    "90";
    object      phi.water;
}
// * * * * * * * * * * * * * * * * * * * * * * * * * * * * * * * * * * * * * //

dimensions      [0 3 -1 0 0 0 0];

internalField   nonuniform List<scalar> 
99
(
8.49084e-09
1.92099e-08
5.52662e-08
9.73292e-08
1.04512e-07
8.72783e-08
8.54875e-08
9.28607e-08
8.07249e-08
9.51864e-08
8.02706e-08
9.44784e-08
7.96083e-08
9.1632e-08
8.81104e-08
8.50743e-08
8.74233e-08
8.52005e-08
8.83826e-08
8.66953e-08
8.67863e-08
8.81352e-08
8.83815e-08
1.00784e-07
1.26785e-07
1.54304e-07
1.60627e-07
1.94769e-07
1.90533e-07
1.39837e-07
1.41601e-07
1.58989e-07
1.73585e-07
1.77175e-07
1.79331e-07
1.61082e-07
1.54912e-07
1.61611e-07
1.74586e-07
1.75006e-07
1.76991e-07
1.75739e-07
1.63548e-07
1.59732e-07
1.69816e-07
1.77787e-07
1.7481e-07
1.83151e-07
1.79565e-07
1.75166e-07
1.77946e-07
1.47194e-07
1.45397e-07
1.49444e-07
1.49391e-07
1.45722e-07
1.34402e-07
1.35942e-07
1.35265e-07
1.33703e-07
1.45521e-07
1.56988e-07
1.74185e-07
1.67068e-07
1.49653e-07
1.5493e-07
1.50421e-07
1.49903e-07
1.49206e-07
1.44666e-07
1.55095e-07
1.58369e-07
1.6106e-07
1.66916e-07
1.61289e-07
1.72008e-07
1.8296e-07
1.93698e-07
2.04217e-07
2.16624e-07
2.27563e-07
2.51845e-07
2.65245e-07
2.92181e-07
3.09623e-07
3.32299e-07
3.51195e-07
3.6294e-07
3.67177e-07
3.56375e-07
3.65251e-07
3.66211e-07
3.6668e-07
3.69513e-07
3.75117e-07
3.70387e-07
3.68837e-07
3.62994e-07
3.6669e-07
)
;

boundaryField
{
    inlet
    {
        type            fixedValue;
        value           uniform 0;
    }
    outlet
    {
        type            calculated;
        value           uniform 3.76492e-07;
    }
    yzfaces
    {
        type            empty;
    }
}


// ************************************************************************* //
