/*--------------------------------*- C++ -*----------------------------------*\
| =========                 |                                                 |
| \\      /  F ield         | foam-extend: Open Source CFD                    |
|  \\    /   O peration     | Version:     5.0                                |
|   \\  /    A nd           | Web:         http://www.foam-extend.org         |
|    \\/     M anipulation  |                                                 |
\*---------------------------------------------------------------------------*/
FoamFile
{
    version     2.0;
    format      ascii;
    class       volVectorField;
    location    "90";
    object      U.gas;
}
// * * * * * * * * * * * * * * * * * * * * * * * * * * * * * * * * * * * * * //

dimensions      [0 1 -1 0 0 0 0];

internalField   nonuniform List<vector> 
100
(
(0.00519928 0 0)
(0.00542137 0 0)
(0.00576922 0 0)
(0.00615419 0 0)
(0.00617355 0 0)
(0.00599586 0 0)
(0.00607262 0 0)
(0.00598273 0 0)
(0.00599798 0 0)
(0.00592943 0 0)
(0.00604661 0 0)
(0.00602853 0 0)
(0.00604616 0 0)
(0.00599242 0 0)
(0.00604297 0 0)
(0.00595165 0 0)
(0.00597963 0 0)
(0.00591933 0 0)
(0.00591051 0 0)
(0.00589428 0 0)
(0.00589033 0 0)
(0.00591593 0 0)
(0.00586753 0 0)
(0.00595428 0 0)
(0.00610978 0 0)
(0.00633538 0 0)
(0.00646797 0 0)
(0.00656062 0 0)
(0.00634782 0 0)
(0.00605035 0 0)
(0.00600832 0 0)
(0.00610086 0 0)
(0.00623186 0 0)
(0.00629375 0 0)
(0.00631991 0 0)
(0.0063788 0 0)
(0.00635984 0 0)
(0.00637368 0 0)
(0.00617854 0 0)
(0.00592595 0 0)
(0.00584202 0 0)
(0.00581978 0 0)
(0.00590928 0 0)
(0.0061207 0 0)
(0.0061914 0 0)
(0.00625756 0 0)
(0.00631171 0 0)
(0.00622757 0 0)
(0.00611824 0 0)
(0.0060864 0 0)
(0.0060834 0 0)
(0.00605827 0 0)
(0.00597797 0 0)
(0.00593855 0 0)
(0.00581621 0 0)
(0.00568897 0 0)
(0.00568779 0 0)
(0.00563301 0 0)
(0.00556472 0 0)
(0.00547726 0 0)
(0.00532623 0 0)
(0.00526435 0 0)
(0.00515787 0 0)
(0.00512776 0 0)
(0.00507746 0 0)
(0.00505884 0 0)
(0.00508076 0 0)
(0.00506997 0 0)
(0.00502098 0 0)
(0.00496516 0 0)
(0.0049024 0 0)
(0.00486016 0 0)
(0.00481243 0 0)
(0.00480171 0 0)
(0.00480281 0 0)
(0.00479387 0 0)
(0.00485036 0 0)
(0.00485687 0 0)
(0.00483935 0 0)
(0.00486142 0 0)
(0.00496281 0 0)
(0.00507801 0 0)
(0.00516132 0 0)
(0.00525253 0 0)
(0.00528054 0 0)
(0.00533391 0 0)
(0.0054231 0 0)
(0.00543464 0 0)
(0.00550744 0 0)
(0.00556333 0 0)
(0.00563494 0 0)
(0.00573227 0 0)
(0.00578672 0 0)
(0.00583253 0 0)
(0.00590843 0 0)
(0.00588284 0 0)
(0.00593164 0 0)
(0.00596899 0 0)
(0.00599098 0 0)
(0.00589598 0 0)
)
;

boundaryField
{
    inlet
    {
        type            fixedValue;
        value           uniform (0.005 0 0);
    }
    outlet
    {
        type            zeroGradient;
    }
    yzfaces
    {
        type            empty;
    }
}


// ************************************************************************* //
