/*--------------------------------*- C++ -*----------------------------------*\
| =========                 |                                                 |
| \\      /  F ield         | foam-extend: Open Source CFD                    |
|  \\    /   O peration     | Version:     5.0                                |
|   \\  /    A nd           | Web:         http://www.foam-extend.org         |
|    \\/     M anipulation  |                                                 |
\*---------------------------------------------------------------------------*/
FoamFile
{
    version     2.0;
    format      ascii;
    class       volVectorField;
    location    "90";
    object      U.gas;
}
// * * * * * * * * * * * * * * * * * * * * * * * * * * * * * * * * * * * * * //

dimensions      [0 1 -1 0 0 0 0];

internalField   nonuniform List<vector> 
100
(
(0.00516542 0 0)
(0.0053596 0 0)
(0.00579559 0 0)
(0.0061203 0 0)
(0.00613496 0 0)
(0.00601018 0 0)
(0.00595147 0 0)
(0.00595611 0 0)
(0.00589791 0 0)
(0.00602625 0 0)
(0.00593732 0 0)
(0.0060078 0 0)
(0.00591575 0 0)
(0.00596657 0 0)
(0.00589747 0 0)
(0.00588573 0 0)
(0.00589958 0 0)
(0.005911 0 0)
(0.00596193 0 0)
(0.00594566 0 0)
(0.00596088 0 0)
(0.00600522 0 0)
(0.00604657 0 0)
(0.00620224 0 0)
(0.0064435 0 0)
(0.00660788 0 0)
(0.00669146 0 0)
(0.00690858 0 0)
(0.00679347 0 0)
(0.00641529 0 0)
(0.00640291 0 0)
(0.00657042 0 0)
(0.0067121 0 0)
(0.00673849 0 0)
(0.00669305 0 0)
(0.0065794 0 0)
(0.00657847 0 0)
(0.00663671 0 0)
(0.00675087 0 0)
(0.0067912 0 0)
(0.00682139 0 0)
(0.00680139 0 0)
(0.00673971 0 0)
(0.00674067 0 0)
(0.00683753 0 0)
(0.00692929 0 0)
(0.00692343 0 0)
(0.0069644 0 0)
(0.00695483 0 0)
(0.00693011 0 0)
(0.0069438 0 0)
(0.00677526 0 0)
(0.00678035 0 0)
(0.00682392 0 0)
(0.00678777 0 0)
(0.00675086 0 0)
(0.00670588 0 0)
(0.00671012 0 0)
(0.00669676 0 0)
(0.00669028 0 0)
(0.00677269 0 0)
(0.00685416 0 0)
(0.00696749 0 0)
(0.00695779 0 0)
(0.00689813 0 0)
(0.00692747 0 0)
(0.00692218 0 0)
(0.00696022 0 0)
(0.00697595 0 0)
(0.00696478 0 0)
(0.00704262 0 0)
(0.00709627 0 0)
(0.00715989 0 0)
(0.00722053 0 0)
(0.00720938 0 0)
(0.0073092 0 0)
(0.00742653 0 0)
(0.0075401 0 0)
(0.00766932 0 0)
(0.00776556 0 0)
(0.00778629 0 0)
(0.0078735 0 0)
(0.00794474 0 0)
(0.00805635 0 0)
(0.00812402 0 0)
(0.00825707 0 0)
(0.00832661 0 0)
(0.0083705 0 0)
(0.00833623 0 0)
(0.00823365 0 0)
(0.00827765 0 0)
(0.00825041 0 0)
(0.00825352 0 0)
(0.00832215 0 0)
(0.00839992 0 0)
(0.00839796 0 0)
(0.00841904 0 0)
(0.00844175 0 0)
(0.00847742 0 0)
(0.00861398 0 0)
)
;

boundaryField
{
    inlet
    {
        type            fixedValue;
        value           uniform (0.005 0 0);
    }
    outlet
    {
        type            zeroGradient;
    }
    yzfaces
    {
        type            empty;
    }
}


// ************************************************************************* //
