/*--------------------------------*- C++ -*----------------------------------*\
| =========                 |                                                 |
| \\      /  F ield         | foam-extend: Open Source CFD                    |
|  \\    /   O peration     | Version:     5.0                                |
|   \\  /    A nd           | Web:         http://www.foam-extend.org         |
|    \\/     M anipulation  |                                                 |
\*---------------------------------------------------------------------------*/
FoamFile
{
    version     2.0;
    format      ascii;
    class       volVectorField;
    location    "90";
    object      U.water;
}
// * * * * * * * * * * * * * * * * * * * * * * * * * * * * * * * * * * * * * //

dimensions      [0 1 -1 0 0 0 0];

internalField   nonuniform List<vector> 
100
(
(5.2682e-06 0 0)
(1.41989e-05 0 0)
(3.24907e-05 0 0)
(5.95718e-05 0 0)
(8.03811e-05 0 0)
(8.0238e-05 0 0)
(7.11317e-05 0 0)
(7.10972e-05 0 0)
(7.32002e-05 0 0)
(6.93354e-05 0 0)
(7.42532e-05 0 0)
(6.89817e-05 0 0)
(7.36612e-05 0 0)
(6.83498e-05 0 0)
(7.3594e-05 0 0)
(7.11692e-05 0 0)
(6.9959e-05 0 0)
(7.10431e-05 0 0)
(7.03768e-05 0 0)
(7.17085e-05 0 0)
(7.10158e-05 0 0)
(7.17309e-05 0 0)
(7.33975e-05 0 0)
(7.8547e-05 0 0)
(9.28624e-05 0 0)
(0.000113338 0 0)
(0.000130052 0 0)
(0.000141254 0 0)
(0.000154085 0 0)
(0.00014088 0 0)
(0.000116067 0 0)
(0.000122202 0 0)
(0.000134695 0 0)
(0.000142579 0 0)
(0.000143719 0 0)
(0.000140618 0 0)
(0.000130084 0 0)
(0.000129464 0 0)
(0.000136047 0 0)
(0.000142689 0 0)
(0.00014308 0 0)
(0.000143139 0 0)
(0.000139403 0 0)
(0.00013301 0 0)
(0.000134093 0 0)
(0.000141028 0 0)
(0.000144519 0 0)
(0.000145075 0 0)
(0.00014786 0 0)
(0.000144611 0 0)
(0.00014156 0 0)
(0.000135815 0 0)
(0.000119987 0 0)
(0.000119982 0 0)
(0.000121447 0 0)
(0.000120111 0 0)
(0.000115594 0 0)
(0.000110152 0 0)
(0.000110912 0 0)
(0.000111114 0 0)
(0.000113936 0 0)
(0.000123328 0 0)
(0.000132655 0 0)
(0.000138841 0 0)
(0.000131421 0 0)
(0.000123407 0 0)
(0.000124957 0 0)
(0.000122586 0 0)
(0.000121947 0 0)
(0.000121073 0 0)
(0.000121552 0 0)
(0.000127837 0 0)
(0.000130384 0 0)
(0.000133174 0 0)
(0.000135361 0 0)
(0.000135966 0 0)
(0.000144671 0 0)
(0.000153688 0 0)
(0.000162971 0 0)
(0.000172371 0 0)
(0.00018245 0 0)
(0.000195564 0 0)
(0.000212362 0 0)
(0.000226863 0 0)
(0.000246349 0 0)
(0.000261691 0 0)
(0.000278589 0 0)
(0.000291171 0 0)
(0.000297124 0 0)
(0.000296904 0 0)
(0.000293799 0 0)
(0.000298351 0 0)
(0.000299052 0 0)
(0.00030013 0 0)
(0.000302633 0 0)
(0.00030405 0 0)
(0.000301483 0 0)
(0.000299075 0 0)
(0.000297936 0 0)
(0.000301871 0 0)
)
;

boundaryField
{
    inlet
    {
        type            fixedValue;
        value           uniform (0 0 0);
    }
    outlet
    {
        type            zeroGradient;
    }
    yzfaces
    {
        type            empty;
    }
}


// ************************************************************************* //
