/*--------------------------------*- C++ -*----------------------------------*\
| =========                 |                                                 |
| \\      /  F ield         | foam-extend: Open Source CFD                    |
|  \\    /   O peration     | Version:     5.0                                |
|   \\  /    A nd           | Web:         http://www.foam-extend.org         |
|    \\/     M anipulation  |                                                 |
\*---------------------------------------------------------------------------*/
FoamFile
{
    version     2.0;
    format      ascii;
    class       volVectorField;
    location    "90";
    object      U.water;
}
// * * * * * * * * * * * * * * * * * * * * * * * * * * * * * * * * * * * * * //

dimensions      [0 1 -1 0 0 0 0];

internalField   nonuniform List<vector> 
100
(
(5.21e-06 0 0)
(1.46818e-05 0 0)
(3.22203e-05 0 0)
(5.79953e-05 0 0)
(7.84429e-05 0 0)
(7.62286e-05 0 0)
(6.92279e-05 0 0)
(7.45095e-05 0 0)
(6.95747e-05 0 0)
(7.29229e-05 0 0)
(6.98542e-05 0 0)
(7.43062e-05 0 0)
(7.06995e-05 0 0)
(7.33313e-05 0 0)
(7.10724e-05 0 0)
(7.29097e-05 0 0)
(6.95093e-05 0 0)
(7.17746e-05 0 0)
(6.96602e-05 0 0)
(7.09306e-05 0 0)
(7.04563e-05 0 0)
(6.99434e-05 0 0)
(7.11594e-05 0 0)
(7.43461e-05 0 0)
(8.65069e-05 0 0)
(0.000105801 0 0)
(0.000125207 0 0)
(0.000136403 0 0)
(0.000138933 0 0)
(0.000118359 0 0)
(9.98589e-05 0 0)
(0.000100237 0 0)
(0.000110162 0 0)
(0.000122841 0 0)
(0.000128337 0 0)
(0.000131253 0 0)
(0.000134131 0 0)
(0.000133614 0 0)
(0.000132945 0 0)
(0.000113032 0 0)
(9.7219e-05 0 0)
(9.53849e-05 0 0)
(9.41268e-05 0 0)
(0.000103905 0 0)
(0.000119646 0 0)
(0.000128125 0 0)
(0.000135705 0 0)
(0.000137319 0 0)
(0.000129283 0 0)
(0.000121785 0 0)
(0.000121071 0 0)
(0.000121231 0 0)
(0.00012237 0 0)
(0.000120854 0 0)
(0.000118017 0 0)
(0.000114104 0 0)
(0.000114219 0 0)
(0.00011827 0 0)
(0.000113721 0 0)
(0.000109114 0 0)
(0.000103424 0 0)
(9.34241e-05 0 0)
(9.17205e-05 0 0)
(8.7088e-05 0 0)
(8.60878e-05 0 0)
(8.47239e-05 0 0)
(8.64025e-05 0 0)
(8.99262e-05 0 0)
(9.09933e-05 0 0)
(8.7454e-05 0 0)
(8.71716e-05 0 0)
(8.64318e-05 0 0)
(8.4647e-05 0 0)
(8.52614e-05 0 0)
(8.9262e-05 0 0)
(9.2861e-05 0 0)
(9.43188e-05 0 0)
(0.000100018 0 0)
(0.000101484 0 0)
(0.000104659 0 0)
(0.000113792 0 0)
(0.000128225 0 0)
(0.000141439 0 0)
(0.000151675 0 0)
(0.000159526 0 0)
(0.000165839 0 0)
(0.000177649 0 0)
(0.000186826 0 0)
(0.000190758 0 0)
(0.000195937 0 0)
(0.000200695 0 0)
(0.000205596 0 0)
(0.000210194 0 0)
(0.000214354 0 0)
(0.0002151 0 0)
(0.000217631 0 0)
(0.000215914 0 0)
(0.000218233 0 0)
(0.000216954 0 0)
(0.0002114 0 0)
)
;

boundaryField
{
    inlet
    {
        type            fixedValue;
        value           uniform (0 0 0);
    }
    outlet
    {
        type            zeroGradient;
    }
    yzfaces
    {
        type            empty;
    }
}


// ************************************************************************* //
