/*--------------------------------*- C++ -*----------------------------------*\
| =========                 |                                                 |
| \\      /  F ield         | foam-extend: Open Source CFD                    |
|  \\    /   O peration     | Version:     5.0                                |
|   \\  /    A nd           | Web:         http://www.foam-extend.org         |
|    \\/     M anipulation  |                                                 |
\*---------------------------------------------------------------------------*/
FoamFile
{
    version     2.0;
    format      ascii;
    class       volScalarField;
    location    "2.01489652989314";
    object      alpha.gas;
}
// * * * * * * * * * * * * * * * * * * * * * * * * * * * * * * * * * * * * * //

dimensions      [0 0 0 0 0 0 0];

internalField   nonuniform List<scalar> 
100
(
0.133766
0.116075
0.105448
0.0976311
0.0918741
0.086803
0.082379
0.0786428
0.0752688
0.072141
0.0690968
0.0660663
0.0633662
0.0606887
0.0580799
0.055486
0.052733
0.0501278
0.0432425
0.0390618
0.0370716
0.0362747
0.0360587
0.0359773
0.0358068
0.0355232
0.0350731
0.0344607
0.0336914
0.0327544
0.0316779
0.0304493
0.0290513
0.0274969
0.0257535
0.0238675
0.0218542
0.0197663
0.0176921
0.0157523
0.0140622
0.0127111
0.0117215
0.0110463
0.0106169
0.0103565
0.0102032
0.0101161
0.0100636
0.0100343
0.0100183
0.0100094
0.010004
0.00999994
0.0099992
0.00999949
0.0100015
0.0100001
0.0100009
0.0100013
0.00999909
0.00999869
0.00999848
0.00999858
0.0100004
0.0100018
0.0100002
0.0100001
0.0099997
0.0100002
0.0100026
0.0100036
0.0100031
0.0100041
0.0100032
0.0100017
0.0100004
0.0100006
0.0100009
0.010001
0.0100002
0.0100004
0.00999941
0.00999827
0.00999862
0.00999775
0.00999786
0.0099998
0.00999952
0.00999886
0.00999901
0.00999866
0.0100002
0.00999937
0.0100014
0.00999943
0.00999679
0.00999644
0.0099957
0.00999682
)
;

boundaryField
{
    inlet
    {
        type            fixedValue;
        value           uniform 0.2;
    }
    outlet
    {
        type            zeroGradient;
    }
    yzfaces
    {
        type            empty;
    }
}


// ************************************************************************* //
