/*--------------------------------*- C++ -*----------------------------------*\
| =========                 |                                                 |
| \\      /  F ield         | foam-extend: Open Source CFD                    |
|  \\    /   O peration     | Version:     5.0                                |
|   \\  /    A nd           | Web:         http://www.foam-extend.org         |
|    \\/     M anipulation  |                                                 |
\*---------------------------------------------------------------------------*/
FoamFile
{
    version     2.0;
    format      ascii;
    class       volScalarField;
    location    "2.01489652989314";
    object      Cl.water;
}
// * * * * * * * * * * * * * * * * * * * * * * * * * * * * * * * * * * * * * //

dimensions      [0 0 0 0 0 0 0];

internalField   nonuniform List<scalar> 
100
(
0
0.00426767
0.00775846
0.00651534
0.00657502
0.00826945
0.0074271
0.00728622
0.0087329
0.0108861
0.00902516
0.00862193
0.01041
0.0128114
0.00918412
0.00938099
0.0121312
0.0148923
0.00512496
0.0120128
0.0167933
0.0188213
0.0195459
0.0197746
0.0198242
0.0198795
0.0199511
0.0200195
0.0201249
0.020224
0.0203668
0.0205135
0.0206744
0.0208812
0.0210701
0.0213184
0.0215658
0.0218384
0.0220825
0.0223055
0.0225103
0.0226499
0.0227846
0.0228641
0.022909
0.0229448
0.0229811
0.0229839
0.0229973
0.0229859
0.0229825
0.0229909
0.0229867
0.0229867
0.0229885
0.0229946
0.0230197
0.0230114
0.0230282
0.0230167
0.0230297
0.0229987
0.0229993
0.0229891
0.0230014
0.0229992
0.0229915
0.0229956
0.0230056
0.0229871
0.0229829
0.022985
0.0230086
0.0230078
0.0230016
0.0230128
0.0230195
0.0230228
0.0230089
0.0230143
0.0230103
0.023029
0.0230284
0.0230285
0.0230297
0.023011
0.0229951
0.022998
0.0229921
0.0229936
0.023014
0.0230104
0.0230105
0.0229948
0.0229732
0.0229778
0.0229844
0.0229744
0.0229454
0.0229489
)
;

boundaryField
{
    inlet
    {
        type            fixedValue;
        value           uniform 0;
    }
    outlet
    {
        type            zeroGradient;
    }
    yzfaces
    {
        type            empty;
    }
}


// ************************************************************************* //
