/*--------------------------------*- C++ -*----------------------------------*\
| =========                 |                                                 |
| \\      /  F ield         | foam-extend: Open Source CFD                    |
|  \\    /   O peration     | Version:     5.0                                |
|   \\  /    A nd           | Web:         http://www.foam-extend.org         |
|    \\/     M anipulation  |                                                 |
\*---------------------------------------------------------------------------*/
FoamFile
{
    version     2.0;
    format      ascii;
    class       volScalarField;
    location    "2.01489652989314";
    object      CO2.water;
}
// * * * * * * * * * * * * * * * * * * * * * * * * * * * * * * * * * * * * * //

dimensions      [0 0 0 0 0 0 0];

internalField   nonuniform List<scalar> 
100
(
0.00174357
0.00127669
0.00080062
0.00127464
0.0014245
0.00118114
0.00147546
0.00160751
0.00137977
0.000995879
0.00147014
0.00162918
0.00131846
0.000867758
0.00172446
0.00175596
0.00122782
0.000698692
0.00300173
0.00161963
0.000634134
0.000212039
6.45008e-05
1.85107e-05
5.14855e-06
1.42418e-06
3.96726e-07
1.11925e-07
3.18201e-08
8.99241e-09
2.68303e-09
8.44918e-10
2.80559e-10
9.77835e-11
3.56254e-11
1.3556e-11
5.33373e-12
2.16818e-12
9.03727e-13
3.78392e-13
1.58822e-13
6.7097e-14
2.85517e-14
1.18856e-14
4.88468e-15
1.98316e-15
7.90856e-16
3.12384e-16
1.2146e-16
4.65711e-17
1.75808e-17
6.5184e-18
2.36427e-18
8.3289e-19
2.8243e-19
9.04059e-20
2.64011e-20
6.22611e-21
6.62011e-22
0
0
0
0
0
0
0
0
0
0
0
0
0
0
0
0
0
0
0
0
0
0
0
0
0
0
0
0
0
0
0
0
0
0
0
0
0
0
0
0
0
)
;

boundaryField
{
    inlet
    {
        type            fixedValue;
        value           uniform 0;
    }
    outlet
    {
        type            zeroGradient;
    }
    yzfaces
    {
        type            empty;
    }
}


// ************************************************************************* //
