/*--------------------------------*- C++ -*----------------------------------*\
| =========                 |                                                 |
| \\      /  F ield         | foam-extend: Open Source CFD                    |
|  \\    /   O peration     | Version:     5.0                                |
|   \\  /    A nd           | Web:         http://www.foam-extend.org         |
|    \\/     M anipulation  |                                                 |
\*---------------------------------------------------------------------------*/
FoamFile
{
    version     2.0;
    format      ascii;
    class       volScalarField;
    location    "2.01489652989314";
    object      H2O.gas;
}
// * * * * * * * * * * * * * * * * * * * * * * * * * * * * * * * * * * * * * //

dimensions      [0 0 0 0 0 0 0];

internalField   nonuniform List<scalar> 
100
(
3.92231e-11
3.45745e-09
2.58881e-08
1.1012e-07
3.53692e-07
9.33584e-07
2.17495e-06
4.60569e-06
9.01724e-06
1.67926e-05
2.95456e-05
4.95654e-05
8.09743e-05
0.000130138
0.000199189
0.000296596
0.000444315
0.00068307
0.000724708
0.0011623
0.00196318
0.00303251
0.00431688
0.00577755
0.0073673
0.00907807
0.0108794
0.0126833
0.0144633
0.0161096
0.0176116
0.0188512
0.0197647
0.0203347
0.020426
0.020117
0.0193557
0.0182332
0.0168122
0.0152914
0.0138511
0.0126105
0.011682
0.0110312
0.0106049
0.0103476
0.010202
0.0101119
0.0100647
0.0100297
0.0100105
0.0100063
0.00999849
0.00999401
0.00999317
0.00999492
0.0100059
0.00999771
0.0100053
0.0100037
0.0100089
0.00999623
0.00999657
0.00999355
0.00999888
0.00999973
0.00999436
0.00999767
0.0100021
0.01
0.00999734
0.00999953
0.0100126
0.0100098
0.0100052
0.0100087
0.0100104
0.010012
0.0100057
0.0100075
0.0100046
0.0100114
0.010009
0.010008
0.010011
0.0100043
0.00999841
0.00999918
0.00999468
0.00999428
0.0100003
0.00999875
0.0100003
0.00999689
0.00999081
0.00999082
0.00999181
0.00998727
0.00997596
0.00997803
)
;

boundaryField
{
    inlet
    {
        type            fixedValue;
        value           uniform 0;
    }
    outlet
    {
        type            zeroGradient;
    }
    yzfaces
    {
        type            empty;
    }
}


// ************************************************************************* //
