/*--------------------------------*- C++ -*----------------------------------*\
| =========                 |                                                 |
| \\      /  F ield         | foam-extend: Open Source CFD                    |
|  \\    /   O peration     | Version:     5.0                                |
|   \\  /    A nd           | Web:         http://www.foam-extend.org         |
|    \\/     M anipulation  |                                                 |
\*---------------------------------------------------------------------------*/
FoamFile
{
    version     2.0;
    format      ascii;
    class       volScalarField;
    location    "2.01489652989314";
    object      Na.water;
}
// * * * * * * * * * * * * * * * * * * * * * * * * * * * * * * * * * * * * * //

dimensions      [0 0 0 0 0 0 0];

internalField   nonuniform List<scalar> 
100
(
0
0.00426889
0.00776046
0.0065155
0.00657665
0.00827365
0.00742997
0.00728601
0.00872978
0.0108822
0.00902164
0.00862461
0.0104128
0.0128081
0.0091837
0.00937805
0.0121278
0.0148941
0.00512353
0.0120124
0.0167927
0.0188234
0.0195417
0.0197711
0.0198233
0.0198803
0.0199616
0.0200287
0.0201307
0.0202318
0.0203775
0.02052
0.020673
0.0208802
0.0210658
0.0213106
0.0215497
0.0218263
0.0220686
0.0223
0.0225065
0.022643
0.0227752
0.0228572
0.0228976
0.0229292
0.0229645
0.0229686
0.0229822
0.0229718
0.0229664
0.0229796
0.0229803
0.0229844
0.0229889
0.0229963
0.0230174
0.0229974
0.023018
0.023011
0.0230257
0.0229944
0.0230001
0.0229892
0.0229952
0.0229985
0.0229956
0.0229962
0.0230124
0.0230071
0.0229869
0.0229891
0.0230173
0.0230069
0.0229922
0.0230009
0.0230095
0.0230187
0.0230051
0.0230146
0.023009
0.0230236
0.0230172
0.0230187
0.023026
0.0230183
0.023003
0.023004
0.0229896
0.0229914
0.023005
0.0230008
0.0229961
0.0229903
0.0229768
0.022975
0.0229907
0.0229783
0.0229559
0.0229529
)
;

boundaryField
{
    inlet
    {
        type            fixedValue;
        value           uniform 0;
    }
    outlet
    {
        type            zeroGradient;
    }
    yzfaces
    {
        type            empty;
    }
}


// ************************************************************************* //
