/*--------------------------------*- C++ -*----------------------------------*\
| =========                 |                                                 |
| \\      /  F ield         | foam-extend: Open Source CFD                    |
|  \\    /   O peration     | Version:     5.0                                |
|   \\  /    A nd           | Web:         http://www.foam-extend.org         |
|    \\/     M anipulation  |                                                 |
\*---------------------------------------------------------------------------*/
FoamFile
{
    version     2.0;
    format      ascii;
    class       surfaceScalarField;
    location    "2.01489652989314";
    object      phi;
}
// * * * * * * * * * * * * * * * * * * * * * * * * * * * * * * * * * * * * * //

dimensions      [0 3 -1 0 0 0 0];

internalField   nonuniform List<scalar> 
99
(
1.22451e-06
1.23119e-06
1.24491e-06
1.25096e-06
1.25218e-06
1.25148e-06
1.25673e-06
1.25892e-06
1.25683e-06
1.25416e-06
1.25369e-06
1.25593e-06
1.25494e-06
1.25953e-06
1.26043e-06
1.25981e-06
1.26333e-06
1.26299e-06
1.2614e-06
1.26195e-06
1.26058e-06
1.26076e-06
1.26053e-06
1.25958e-06
1.26193e-06
1.26246e-06
1.26339e-06
1.26457e-06
1.26296e-06
1.26469e-06
1.26532e-06
1.26483e-06
1.26529e-06
1.26374e-06
1.2661e-06
1.26797e-06
1.26805e-06
1.26754e-06
1.26965e-06
1.26921e-06
1.26759e-06
1.26822e-06
1.26888e-06
1.26866e-06
1.26868e-06
1.27044e-06
1.26896e-06
1.26963e-06
1.27022e-06
1.2708e-06
1.27127e-06
1.27076e-06
1.26921e-06
1.26799e-06
1.26782e-06
1.26722e-06
1.26627e-06
1.26902e-06
1.26751e-06
1.2677e-06
1.26787e-06
1.26852e-06
1.26658e-06
1.26728e-06
1.26546e-06
1.26388e-06
1.2632e-06
1.2644e-06
1.26348e-06
1.26305e-06
1.26257e-06
1.26387e-06
1.26267e-06
1.2617e-06
1.26333e-06
1.26342e-06
1.26281e-06
1.26204e-06
1.26131e-06
1.26246e-06
1.26319e-06
1.26258e-06
1.26319e-06
1.26101e-06
1.26233e-06
1.26296e-06
1.26167e-06
1.26022e-06
1.25976e-06
1.25961e-06
1.25743e-06
1.25926e-06
1.25826e-06
1.2578e-06
1.25864e-06
1.26014e-06
1.25893e-06
1.25828e-06
1.25834e-06
)
;

boundaryField
{
    inlet
    {
        type            calculated;
        value           uniform -1.225e-06;
    }
    outlet
    {
        type            calculated;
        value           uniform 1.26061e-06;
    }
    yzfaces
    {
        type            empty;
    }
}


// ************************************************************************* //
