/*--------------------------------*- C++ -*----------------------------------*\
| =========                 |                                                 |
| \\      /  F ield         | foam-extend: Open Source CFD                    |
|  \\    /   O peration     | Version:     5.0                                |
|   \\  /    A nd           | Web:         http://www.foam-extend.org         |
|    \\/     M anipulation  |                                                 |
\*---------------------------------------------------------------------------*/
FoamFile
{
    version     2.0;
    format      ascii;
    class       surfaceScalarField;
    location    "2.01489652989314";
    object      phi.water;
}
// * * * * * * * * * * * * * * * * * * * * * * * * * * * * * * * * * * * * * //

dimensions      [0 3 -1 0 0 0 0];

internalField   nonuniform List<scalar> 
99
(
2.23692e-07
3.98136e-07
5.52127e-07
6.97286e-07
8.23633e-07
9.55642e-07
1.09164e-06
1.21899e-06
1.34369e-06
1.47028e-06
1.61007e-06
1.76259e-06
1.90639e-06
2.06797e-06
2.23264e-06
2.40559e-06
2.61543e-06
2.77703e-06
3.39665e-06
3.82875e-06
4.04233e-06
4.13243e-06
4.15254e-06
4.15953e-06
4.18568e-06
4.21136e-06
4.2583e-06
4.32458e-06
4.39757e-06
4.50189e-06
4.61453e-06
4.74121e-06
4.8859e-06
5.03878e-06
5.22225e-06
5.41023e-06
5.59224e-06
5.76701e-06
5.94132e-06
6.07434e-06
6.1722e-06
6.25029e-06
6.29932e-06
6.3289e-06
6.34818e-06
6.36497e-06
6.3623e-06
6.3683e-06
6.37331e-06
6.38019e-06
6.38263e-06
6.37964e-06
6.37301e-06
6.36718e-06
6.36599e-06
6.35963e-06
6.35408e-06
6.3679e-06
6.35884e-06
6.358e-06
6.36049e-06
6.36747e-06
6.35857e-06
6.36203e-06
6.35181e-06
6.34514e-06
6.34205e-06
6.34544e-06
6.34001e-06
6.34037e-06
6.33905e-06
6.34085e-06
6.33177e-06
6.32929e-06
6.33701e-06
6.33507e-06
6.33062e-06
6.32835e-06
6.32627e-06
6.33224e-06
6.33448e-06
6.3296e-06
6.33317e-06
6.32139e-06
6.32901e-06
6.33602e-06
6.33177e-06
6.32613e-06
6.32507e-06
6.32244e-06
6.30997e-06
6.31954e-06
6.31533e-06
6.31642e-06
6.3225e-06
6.32825e-06
6.32244e-06
6.32389e-06
6.32737e-06
)
;

boundaryField
{
    inlet
    {
        type            fixedValue;
        value           uniform 0;
    }
    outlet
    {
        type            calculated;
        value           uniform 6.33838e-06;
    }
    yzfaces
    {
        type            empty;
    }
}


// ************************************************************************* //
