/*--------------------------------*- C++ -*----------------------------------*\
| =========                 |                                                 |
| \\      /  F ield         | foam-extend: Open Source CFD                    |
|  \\    /   O peration     | Version:     5.0                                |
|   \\  /    A nd           | Web:         http://www.foam-extend.org         |
|    \\/     M anipulation  |                                                 |
\*---------------------------------------------------------------------------*/
FoamFile
{
    version     2.0;
    format      ascii;
    class       volScalarField;
    location    "2.01489652989314";
    object      S.gas;
}
// * * * * * * * * * * * * * * * * * * * * * * * * * * * * * * * * * * * * * //

dimensions      [0 0 0 0 0 0 0];

internalField   nonuniform List<scalar> 
100
(
0.66883
0.580373
0.52724
0.488156
0.459371
0.434015
0.411895
0.393214
0.376344
0.360705
0.345484
0.330331
0.316831
0.303444
0.2904
0.27743
0.263665
0.250639
0.216212
0.195309
0.185358
0.181373
0.180293
0.179887
0.179034
0.177616
0.175365
0.172303
0.168457
0.163772
0.158389
0.152247
0.145256
0.137485
0.128767
0.119337
0.109271
0.0988314
0.0884605
0.0787617
0.0703109
0.0635556
0.0586076
0.0552317
0.0530845
0.0517823
0.051016
0.0505804
0.0503182
0.0501713
0.0500917
0.0500468
0.0500199
0.0499997
0.049996
0.0499974
0.0500073
0.0500004
0.0500044
0.0500066
0.0499955
0.0499935
0.0499924
0.0499929
0.0500022
0.050009
0.050001
0.0500006
0.0499985
0.0500011
0.0500129
0.0500181
0.0500156
0.0500205
0.0500159
0.0500087
0.0500022
0.0500028
0.0500046
0.0500049
0.050001
0.0500019
0.049997
0.0499914
0.0499931
0.0499887
0.0499893
0.049999
0.0499976
0.0499943
0.049995
0.0499933
0.0500008
0.0499968
0.0500069
0.0499972
0.0499839
0.0499822
0.0499785
0.0499841
)
;

boundaryField
{
    inlet
    {
        type            calculated;
        value           uniform 1;
    }
    outlet
    {
        type            calculated;
        value           uniform 0.0499841;
    }
    yzfaces
    {
        type            empty;
    }
}


// ************************************************************************* //
