/*--------------------------------*- C++ -*----------------------------------*\
| =========                 |                                                 |
| \\      /  F ield         | foam-extend: Open Source CFD                    |
|  \\    /   O peration     | Version:     5.0                                |
|   \\  /    A nd           | Web:         http://www.foam-extend.org         |
|    \\/     M anipulation  |                                                 |
\*---------------------------------------------------------------------------*/
FoamFile
{
    version     2.0;
    format      ascii;
    class       volVectorField;
    location    "2.01489652989314";
    object      U.gas;
}
// * * * * * * * * * * * * * * * * * * * * * * * * * * * * * * * * * * * * * //

dimensions      [0 1 -1 0 0 0 0];

internalField   nonuniform List<vector> 
100
(
(0.00742299 0 0)
(0.00845122 0 0)
(0.0092365 0 0)
(0.00989987 0 0)
(0.0103883 0 0)
(0.0108249 0 0)
(0.0112352 0 0)
(0.0116016 0 0)
(0.0119095 0 0)
(0.0121726 0 0)
(0.0124375 0 0)
(0.0127247 0 0)
(0.0129534 0 0)
(0.0131958 0 0)
(0.0134265 0 0)
(0.013612 0 0)
(0.013814 0 0)
(0.0139486 0 0)
(0.0147233 0 0)
(0.0142575 0 0)
(0.0136884 0 0)
(0.0133363 0 0)
(0.0131761 0 0)
(0.0131291 0 0)
(0.0131373 0 0)
(0.0131478 0 0)
(0.0131419 0 0)
(0.0131131 0 0)
(0.013046 0 0)
(0.0129514 0 0)
(0.012826 0 0)
(0.0126517 0 0)
(0.0124263 0 0)
(0.0121267 0 0)
(0.0117623 0 0)
(0.0113103 0 0)
(0.0107434 0 0)
(0.0100563 0 0)
(0.00927381 0 0)
(0.00842555 0 0)
(0.00756309 0 0)
(0.00677577 0 0)
(0.00613318 0 0)
(0.00565396 0 0)
(0.00532282 0 0)
(0.00511647 0 0)
(0.00499119 0 0)
(0.00491501 0 0)
(0.00487534 0 0)
(0.00485241 0 0)
(0.00483986 0 0)
(0.00483216 0 0)
(0.00482376 0 0)
(0.00481609 0 0)
(0.00481154 0 0)
(0.00480961 0 0)
(0.00480698 0 0)
(0.00481158 0 0)
(0.00481303 0 0)
(0.0048105 0 0)
(0.00481148 0 0)
(0.00481192 0 0)
(0.00480953 0 0)
(0.00480706 0 0)
(0.00480532 0 0)
(0.00480046 0 0)
(0.00479582 0 0)
(0.00479497 0 0)
(0.00479632 0 0)
(0.00479385 0 0)
(0.00479228 0 0)
(0.00479536 0 0)
(0.00479614 0 0)
(0.00479109 0 0)
(0.00479295 0 0)
(0.00479605 0 0)
(0.00479391 0 0)
(0.00479108 0 0)
(0.00478839 0 0)
(0.00478867 0 0)
(0.00479202 0 0)
(0.00479296 0 0)
(0.00479299 0 0)
(0.00478895 0 0)
(0.00478689 0 0)
(0.00479059 0 0)
(0.00478918 0 0)
(0.00478431 0 0)
(0.00478168 0 0)
(0.00478003 0 0)
(0.00477491 0 0)
(0.00477457 0 0)
(0.00477595 0 0)
(0.00477388 0 0)
(0.00477434 0 0)
(0.00477989 0 0)
(0.00477999 0 0)
(0.0047751 0 0)
(0.0047731 0 0)
(0.00477679 0 0)
)
;

boundaryField
{
    inlet
    {
        type            fixedValue;
        value           uniform (0.005 0 0);
    }
    outlet
    {
        type            zeroGradient;
    }
    yzfaces
    {
        type            empty;
    }
}


// ************************************************************************* //
