/*--------------------------------*- C++ -*----------------------------------*\
| =========                 |                                                 |
| \\      /  F ield         | foam-extend: Open Source CFD                    |
|  \\    /   O peration     | Version:     5.0                                |
|   \\  /    A nd           | Web:         http://www.foam-extend.org         |
|    \\/     M anipulation  |                                                 |
\*---------------------------------------------------------------------------*/
FoamFile
{
    version     2.0;
    format      ascii;
    class       volVectorField;
    location    "2.01489652989314";
    object      U.water;
}
// * * * * * * * * * * * * * * * * * * * * * * * * * * * * * * * * * * * * * //

dimensions      [0 1 -1 0 0 0 0];

internalField   nonuniform List<vector> 
100
(
(0.000103545 0 0)
(0.000254458 0 0)
(0.000387981 0 0)
(0.00050982 0 0)
(0.00062219 0 0)
(0.000726804 0 0)
(0.000835022 0 0)
(0.000942766 0 0)
(0.00104561 0 0)
(0.00114774 0 0)
(0.0012545 0 0)
(0.00137131 0 0)
(0.00149333 0 0)
(0.00161854 0 0)
(0.0017527 0 0)
(0.00189182 0 0)
(0.00204663 0 0)
(0.00221481 0 0)
(0.00251147 0 0)
(0.00293912 0 0)
(0.00320481 0 0)
(0.00333088 0 0)
(0.00337918 0 0)
(0.00339141 0 0)
(0.00340322 0 0)
(0.00342489 0 0)
(0.00345628 0 0)
(0.00350331 0 0)
(0.00356032 0 0)
(0.00363228 0 0)
(0.00372119 0 0)
(0.00381881 0 0)
(0.00392926 0 0)
(0.004051 0 0)
(0.00418755 0 0)
(0.00433972 0 0)
(0.00449251 0 0)
(0.0046393 0 0)
(0.00478044 0 0)
(0.00490398 0 0)
(0.0049967 0 0)
(0.00506648 0 0)
(0.00511827 0 0)
(0.00515085 0 0)
(0.00517013 0 0)
(0.00518544 0 0)
(0.00519273 0 0)
(0.00519496 0 0)
(0.00519969 0 0)
(0.00520337 0 0)
(0.00520625 0 0)
(0.00520654 0 0)
(0.00520256 0 0)
(0.00519702 0 0)
(0.00519427 0 0)
(0.00519272 0 0)
(0.00518953 0 0)
(0.00519316 0 0)
(0.00519574 0 0)
(0.00519302 0 0)
(0.00519373 0 0)
(0.00519547 0 0)
(0.00519283 0 0)
(0.00519032 0 0)
(0.005188 0 0)
(0.00518095 0 0)
(0.00517633 0 0)
(0.00517749 0 0)
(0.00517802 0 0)
(0.00517524 0 0)
(0.00517338 0 0)
(0.00517498 0 0)
(0.00517516 0 0)
(0.00517077 0 0)
(0.00517209 0 0)
(0.00517563 0 0)
(0.00517461 0 0)
(0.00517178 0 0)
(0.0051687 0 0)
(0.0051696 0 0)
(0.00517348 0 0)
(0.00517367 0 0)
(0.00517365 0 0)
(0.00517049 0 0)
(0.00516875 0 0)
(0.00517275 0 0)
(0.00517142 0 0)
(0.00516579 0 0)
(0.00516184 0 0)
(0.00516061 0 0)
(0.00515586 0 0)
(0.00515511 0 0)
(0.00515684 0 0)
(0.00515381 0 0)
(0.00515461 0 0)
(0.00515935 0 0)
(0.00515995 0 0)
(0.00515621 0 0)
(0.00515506 0 0)
(0.00515986 0 0)
)
;

boundaryField
{
    inlet
    {
        type            fixedValue;
        value           uniform (0 0 0);
    }
    outlet
    {
        type            zeroGradient;
    }
    yzfaces
    {
        type            empty;
    }
}


// ************************************************************************* //
