/*--------------------------------*- C++ -*----------------------------------*\
| =========                 |                                                 |
| \\      /  F ield         | foam-extend: Open Source CFD                    |
|  \\    /   O peration     | Version:     5.0                                |
|   \\  /    A nd           | Web:         http://www.foam-extend.org         |
|    \\/     M anipulation  |                                                 |
\*---------------------------------------------------------------------------*/
FoamFile
{
    version     2.0;
    format      ascii;
    class       volScalarField;
    location    "2";
    object      alpha.gas;
}
// * * * * * * * * * * * * * * * * * * * * * * * * * * * * * * * * * * * * * //

dimensions      [0 0 0 0 0 0 0];

internalField   nonuniform List<scalar> 
100
(
0.133624
0.115913
0.105523
0.0978983
0.0918091
0.0865148
0.0822733
0.0784719
0.0750707
0.0720995
0.0692004
0.0666225
0.0642375
0.0619836
0.0594754
0.0570749
0.0544507
0.0518861
0.0494179
0.0414133
0.0373192
0.0359116
0.0357648
0.0359705
0.0360817
0.0358994
0.03546
0.0348112
0.0339573
0.032889
0.0316698
0.030274
0.0287025
0.0269413
0.0250047
0.022884
0.020648
0.0183767
0.0162138
0.0143263
0.0128152
0.0117221
0.0110071
0.0105687
0.0103164
0.0101736
0.0100955
0.0100514
0.0100269
0.0100133
0.010007
0.0100026
0.0100014
0.0100008
0.0100024
0.0100026
0.0100022
0.0100016
0.0100015
0.0100005
0.0100005
0.0100005
0.0100012
0.0100003
0.0100029
0.0100017
0.010002
0.0100014
0.0100013
0.0100032
0.0100043
0.0100028
0.0100039
0.010003
0.0100019
0.0100018
0.0100013
0.0100029
0.0100024
0.0100009
0.0100011
0.0100022
0.0100021
0.0100029
0.0100031
0.0100035
0.0100041
0.010005
0.0100037
0.0100028
0.0100035
0.0100046
0.0100034
0.0100043
0.0100035
0.0100023
0.010004
0.0100042
0.0100034
0.0100084
)
;

boundaryField
{
    inlet
    {
        type            fixedValue;
        value           uniform 0.2;
    }
    outlet
    {
        type            zeroGradient;
    }
    yzfaces
    {
        type            empty;
    }
}


// ************************************************************************* //
