/*--------------------------------*- C++ -*----------------------------------*\
| =========                 |                                                 |
| \\      /  F ield         | foam-extend: Open Source CFD                    |
|  \\    /   O peration     | Version:     5.0                                |
|   \\  /    A nd           | Web:         http://www.foam-extend.org         |
|    \\/     M anipulation  |                                                 |
\*---------------------------------------------------------------------------*/
FoamFile
{
    version     2.0;
    format      ascii;
    class       volScalarField;
    location    "2";
    object      Cl.water;
}
// * * * * * * * * * * * * * * * * * * * * * * * * * * * * * * * * * * * * * //

dimensions      [0 0 0 0 0 0 0];

internalField   nonuniform List<scalar> 
100
(
0
0.0041473
0.00759414
0.0100789
0.00863503
0.00779579
0.0087243
0.010509
0.0123107
0.0105571
0.00933126
0.0102113
0.0121568
0.0140471
0.010021
0.00962375
0.012048
0.0147333
0.0166414
0.00504812
0.012639
0.0173983
0.0191626
0.019675
0.0198099
0.0198312
0.0199095
0.0199982
0.0201047
0.0202244
0.0203746
0.0205212
0.0207074
0.0209492
0.0211745
0.0214219
0.0217203
0.0219594
0.0222366
0.0224618
0.022647
0.0227852
0.0228791
0.0229303
0.0229506
0.02297
0.0229837
0.0229972
0.0229826
0.0229903
0.0230001
0.0230016
0.0229922
0.0230078
0.0230059
0.0230045
0.0230054
0.0230143
0.0230203
0.0230121
0.0229992
0.0229936
0.0229881
0.0230003
0.0229972
0.0229951
0.0229984
0.0230081
0.0230099
0.0230068
0.0229993
0.0230077
0.0230115
0.023004
0.02298
0.0229767
0.0229883
0.0230104
0.0230051
0.0230139
0.0229958
0.0229941
0.0229877
0.0229823
0.0230074
0.0229974
0.0230177
0.0229947
0.0229858
0.0229868
0.0229801
0.0229923
0.0229841
0.022989
0.022978
0.0229872
0.0229964
0.0230021
0.0229894
0.0229933
)
;

boundaryField
{
    inlet
    {
        type            fixedValue;
        value           uniform 0;
    }
    outlet
    {
        type            zeroGradient;
    }
    yzfaces
    {
        type            empty;
    }
}


// ************************************************************************* //
