/*--------------------------------*- C++ -*----------------------------------*\
| =========                 |                                                 |
| \\      /  F ield         | foam-extend: Open Source CFD                    |
|  \\    /   O peration     | Version:     5.0                                |
|   \\  /    A nd           | Web:         http://www.foam-extend.org         |
|    \\/     M anipulation  |                                                 |
\*---------------------------------------------------------------------------*/
FoamFile
{
    version     2.0;
    format      ascii;
    class       volScalarField;
    location    "2";
    object      CO2.water;
}
// * * * * * * * * * * * * * * * * * * * * * * * * * * * * * * * * * * * * * //

dimensions      [0 0 0 0 0 0 0];

internalField   nonuniform List<scalar> 
100
(
0.00174372
0.00130404
0.00083389
0.000497513
0.000970683
0.00128348
0.00120026
0.000910025
0.000605044
0.00106787
0.00140542
0.00128685
0.000929941
0.000575402
0.0015134
0.00167358
0.00120829
0.000697376
0.000349064
0.00306636
0.00152947
0.000537171
0.000155971
4.01869e-05
9.66925e-06
2.25424e-06
5.24775e-07
1.17772e-07
2.39486e-08
4.24025e-09
9.05623e-10
2.5071e-10
7.05926e-11
2.02184e-11
5.91454e-12
1.76465e-12
5.35293e-13
1.65104e-13
5.15972e-14
1.6219e-14
5.08723e-15
1.57691e-15
4.76876e-16
1.38185e-16
3.71944e-17
8.68587e-18
1.34165e-18
0
0
0
0
0
0
0
0
0
0
0
0
0
0
0
0
0
0
0
0
0
0
0
0
0
0
0
0
0
0
0
0
0
0
0
0
0
0
0
0
0
0
0
0
0
0
0
0
0
0
0
0
0
)
;

boundaryField
{
    inlet
    {
        type            fixedValue;
        value           uniform 0;
    }
    outlet
    {
        type            zeroGradient;
    }
    yzfaces
    {
        type            empty;
    }
}


// ************************************************************************* //
