/*--------------------------------*- C++ -*----------------------------------*\
| =========                 |                                                 |
| \\      /  F ield         | foam-extend: Open Source CFD                    |
|  \\    /   O peration     | Version:     5.0                                |
|   \\  /    A nd           | Web:         http://www.foam-extend.org         |
|    \\/     M anipulation  |                                                 |
\*---------------------------------------------------------------------------*/
FoamFile
{
    version     2.0;
    format      ascii;
    class       volScalarField;
    location    "2";
    object      H2O.gas;
}
// * * * * * * * * * * * * * * * * * * * * * * * * * * * * * * * * * * * * * //

dimensions      [0 0 0 0 0 0 0];

internalField   nonuniform List<scalar> 
100
(
1.64846e-11
2.14464e-09
1.65218e-08
7.67475e-08
2.67397e-07
7.59301e-07
1.88918e-06
4.21726e-06
8.69833e-06
1.69044e-05
3.08524e-05
5.37128e-05
8.98222e-05
0.000145868
0.000225276
0.000335817
0.000490497
0.000728174
0.00109214
0.00108955
0.00172823
0.00283233
0.00422992
0.00584586
0.00762998
0.00950225
0.011466
0.0134408
0.0153455
0.0170747
0.0185839
0.0197525
0.0205427
0.0209098
0.0207399
0.0200408
0.0189125
0.0173795
0.0157141
0.0140945
0.0127226
0.0116909
0.0110017
0.0105678
0.0103141
0.0101723
0.0100962
0.0100584
0.0100268
0.0100175
0.0100131
0.0100099
0.0100063
0.010011
0.0100111
0.0100095
0.0100065
0.010007
0.0100096
0.0100045
0.0100012
0.00999601
0.00999226
0.0099955
0.00999537
0.00999482
0.00999809
0.0100018
0.010002
0.0100038
0.0100008
0.0100056
0.0100085
0.010006
0.00999674
0.00999548
0.0100002
0.0100089
0.0100049
0.0100077
0.00999747
0.00999628
0.00999552
0.00999488
0.0100049
0.00999991
0.0100081
0.00999944
0.00999605
0.00999989
0.00999532
0.0100001
0.00999545
0.00999841
0.00999277
0.00999417
0.00999881
0.0100041
0.00999828
0.0100054
)
;

boundaryField
{
    inlet
    {
        type            fixedValue;
        value           uniform 0;
    }
    outlet
    {
        type            zeroGradient;
    }
    yzfaces
    {
        type            empty;
    }
}


// ************************************************************************* //
