/*--------------------------------*- C++ -*----------------------------------*\
| =========                 |                                                 |
| \\      /  F ield         | foam-extend: Open Source CFD                    |
|  \\    /   O peration     | Version:     5.0                                |
|   \\  /    A nd           | Web:         http://www.foam-extend.org         |
|    \\/     M anipulation  |                                                 |
\*---------------------------------------------------------------------------*/
FoamFile
{
    version     2.0;
    format      ascii;
    class       volScalarField;
    location    "2";
    object      Na.water;
}
// * * * * * * * * * * * * * * * * * * * * * * * * * * * * * * * * * * * * * //

dimensions      [0 0 0 0 0 0 0];

internalField   nonuniform List<scalar> 
100
(
0
0.00414608
0.00759301
0.0100728
0.00863792
0.00779998
0.00872463
0.0105077
0.0123122
0.0105573
0.00932923
0.0102061
0.0121455
0.0140384
0.0100168
0.00962138
0.0120507
0.0147384
0.0166459
0.00504741
0.0126412
0.0173993
0.0191657
0.0196732
0.0198045
0.0198218
0.019903
0.0199956
0.0201029
0.02022
0.0203674
0.0205156
0.0207036
0.0209457
0.0211785
0.0214279
0.0217201
0.0219666
0.0222495
0.0224704
0.0226587
0.0227905
0.0228843
0.0229359
0.0229665
0.02298
0.022992
0.0230062
0.0229942
0.0230086
0.0230134
0.023014
0.0230054
0.0230216
0.023024
0.023022
0.0230153
0.0230236
0.0230319
0.0230228
0.0230122
0.0229964
0.0229863
0.0229979
0.0229961
0.0229958
0.022998
0.0230015
0.0229985
0.0230014
0.0229991
0.0230058
0.0230086
0.0229994
0.0229805
0.0229735
0.022991
0.0230111
0.0230011
0.0230132
0.0229923
0.0229948
0.0229952
0.0229915
0.0230088
0.0230025
0.0230159
0.0229958
0.0229959
0.0229996
0.0229822
0.0229867
0.0229783
0.0229871
0.0229728
0.0229753
0.0229788
0.0229942
0.0229856
0.022999
)
;

boundaryField
{
    inlet
    {
        type            fixedValue;
        value           uniform 0;
    }
    outlet
    {
        type            zeroGradient;
    }
    yzfaces
    {
        type            empty;
    }
}


// ************************************************************************* //
