/*--------------------------------*- C++ -*----------------------------------*\
| =========                 |                                                 |
| \\      /  F ield         | foam-extend: Open Source CFD                    |
|  \\    /   O peration     | Version:     5.0                                |
|   \\  /    A nd           | Web:         http://www.foam-extend.org         |
|    \\/     M anipulation  |                                                 |
\*---------------------------------------------------------------------------*/
FoamFile
{
    version     2.0;
    format      ascii;
    class       surfaceScalarField;
    location    "2";
    object      phi;
}
// * * * * * * * * * * * * * * * * * * * * * * * * * * * * * * * * * * * * * //

dimensions      [0 3 -1 0 0 0 0];

internalField   nonuniform List<scalar> 
99
(
1.22393e-06
1.23888e-06
1.24695e-06
1.24855e-06
1.24477e-06
1.25182e-06
1.24899e-06
1.24536e-06
1.24613e-06
1.24623e-06
1.24746e-06
1.24939e-06
1.25072e-06
1.24589e-06
1.24863e-06
1.24524e-06
1.24528e-06
1.24265e-06
1.24197e-06
1.24147e-06
1.24268e-06
1.24165e-06
1.23983e-06
1.24033e-06
1.23779e-06
1.23859e-06
1.24019e-06
1.23891e-06
1.23823e-06
1.23813e-06
1.23822e-06
1.23944e-06
1.23992e-06
1.2404e-06
1.24032e-06
1.24019e-06
1.2399e-06
1.23924e-06
1.23988e-06
1.24016e-06
1.23965e-06
1.24196e-06
1.24042e-06
1.23898e-06
1.2396e-06
1.23715e-06
1.23765e-06
1.23671e-06
1.23773e-06
1.23925e-06
1.2412e-06
1.24056e-06
1.24119e-06
1.241e-06
1.24081e-06
1.24002e-06
1.24065e-06
1.23998e-06
1.24057e-06
1.23851e-06
1.23838e-06
1.23711e-06
1.23784e-06
1.23836e-06
1.2383e-06
1.2405e-06
1.24081e-06
1.24115e-06
1.24195e-06
1.24092e-06
1.24297e-06
1.24632e-06
1.24484e-06
1.24438e-06
1.24562e-06
1.2464e-06
1.24741e-06
1.24581e-06
1.24694e-06
1.24538e-06
1.24543e-06
1.24749e-06
1.24845e-06
1.24911e-06
1.25079e-06
1.25217e-06
1.25203e-06
1.25244e-06
1.25296e-06
1.25168e-06
1.25194e-06
1.25038e-06
1.25059e-06
1.24889e-06
1.25111e-06
1.25241e-06
1.25336e-06
1.25322e-06
1.25285e-06
)
;

boundaryField
{
    inlet
    {
        type            calculated;
        value           uniform -1.225e-06;
    }
    outlet
    {
        type            calculated;
        value           uniform 1.25354e-06;
    }
    yzfaces
    {
        type            empty;
    }
}


// ************************************************************************* //
