/*--------------------------------*- C++ -*----------------------------------*\
| =========                 |                                                 |
| \\      /  F ield         | foam-extend: Open Source CFD                    |
|  \\    /   O peration     | Version:     5.0                                |
|   \\  /    A nd           | Web:         http://www.foam-extend.org         |
|    \\/     M anipulation  |                                                 |
\*---------------------------------------------------------------------------*/
FoamFile
{
    version     2.0;
    format      ascii;
    class       surfaceScalarField;
    location    "2";
    object      phi.water;
}
// * * * * * * * * * * * * * * * * * * * * * * * * * * * * * * * * * * * * * //

dimensions      [0 3 -1 0 0 0 0];

internalField   nonuniform List<scalar> 
99
(
2.25143e-07
4.03034e-07
5.5202e-07
6.89528e-07
8.2241e-07
9.65603e-07
1.08871e-06
1.21299e-06
1.34203e-06
1.46265e-06
1.59532e-06
1.72298e-06
1.84915e-06
1.96882e-06
2.12082e-06
2.26565e-06
2.44844e-06
2.62998e-06
2.77393e-06
3.5137e-06
3.94651e-06
4.10174e-06
4.11631e-06
4.09489e-06
4.07527e-06
4.09543e-06
4.14102e-06
4.19988e-06
4.28335e-06
4.39236e-06
4.51833e-06
4.66582e-06
4.82332e-06
4.99656e-06
5.18498e-06
5.37862e-06
5.57134e-06
5.75037e-06
5.90569e-06
6.02431e-06
6.1011e-06
6.16237e-06
6.18458e-06
6.19665e-06
6.21023e-06
6.20243e-06
6.20528e-06
6.20245e-06
6.20924e-06
6.21546e-06
6.22456e-06
6.22194e-06
6.22417e-06
6.22204e-06
6.22206e-06
6.21942e-06
6.22309e-06
6.21857e-06
6.2219e-06
6.21403e-06
6.21602e-06
6.2126e-06
6.21628e-06
6.21859e-06
6.2187e-06
6.22876e-06
6.22806e-06
6.22832e-06
6.2323e-06
6.22838e-06
6.23786e-06
6.25231e-06
6.24472e-06
6.24551e-06
6.25461e-06
6.25738e-06
6.25863e-06
6.24931e-06
6.25471e-06
6.24892e-06
6.25312e-06
6.26444e-06
6.26985e-06
6.27058e-06
6.27761e-06
6.28381e-06
6.28371e-06
6.28929e-06
6.29127e-06
6.28502e-06
6.28666e-06
6.27877e-06
6.2803e-06
6.27264e-06
6.28457e-06
6.28935e-06
6.29155e-06
6.29077e-06
6.2899e-06
)
;

boundaryField
{
    inlet
    {
        type            fixedValue;
        value           uniform 0;
    }
    outlet
    {
        type            calculated;
        value           uniform 6.29277e-06;
    }
    yzfaces
    {
        type            empty;
    }
}


// ************************************************************************* //
