/*--------------------------------*- C++ -*----------------------------------*\
| =========                 |                                                 |
| \\      /  F ield         | foam-extend: Open Source CFD                    |
|  \\    /   O peration     | Version:     5.0                                |
|   \\  /    A nd           | Web:         http://www.foam-extend.org         |
|    \\/     M anipulation  |                                                 |
\*---------------------------------------------------------------------------*/
FoamFile
{
    version     2.0;
    format      ascii;
    class       volScalarField;
    location    "2";
    object      S.gas;
}
// * * * * * * * * * * * * * * * * * * * * * * * * * * * * * * * * * * * * * //

dimensions      [0 0 0 0 0 0 0];

internalField   nonuniform List<scalar> 
100
(
0.668122
0.579563
0.527616
0.489492
0.459045
0.432574
0.411367
0.392359
0.375354
0.360497
0.346002
0.333112
0.321188
0.309918
0.297377
0.285375
0.272254
0.259431
0.247089
0.207066
0.186596
0.179558
0.178824
0.179853
0.180409
0.179497
0.1773
0.174056
0.169787
0.164445
0.158349
0.15137
0.143513
0.134706
0.125023
0.11442
0.10324
0.0918833
0.0810688
0.0716317
0.0640759
0.0586103
0.0550353
0.0528437
0.0515821
0.0508682
0.0504774
0.0502571
0.0501345
0.0500665
0.0500348
0.050013
0.0500071
0.0500039
0.0500122
0.050013
0.0500111
0.0500082
0.0500074
0.0500027
0.0500026
0.0500026
0.050006
0.0500015
0.0500143
0.0500083
0.0500101
0.0500072
0.0500066
0.0500162
0.0500213
0.0500139
0.0500194
0.0500149
0.0500093
0.0500088
0.0500067
0.0500146
0.0500119
0.0500043
0.0500056
0.0500108
0.0500103
0.0500145
0.0500157
0.0500175
0.0500204
0.050025
0.0500184
0.0500142
0.0500173
0.0500228
0.0500168
0.0500215
0.0500175
0.0500117
0.0500202
0.0500209
0.0500169
0.0500421
)
;

boundaryField
{
    inlet
    {
        type            calculated;
        value           uniform 1;
    }
    outlet
    {
        type            calculated;
        value           uniform 0.0500421;
    }
    yzfaces
    {
        type            empty;
    }
}


// ************************************************************************* //
