/*--------------------------------*- C++ -*----------------------------------*\
| =========                 |                                                 |
| \\      /  F ield         | foam-extend: Open Source CFD                    |
|  \\    /   O peration     | Version:     5.0                                |
|   \\  /    A nd           | Web:         http://www.foam-extend.org         |
|    \\/     M anipulation  |                                                 |
\*---------------------------------------------------------------------------*/
FoamFile
{
    version     2.0;
    format      ascii;
    class       volVectorField;
    location    "2";
    object      U.gas;
}
// * * * * * * * * * * * * * * * * * * * * * * * * * * * * * * * * * * * * * //

dimensions      [0 1 -1 0 0 0 0];

internalField   nonuniform List<vector> 
100
(
(0.00742872 0 0)
(0.00848618 0 0)
(0.0092663 0 0)
(0.00987575 0 0)
(0.0103573 0 0)
(0.0108227 0 0)
(0.0112076 0 0)
(0.0115204 0 0)
(0.0118132 0 0)
(0.0120805 0 0)
(0.0123523 0 0)
(0.012587 0 0)
(0.0128045 0 0)
(0.0129694 0 0)
(0.0131745 0 0)
(0.0133441 0 0)
(0.0135205 0 0)
(0.013648 0 0)
(0.0137303 0 0)
(0.0146876 0 0)
(0.0139437 0 0)
(0.0132479 0 0)
(0.0129177 0 0)
(0.0128515 0 0)
(0.0128765 0 0)
(0.0129157 0 0)
(0.0129385 0 0)
(0.0129119 0 0)
(0.0128419 0 0)
(0.0127421 0 0)
(0.0125914 0 0)
(0.0124058 0 0)
(0.0121576 0 0)
(0.0118294 0 0)
(0.0114043 0 0)
(0.0108691 0 0)
(0.0102027 0 0)
(0.00941159 0 0)
(0.00852372 0 0)
(0.00760745 0 0)
(0.00675528 0 0)
(0.00605077 0 0)
(0.00553172 0 0)
(0.00518435 0 0)
(0.00497302 0 0)
(0.00484981 0 0)
(0.00477838 0 0)
(0.00474003 0 0)
(0.00471952 0 0)
(0.00471275 0 0)
(0.00471227 0 0)
(0.00471133 0 0)
(0.00470974 0 0)
(0.00471064 0 0)
(0.00470959 0 0)
(0.00470868 0 0)
(0.00470845 0 0)
(0.00470791 0 0)
(0.0047077 0 0)
(0.00470451 0 0)
(0.00469934 0 0)
(0.00469685 0 0)
(0.00469619 0 0)
(0.00469884 0 0)
(0.00469969 0 0)
(0.00470525 0 0)
(0.00470869 0 0)
(0.00470986 0 0)
(0.00471201 0 0)
(0.00471156 0 0)
(0.00471457 0 0)
(0.00472504 0 0)
(0.00472766 0 0)
(0.00472437 0 0)
(0.00472596 0 0)
(0.00472911 0 0)
(0.00473186 0 0)
(0.00473132 0 0)
(0.00473143 0 0)
(0.00473012 0 0)
(0.0047267 0 0)
(0.00473029 0 0)
(0.00473615 0 0)
(0.00473967 0 0)
(0.00474425 0 0)
(0.00474995 0 0)
(0.00475261 0 0)
(0.00475424 0 0)
(0.00475601 0 0)
(0.00475321 0 0)
(0.00475195 0 0)
(0.00474981 0 0)
(0.00474766 0 0)
(0.00474451 0 0)
(0.00474526 0 0)
(0.0047517 0 0)
(0.00475591 0 0)
(0.00475823 0 0)
(0.00475762 0 0)
(0.00475598 0 0)
)
;

boundaryField
{
    inlet
    {
        type            fixedValue;
        value           uniform (0.005 0 0);
    }
    outlet
    {
        type            zeroGradient;
    }
    yzfaces
    {
        type            empty;
    }
}


// ************************************************************************* //
