/*--------------------------------*- C++ -*----------------------------------*\
| =========                 |                                                 |
| \\      /  F ield         | foam-extend: Open Source CFD                    |
|  \\    /   O peration     | Version:     5.0                                |
|   \\  /    A nd           | Web:         http://www.foam-extend.org         |
|    \\/     M anipulation  |                                                 |
\*---------------------------------------------------------------------------*/
FoamFile
{
    version     2.0;
    format      ascii;
    class       volVectorField;
    location    "2";
    object      U.water;
}
// * * * * * * * * * * * * * * * * * * * * * * * * * * * * * * * * * * * * * //

dimensions      [0 1 -1 0 0 0 0];

internalField   nonuniform List<vector> 
100
(
(0.000104029 0 0)
(0.000256576 0 0)
(0.000389691 0 0)
(0.000506887 0 0)
(0.000617288 0 0)
(0.000728651 0 0)
(0.000837952 0 0)
(0.000938656 0 0)
(0.00104141 0 0)
(0.00114381 0 0)
(0.00124653 0 0)
(0.00135365 0 0)
(0.00145786 0 0)
(0.00155874 0 0)
(0.00166954 0 0)
(0.0017932 0 0)
(0.00192607 0 0)
(0.00207502 0 0)
(0.00222875 0 0)
(0.00255625 0 0)
(0.00303397 0 0)
(0.00328029 0 0)
(0.00335402 0 0)
(0.00335327 0 0)
(0.00333622 0 0)
(0.00333392 0 0)
(0.00336056 0 0)
(0.00340459 0 0)
(0.00346296 0 0)
(0.00354066 0 0)
(0.00363564 0 0)
(0.00374556 0 0)
(0.00387063 0 0)
(0.00400835 0 0)
(0.00415657 0 0)
(0.004312 0 0)
(0.00446951 0 0)
(0.00461912 0 0)
(0.0047538 0 0)
(0.00486485 0 0)
(0.00494482 0 0)
(0.00500311 0 0)
(0.00503897 0 0)
(0.00505306 0 0)
(0.00506297 0 0)
(0.00506557 0 0)
(0.00506508 0 0)
(0.0050661 0 0)
(0.00506732 0 0)
(0.0050731 0 0)
(0.00508057 0 0)
(0.00508344 0 0)
(0.0050835 0 0)
(0.00508438 0 0)
(0.00508361 0 0)
(0.00508156 0 0)
(0.00508122 0 0)
(0.00508116 0 0)
(0.005081 0 0)
(0.00507802 0 0)
(0.0050736 0 0)
(0.00507071 0 0)
(0.00506957 0 0)
(0.00507213 0 0)
(0.00507309 0 0)
(0.0050774 0 0)
(0.0050826 0 0)
(0.00508392 0 0)
(0.00508626 0 0)
(0.0050858 0 0)
(0.00508783 0 0)
(0.00509888 0 0)
(0.00510276 0 0)
(0.00509876 0 0)
(0.00510036 0 0)
(0.00510453 0 0)
(0.00510823 0 0)
(0.005107 0 0)
(0.00510596 0 0)
(0.0051051 0 0)
(0.00510205 0 0)
(0.00510641 0 0)
(0.00511258 0 0)
(0.00511588 0 0)
(0.00512067 0 0)
(0.00512693 0 0)
(0.00512946 0 0)
(0.00512996 0 0)
(0.00513187 0 0)
(0.00513038 0 0)
(0.00512826 0 0)
(0.00512557 0 0)
(0.00512279 0 0)
(0.00511976 0 0)
(0.00512084 0 0)
(0.00512805 0 0)
(0.00513266 0 0)
(0.00513429 0 0)
(0.00513322 0 0)
(0.00513399 0 0)
)
;

boundaryField
{
    inlet
    {
        type            fixedValue;
        value           uniform (0 0 0);
    }
    outlet
    {
        type            zeroGradient;
    }
    yzfaces
    {
        type            empty;
    }
}


// ************************************************************************* //
