/*--------------------------------*- C++ -*----------------------------------*\
| =========                 |                                                 |
| \\      /  F ield         | foam-extend: Open Source CFD                    |
|  \\    /   O peration     | Version:     5.0                                |
|   \\  /    A nd           | Web:         http://www.foam-extend.org         |
|    \\/     M anipulation  |                                                 |
\*---------------------------------------------------------------------------*/
FoamFile
{
    version     2.0;
    format      ascii;
    class       volScalarField;
    location    "5";
    object      Cl.water;
}
// * * * * * * * * * * * * * * * * * * * * * * * * * * * * * * * * * * * * * //

dimensions      [0 0 0 0 0 0 0];

internalField   nonuniform List<scalar> 
100
(
0.00880831
0.0118873
0.0140706
0.0157136
0.0166312
0.0176492
0.0183714
0.0189918
0.0196695
0.0203396
0.0210117
0.0214644
0.0218729
0.0223535
0.0227254
0.0231164
0.0234496
0.0236719
0.0239989
0.0244764
0.0246902
0.0249694
0.0252447
0.0255057
0.0257073
0.0259033
0.0260915
0.0263417
0.0265524
0.0267888
0.0269297
0.027149
0.0273493
0.0275017
0.0276347
0.0277994
0.0279889
0.0282406
0.0283657
0.0285593
0.0285943
0.0287263
0.0288515
0.0290169
0.0291066
0.0292174
0.0293822
0.029518
0.0296443
0.029876
0.0300413
0.0301686
0.0302585
0.0303212
0.0304477
0.0305325
0.0306766
0.0308319
0.0309131
0.031027
0.031109
0.0312454
0.0313838
0.0314846
0.0316164
0.0317502
0.0318774
0.0320669
0.0321804
0.0323127
0.0324409
0.0335542
0.0337462
0.0339561
0.03409
0.0343078
0.0344887
0.0346539
0.0348631
0.0350801
0.0352918
0.0355359
0.0358061
0.0360882
0.0363847
0.0367536
0.037116
0.0375078
0.0379163
0.0383187
0.0386785
0.0390546
0.0393331
0.0395599
0.0397246
0.0398431
0.0399352
0.0399542
0.0399594
0.0400168
)
;

boundaryField
{
    inlet
    {
        type            fixedValue;
        value           uniform 0;
    }
    outlet
    {
        type            zeroGradient;
    }
    yzfaces
    {
        type            empty;
    }
}


// ************************************************************************* //
