/*--------------------------------*- C++ -*----------------------------------*\
| =========                 |                                                 |
| \\      /  F ield         | foam-extend: Open Source CFD                    |
|  \\    /   O peration     | Version:     5.0                                |
|   \\  /    A nd           | Web:         http://www.foam-extend.org         |
|    \\/     M anipulation  |                                                 |
\*---------------------------------------------------------------------------*/
FoamFile
{
    version     2.0;
    format      ascii;
    class       volScalarField;
    location    "5";
    object      Cl.water;
}
// * * * * * * * * * * * * * * * * * * * * * * * * * * * * * * * * * * * * * //

dimensions      [0 0 0 0 0 0 0];

internalField   nonuniform List<scalar> 
100
(
0.00885868
0.0118612
0.0139617
0.0155093
0.0166532
0.0176426
0.0184061
0.0189825
0.0195667
0.020177
0.0208814
0.0214892
0.0220902
0.0223676
0.0228821
0.023351
0.0236926
0.0239357
0.0240428
0.0242945
0.0246397
0.0249041
0.0251352
0.0253882
0.0256094
0.0259745
0.0261031
0.0262262
0.0263849
0.0266427
0.0268736
0.027126
0.027385
0.0274449
0.027676
0.0278289
0.0280166
0.0281901
0.0283094
0.0284708
0.0286511
0.0287457
0.028939
0.0290341
0.0291319
0.0293461
0.029452
0.0296207
0.0297153
0.029887
0.0300659
0.0301198
0.030299
0.030454
0.0305067
0.0305501
0.0305962
0.0307961
0.0308388
0.0310222
0.0311495
0.0312236
0.0313364
0.0314748
0.0316354
0.0317787
0.0318961
0.0319945
0.0321644
0.0323268
0.0324816
0.0335853
0.033769
0.0339495
0.0341003
0.0343029
0.03447
0.0346777
0.034875
0.0350976
0.0353381
0.0355853
0.0358555
0.0360923
0.0364234
0.0367431
0.0371245
0.0375269
0.0379236
0.0383298
0.0387222
0.0391031
0.0393811
0.0395907
0.0397333
0.0398358
0.0399443
0.0399706
0.0400094
0.0400297
)
;

boundaryField
{
    inlet
    {
        type            fixedValue;
        value           uniform 0;
    }
    outlet
    {
        type            zeroGradient;
    }
    yzfaces
    {
        type            empty;
    }
}


// ************************************************************************* //
