/*--------------------------------*- C++ -*----------------------------------*\
| =========                 |                                                 |
| \\      /  F ield         | foam-extend: Open Source CFD                    |
|  \\    /   O peration     | Version:     5.0                                |
|   \\  /    A nd           | Web:         http://www.foam-extend.org         |
|    \\/     M anipulation  |                                                 |
\*---------------------------------------------------------------------------*/
FoamFile
{
    version     2.0;
    format      ascii;
    class       surfaceScalarField;
    location    "5";
    object      phi;
}
// * * * * * * * * * * * * * * * * * * * * * * * * * * * * * * * * * * * * * //

dimensions      [0 3 -1 0 0 0 0];

internalField   nonuniform List<scalar> 
99
(
1.22575e-06
1.21401e-06
1.2231e-06
1.21237e-06
1.21009e-06
1.20392e-06
1.20506e-06
1.20191e-06
1.19697e-06
1.20356e-06
1.19565e-06
1.19586e-06
1.19415e-06
1.19763e-06
1.20084e-06
1.20612e-06
1.21546e-06
1.20629e-06
1.20373e-06
1.20486e-06
1.20947e-06
1.20586e-06
1.19735e-06
1.19568e-06
1.19565e-06
1.19671e-06
1.19854e-06
1.19551e-06
1.1954e-06
1.19593e-06
1.19765e-06
1.19191e-06
1.19081e-06
1.18737e-06
1.18742e-06
1.1869e-06
1.18993e-06
1.18702e-06
1.19e-06
1.18913e-06
1.18977e-06
1.19126e-06
1.19216e-06
1.19134e-06
1.19398e-06
1.19204e-06
1.18952e-06
1.19027e-06
1.19294e-06
1.19176e-06
1.19264e-06
1.19347e-06
1.19505e-06
1.19226e-06
1.19104e-06
1.18648e-06
1.18207e-06
1.18147e-06
1.18299e-06
1.18064e-06
1.17828e-06
1.17636e-06
1.1736e-06
1.17048e-06
1.17105e-06
1.17081e-06
1.1705e-06
1.17222e-06
1.17138e-06
1.16954e-06
1.16931e-06
1.17044e-06
1.17188e-06
1.17175e-06
1.17391e-06
1.17262e-06
1.1738e-06
1.17245e-06
1.17264e-06
1.1727e-06
1.17421e-06
1.17301e-06
1.17272e-06
1.17186e-06
1.1716e-06
1.17026e-06
1.17124e-06
1.17061e-06
1.17156e-06
1.1711e-06
1.17301e-06
1.17409e-06
1.1725e-06
1.1731e-06
1.17143e-06
1.17191e-06
1.17266e-06
1.17157e-06
1.17148e-06
)
;

boundaryField
{
    inlet
    {
        type            calculated;
        value           uniform -1.225e-06;
    }
    outlet
    {
        type            calculated;
        value           uniform 1.17336e-06;
    }
    yzfaces
    {
        type            empty;
    }
}


// ************************************************************************* //
