/*--------------------------------*- C++ -*----------------------------------*\
| =========                 |                                                 |
| \\      /  F ield         | foam-extend: Open Source CFD                    |
|  \\    /   O peration     | Version:     5.0                                |
|   \\  /    A nd           | Web:         http://www.foam-extend.org         |
|    \\/     M anipulation  |                                                 |
\*---------------------------------------------------------------------------*/
FoamFile
{
    version     2.0;
    format      ascii;
    class       volVectorField;
    location    "5";
    object      U.gas;
}
// * * * * * * * * * * * * * * * * * * * * * * * * * * * * * * * * * * * * * //

dimensions      [0 1 -1 0 0 0 0];

internalField   nonuniform List<vector> 
100
(
(0.00635856 0 0)
(0.00693977 0 0)
(0.0074408 0 0)
(0.00780342 0 0)
(0.00808927 0 0)
(0.00834365 0 0)
(0.00864139 0 0)
(0.00893996 0 0)
(0.00922097 0 0)
(0.00941968 0 0)
(0.00961241 0 0)
(0.00979202 0 0)
(0.00997702 0 0)
(0.0101743 0 0)
(0.0103504 0 0)
(0.0104124 0 0)
(0.0105167 0 0)
(0.0106391 0 0)
(0.01078 0 0)
(0.0108665 0 0)
(0.0109761 0 0)
(0.0110599 0 0)
(0.0111803 0 0)
(0.0112861 0 0)
(0.0113929 0 0)
(0.0114885 0 0)
(0.0116154 0 0)
(0.0117062 0 0)
(0.0117724 0 0)
(0.0118519 0 0)
(0.0119094 0 0)
(0.0119945 0 0)
(0.0120771 0 0)
(0.0121469 0 0)
(0.0122341 0 0)
(0.0122966 0 0)
(0.0123446 0 0)
(0.0123863 0 0)
(0.0124579 0 0)
(0.0124752 0 0)
(0.0125099 0 0)
(0.0125318 0 0)
(0.0125741 0 0)
(0.0125923 0 0)
(0.012624 0 0)
(0.0126641 0 0)
(0.0127102 0 0)
(0.0127519 0 0)
(0.012802 0 0)
(0.0128238 0 0)
(0.0128407 0 0)
(0.0128635 0 0)
(0.0128952 0 0)
(0.0129279 0 0)
(0.0129389 0 0)
(0.0129607 0 0)
(0.0129712 0 0)
(0.0129672 0 0)
(0.0129776 0 0)
(0.0129911 0 0)
(0.0130078 0 0)
(0.0130022 0 0)
(0.0129811 0 0)
(0.0129535 0 0)
(0.0129359 0 0)
(0.0129258 0 0)
(0.0129173 0 0)
(0.0129031 0 0)
(0.0128975 0 0)
(0.0128991 0 0)
(0.012884 0 0)
(0.012852 0 0)
(0.012819 0 0)
(0.0127938 0 0)
(0.0127698 0 0)
(0.0127201 0 0)
(0.0126403 0 0)
(0.0125672 0 0)
(0.0124686 0 0)
(0.0123631 0 0)
(0.0122352 0 0)
(0.0120768 0 0)
(0.0118827 0 0)
(0.011658 0 0)
(0.0113807 0 0)
(0.0110347 0 0)
(0.0106141 0 0)
(0.0101028 0 0)
(0.00950539 0 0)
(0.00882466 0 0)
(0.00808267 0 0)
(0.00732527 0 0)
(0.00660999 0 0)
(0.00599626 0 0)
(0.00551568 0 0)
(0.00516935 0 0)
(0.00493745 0 0)
(0.00478606 0 0)
(0.00469065 0 0)
(0.00463884 0 0)
)
;

boundaryField
{
    inlet
    {
        type            fixedValue;
        value           uniform (0.005 0 0);
    }
    outlet
    {
        type            zeroGradient;
    }
    yzfaces
    {
        type            empty;
    }
}


// ************************************************************************* //
