/*--------------------------------*- C++ -*----------------------------------*\
| =========                 |                                                 |
| \\      /  F ield         | foam-extend: Open Source CFD                    |
|  \\    /   O peration     | Version:     5.0                                |
|   \\  /    A nd           | Web:         http://www.foam-extend.org         |
|    \\/     M anipulation  |                                                 |
\*---------------------------------------------------------------------------*/
FoamFile
{
    version     2.0;
    format      ascii;
    class       volScalarField;
    location    "3";
    object      alpha.gas;
}
// * * * * * * * * * * * * * * * * * * * * * * * * * * * * * * * * * * * * * //

dimensions      [0 0 0 0 0 0 0];

internalField   nonuniform List<scalar> 
100
(
0.145073
0.128449
0.117848
0.110909
0.10438
0.0984407
0.0942173
0.0907418
0.0872051
0.0850084
0.0824852
0.0799757
0.0777224
0.0755608
0.073764
0.0721554
0.0703186
0.0687803
0.0671106
0.065746
0.0643803
0.0629085
0.061562
0.0604311
0.0592201
0.0581326
0.0569864
0.0559503
0.0548355
0.0538333
0.0527631
0.0517461
0.0507166
0.0497152
0.0487207
0.0477804
0.0467091
0.0456585
0.0446007
0.0435526
0.0424936
0.0414154
0.0403618
0.0392424
0.0380774
0.0368561
0.0355938
0.0342501
0.032812
0.0313019
0.0296732
0.0279288
0.0260821
0.0241241
0.0220656
0.0199479
0.0178621
0.0159096
0.0142107
0.0128399
0.0118241
0.0111256
0.0106706
0.0103919
0.0102252
0.0101282
0.010071
0.0100381
0.0100203
0.0100101
0.0100042
0.0100009
0.00999661
0.00999862
0.0099984
0.00999973
0.00999948
0.00999899
0.00999758
0.00999761
0.00999909
0.00999914
0.00999846
0.00999713
0.00999744
0.00999769
0.00999664
0.00999678
0.009999
0.00999968
0.00999906
0.0100003
0.00999907
0.00999831
0.0100014
0.0099999
0.00999917
0.00999931
0.00999949
0.0100012
)
;

boundaryField
{
    inlet
    {
        type            fixedValue;
        value           uniform 0.2;
    }
    outlet
    {
        type            zeroGradient;
    }
    yzfaces
    {
        type            empty;
    }
}


// ************************************************************************* //
