/*--------------------------------*- C++ -*----------------------------------*\
| =========                 |                                                 |
| \\      /  F ield         | foam-extend: Open Source CFD                    |
|  \\    /   O peration     | Version:     5.0                                |
|   \\  /    A nd           | Web:         http://www.foam-extend.org         |
|    \\/     M anipulation  |                                                 |
\*---------------------------------------------------------------------------*/
FoamFile
{
    version     2.0;
    format      ascii;
    class       volScalarField;
    location    "3";
    object      alpha.gas;
}
// * * * * * * * * * * * * * * * * * * * * * * * * * * * * * * * * * * * * * //

dimensions      [0 0 0 0 0 0 0];

internalField   nonuniform List<scalar> 
100
(
0.144653
0.128215
0.118189
0.11044
0.104227
0.0988194
0.0942159
0.0910052
0.0876301
0.0848599
0.0826043
0.0800512
0.0778956
0.0756761
0.0739044
0.072035
0.0703867
0.0686318
0.0671633
0.0657042
0.0643315
0.062863
0.0615971
0.0604682
0.0592521
0.0580121
0.0568133
0.0557597
0.0546295
0.0536444
0.0526635
0.0517498
0.0507144
0.0497769
0.048775
0.0477781
0.0467454
0.0457169
0.0446817
0.0436387
0.0425893
0.0414803
0.0403938
0.0392835
0.0380908
0.0368439
0.0355895
0.0342604
0.0328529
0.0313612
0.0297472
0.0279939
0.0261354
0.0241621
0.0220919
0.0199663
0.0178805
0.0159203
0.0142209
0.0128519
0.0118318
0.0111311
0.010677
0.0103988
0.0102318
0.0101329
0.0100758
0.0100412
0.0100241
0.0100134
0.010007
0.0100059
0.0100054
0.0100036
0.0100057
0.0100049
0.0100048
0.0100059
0.0100057
0.0100055
0.0100032
0.0100025
0.0100013
0.0100039
0.0100039
0.0100029
0.0100016
0.0100004
0.00999958
0.00999865
0.0100004
0.00999882
0.00999931
0.00999848
0.00999924
0.00999996
0.0100006
0.00999847
0.00999555
0.00999699
)
;

boundaryField
{
    inlet
    {
        type            fixedValue;
        value           uniform 0.2;
    }
    outlet
    {
        type            zeroGradient;
    }
    yzfaces
    {
        type            empty;
    }
}


// ************************************************************************* //
