/*--------------------------------*- C++ -*----------------------------------*\
| =========                 |                                                 |
| \\      /  F ield         | foam-extend: Open Source CFD                    |
|  \\    /   O peration     | Version:     5.0                                |
|   \\  /    A nd           | Web:         http://www.foam-extend.org         |
|    \\/     M anipulation  |                                                 |
\*---------------------------------------------------------------------------*/
FoamFile
{
    version     2.0;
    format      ascii;
    class       volScalarField;
    location    "3";
    object      alpha.gas;
}
// * * * * * * * * * * * * * * * * * * * * * * * * * * * * * * * * * * * * * //

dimensions      [0 0 0 0 0 0 0];

internalField   nonuniform List<scalar> 
100
(
0.144825
0.129049
0.117903
0.11052
0.104505
0.099082
0.0946426
0.0908943
0.0877728
0.0850398
0.0824797
0.0802703
0.0775878
0.0755144
0.0737017
0.0718652
0.0702132
0.0685741
0.0670805
0.0656739
0.0643354
0.0629151
0.061661
0.0603638
0.0592141
0.0580142
0.0569015
0.0559002
0.0549056
0.0537323
0.0526849
0.0516426
0.0507519
0.0496911
0.0486623
0.047686
0.0466578
0.0456707
0.0446098
0.0435863
0.0425393
0.0414374
0.0403186
0.0391559
0.0379837
0.0367679
0.0355326
0.0341793
0.0327482
0.0312094
0.0295994
0.0278633
0.0259997
0.0240028
0.0219096
0.0197776
0.0176821
0.0157409
0.0140575
0.0127185
0.0117352
0.0110668
0.010637
0.0103737
0.0102156
0.0101235
0.0100701
0.0100385
0.0100217
0.0100092
0.0100015
0.0100002
0.00999798
0.00999667
0.00999601
0.00999684
0.00999676
0.00999703
0.0099984
0.00999875
0.0100013
0.0100015
0.0100033
0.0100032
0.0100047
0.0100061
0.0100041
0.0100017
0.0100008
0.0100007
0.0100003
0.0100008
0.0100006
0.0100003
0.0100002
0.0100002
0.0100002
0.0100019
0.0100038
0.0099991
)
;

boundaryField
{
    inlet
    {
        type            fixedValue;
        value           uniform 0.2;
    }
    outlet
    {
        type            zeroGradient;
    }
    yzfaces
    {
        type            empty;
    }
}


// ************************************************************************* //
