/*--------------------------------*- C++ -*----------------------------------*\
| =========                 |                                                 |
| \\      /  F ield         | foam-extend: Open Source CFD                    |
|  \\    /   O peration     | Version:     5.0                                |
|   \\  /    A nd           | Web:         http://www.foam-extend.org         |
|    \\/     M anipulation  |                                                 |
\*---------------------------------------------------------------------------*/
FoamFile
{
    version     2.0;
    format      ascii;
    class       volScalarField;
    location    "3";
    object      Cl.water;
}
// * * * * * * * * * * * * * * * * * * * * * * * * * * * * * * * * * * * * * //

dimensions      [0 0 0 0 0 0 0];

internalField   nonuniform List<scalar> 
100
(
0.0063383
0.00815851
0.00944179
0.0102804
0.0109746
0.011584
0.0120991
0.0125311
0.0128723
0.013195
0.0134967
0.013767
0.0140491
0.0142942
0.0145001
0.0147128
0.0149013
0.0150951
0.0152582
0.01542
0.0155813
0.0157384
0.0158836
0.0160302
0.016172
0.0162987
0.0164316
0.0165524
0.0166651
0.0167883
0.0169097
0.0170298
0.0171459
0.0172571
0.0173779
0.017497
0.0176018
0.0177194
0.0178381
0.0179595
0.0180739
0.0181572
0.018067
0.0194119
0.0195963
0.0197599
0.0199221
0.0200567
0.0202449
0.0204157
0.0206255
0.0208267
0.0210511
0.0212881
0.0215557
0.0218092
0.022089
0.0223228
0.0225314
0.022692
0.0228087
0.022915
0.0229438
0.0229457
0.0229897
0.0229821
0.022997
0.0230299
0.0230257
0.0230373
0.0230355
0.0230143
0.0230521
0.0230426
0.0230076
0.022999
0.0230015
0.0230073
0.0229849
0.0229903
0.0229819
0.022995
0.0229944
0.0229933
0.0229894
0.0230157
0.0230416
0.023037
0.0230333
0.0230251
0.0230283
0.0230146
0.0230347
0.0230389
0.0230193
0.0230298
0.0230012
0.0230135
0.0229847
0.022988
)
;

boundaryField
{
    inlet
    {
        type            fixedValue;
        value           uniform 0;
    }
    outlet
    {
        type            zeroGradient;
    }
    yzfaces
    {
        type            empty;
    }
}


// ************************************************************************* //
