/*--------------------------------*- C++ -*----------------------------------*\
| =========                 |                                                 |
| \\      /  F ield         | foam-extend: Open Source CFD                    |
|  \\    /   O peration     | Version:     5.0                                |
|   \\  /    A nd           | Web:         http://www.foam-extend.org         |
|    \\/     M anipulation  |                                                 |
\*---------------------------------------------------------------------------*/
FoamFile
{
    version     2.0;
    format      ascii;
    class       volScalarField;
    location    "3";
    object      Cl.water;
}
// * * * * * * * * * * * * * * * * * * * * * * * * * * * * * * * * * * * * * //

dimensions      [0 0 0 0 0 0 0];

internalField   nonuniform List<scalar> 
100
(
0.00636076
0.00824731
0.0093969
0.0102933
0.0109996
0.0116144
0.0121338
0.0125219
0.0129077
0.0132234
0.0134884
0.0137701
0.0140243
0.0142723
0.0144837
0.0146939
0.0148915
0.0150839
0.0152549
0.0154241
0.0155886
0.015744
0.0158942
0.0160302
0.0161723
0.0163047
0.0164394
0.016568
0.0166878
0.0168055
0.0169152
0.0170281
0.0171385
0.0172542
0.0173694
0.017489
0.0176094
0.0177244
0.0178409
0.0179622
0.0180821
0.0182074
0.018335
0.0184669
0.0185991
0.0187363
0.0188759
0.0190169
0.0191325
0.0190549
0.0205147
0.0207824
0.0210274
0.021263
0.0215147
0.021781
0.0220319
0.0222675
0.0225015
0.0226425
0.0227759
0.0228694
0.0229277
0.0229483
0.0229911
0.0229811
0.0229911
0.023009
0.0229914
0.0229969
0.0229582
0.0229813
0.0229995
0.0229845
0.0230053
0.0229972
0.0230022
0.0229976
0.0229916
0.0229926
0.0229961
0.0230034
0.0229912
0.0229828
0.0229875
0.0229723
0.0229984
0.0230183
0.023007
0.0230151
0.0230012
0.0230205
0.0230239
0.023017
0.0230116
0.0230123
0.0230071
0.0229698
0.0229726
0.0229768
)
;

boundaryField
{
    inlet
    {
        type            fixedValue;
        value           uniform 0;
    }
    outlet
    {
        type            zeroGradient;
    }
    yzfaces
    {
        type            empty;
    }
}


// ************************************************************************* //
