/*--------------------------------*- C++ -*----------------------------------*\
| =========                 |                                                 |
| \\      /  F ield         | foam-extend: Open Source CFD                    |
|  \\    /   O peration     | Version:     5.0                                |
|   \\  /    A nd           | Web:         http://www.foam-extend.org         |
|    \\/     M anipulation  |                                                 |
\*---------------------------------------------------------------------------*/
FoamFile
{
    version     2.0;
    format      ascii;
    class       volScalarField;
    location    "3";
    object      Cl.water;
}
// * * * * * * * * * * * * * * * * * * * * * * * * * * * * * * * * * * * * * //

dimensions      [0 0 0 0 0 0 0];

internalField   nonuniform List<scalar> 
100
(
0.0063163
0.00821952
0.00942192
0.0102442
0.0109886
0.0116538
0.0121448
0.0125468
0.0129299
0.0132129
0.0134968
0.0137817
0.0140501
0.0142898
0.0144966
0.0146844
0.0148816
0.0150693
0.0152524
0.0154164
0.0155779
0.0157412
0.0158923
0.0160292
0.0161636
0.0162922
0.0164154
0.0165439
0.0166623
0.0167892
0.0169146
0.0170315
0.0171467
0.0172643
0.0173812
0.0174935
0.0176094
0.017726
0.0178485
0.0179693
0.0180847
0.0181638
0.0180771
0.0193965
0.0195552
0.019731
0.0198886
0.020061
0.0202219
0.0204036
0.0206226
0.0208283
0.0210613
0.0213108
0.0215592
0.0218097
0.0220591
0.0222788
0.022511
0.0226598
0.0227884
0.0228599
0.0229231
0.0229468
0.0229586
0.0229754
0.0229933
0.0229978
0.022994
0.0229971
0.0230066
0.0230016
0.0229991
0.0229849
0.0230229
0.0229921
0.0230068
0.0230308
0.0230105
0.0230139
0.0230135
0.0229958
0.0229926
0.0229997
0.0229938
0.0230003
0.0230073
0.0230168
0.0230085
0.0230144
0.0229842
0.0229868
0.0229885
0.0230045
0.0229824
0.0229847
0.0229848
0.0229872
0.0229947
0.0229942
)
;

boundaryField
{
    inlet
    {
        type            fixedValue;
        value           uniform 0;
    }
    outlet
    {
        type            zeroGradient;
    }
    yzfaces
    {
        type            empty;
    }
}


// ************************************************************************* //
