/*--------------------------------*- C++ -*----------------------------------*\
| =========                 |                                                 |
| \\      /  F ield         | foam-extend: Open Source CFD                    |
|  \\    /   O peration     | Version:     5.0                                |
|   \\  /    A nd           | Web:         http://www.foam-extend.org         |
|    \\/     M anipulation  |                                                 |
\*---------------------------------------------------------------------------*/
FoamFile
{
    version     2.0;
    format      ascii;
    class       volScalarField;
    location    "3";
    object      CO2.water;
}
// * * * * * * * * * * * * * * * * * * * * * * * * * * * * * * * * * * * * * //

dimensions      [0 0 0 0 0 0 0];

internalField   nonuniform List<scalar> 
100
(
0.00145365
0.00188541
0.00214874
0.00235224
0.00251544
0.00265746
0.00277837
0.0028627
0.00295134
0.0030241
0.00308334
0.0031504
0.00320702
0.00326531
0.00331184
0.00336094
0.00340423
0.00345033
0.0034889
0.00352722
0.00356327
0.00360184
0.00363509
0.00366474
0.00369668
0.00372925
0.00376073
0.0037884
0.00381809
0.00384396
0.00386973
0.00389372
0.00392092
0.00394554
0.00397186
0.00399804
0.00402516
0.00405217
0.00407936
0.00410676
0.00413432
0.00416345
0.00419198
0.00422114
0.00425247
0.00428522
0.00431817
0.00435307
0.00439004
0.00442922
0.000242873
5.79977e-05
1.39474e-05
3.31444e-06
7.56445e-07
1.52293e-07
1.9307e-08
0
0
0
0
0
0
0
0
0
0
0
0
0
9.30946e-14
9.52908e-14
6.38735e-14
3.70468e-14
1.99114e-14
1.0217e-14
5.06471e-15
2.45956e-15
1.1717e-15
5.51334e-16
2.56529e-16
1.1814e-16
5.40902e-17
2.4605e-17
1.11181e-17
5.02518e-18
2.25737e-18
1.0096e-18
4.49536e-19
1.99468e-19
8.83067e-20
3.89515e-20
1.71359e-20
7.52597e-21
3.30244e-21
1.44496e-21
6.31035e-22
2.75886e-22
1.19971e-22
6.65708e-23
)
;

boundaryField
{
    inlet
    {
        type            fixedValue;
        value           uniform 0;
    }
    outlet
    {
        type            zeroGradient;
    }
    yzfaces
    {
        type            empty;
    }
}


// ************************************************************************* //
