/*--------------------------------*- C++ -*----------------------------------*\
| =========                 |                                                 |
| \\      /  F ield         | foam-extend: Open Source CFD                    |
|  \\    /   O peration     | Version:     5.0                                |
|   \\  /    A nd           | Web:         http://www.foam-extend.org         |
|    \\/     M anipulation  |                                                 |
\*---------------------------------------------------------------------------*/
FoamFile
{
    version     2.0;
    format      ascii;
    class       volScalarField;
    location    "3";
    object      CO2.gas;
}
// * * * * * * * * * * * * * * * * * * * * * * * * * * * * * * * * * * * * * //

dimensions      [0 0 0 0 0 0 0];

internalField   nonuniform List<scalar> 
100
(
0.144791
0.128199
0.117618
0.110693
0.104177
0.098249
0.0940338
0.0905651
0.0870353
0.0848428
0.0823246
0.0798199
0.077571
0.0754136
0.0736203
0.0720149
0.0701816
0.0686463
0.0669799
0.065618
0.0642549
0.062786
0.0614421
0.0603134
0.0591047
0.0580194
0.0568755
0.0558414
0.0547288
0.0537285
0.0526603
0.0516453
0.0506178
0.0496184
0.0486258
0.0476874
0.0466181
0.0455696
0.0445139
0.0434678
0.0424108
0.0413347
0.0402832
0.0320418
0.0277459
0.0237774
0.0200715
0.0166739
0.0135668
0.0108119
0.00839997
0.00632165
0.00458717
0.00318581
0.00209528
0.00129086
0.000736363
0.000384559
0.00018321
7.95229e-05
3.19327e-05
1.21545e-05
4.52419e-06
1.69126e-06
6.49458e-07
2.5879e-07
1.06273e-07
4.48323e-08
1.92643e-08
8.37594e-09
3.69032e-09
1.64918e-09
7.57315e-10
3.55189e-10
1.66963e-10
7.86529e-11
3.68729e-11
1.72774e-11
8.12035e-12
3.80436e-12
1.80119e-12
8.59094e-13
4.0448e-13
1.87594e-13
8.57652e-14
3.88825e-14
1.75142e-14
7.80182e-15
3.46639e-15
1.53079e-15
6.71469e-16
2.9333e-16
1.27601e-16
5.5135e-17
2.3788e-17
1.01882e-17
4.3551e-18
1.84888e-18
7.81302e-19
4.16255e-19
)
;

boundaryField
{
    inlet
    {
        type            fixedValue;
        value           uniform 0.2;
    }
    outlet
    {
        type            zeroGradient;
    }
    yzfaces
    {
        type            empty;
    }
}


// ************************************************************************* //
