/*--------------------------------*- C++ -*----------------------------------*\
| =========                 |                                                 |
| \\      /  F ield         | foam-extend: Open Source CFD                    |
|  \\    /   O peration     | Version:     5.0                                |
|   \\  /    A nd           | Web:         http://www.foam-extend.org         |
|    \\/     M anipulation  |                                                 |
\*---------------------------------------------------------------------------*/
FoamFile
{
    version     2.0;
    format      ascii;
    class       volScalarField;
    location    "3";
    object      CO2.water;
}
// * * * * * * * * * * * * * * * * * * * * * * * * * * * * * * * * * * * * * //

dimensions      [0 0 0 0 0 0 0];

internalField   nonuniform List<scalar> 
100
(
0.00144262
0.00187924
0.00215769
0.00233994
0.00251141
0.00266741
0.00277833
0.00286962
0.00296251
0.0030202
0.00308647
0.00315238
0.00321157
0.00326834
0.00331553
0.00335778
0.00340602
0.00344643
0.00349028
0.00352612
0.00356199
0.00360064
0.00363601
0.00366571
0.00369752
0.00372608
0.00375619
0.0037834
0.00381268
0.003839
0.00386711
0.00389382
0.00392086
0.00394716
0.00397328
0.00399798
0.00402612
0.00405371
0.00408149
0.00410902
0.00413683
0.00416515
0.00419282
0.000177294
3.86048e-05
8.81728e-06
2.13271e-06
5.54876e-07
1.57499e-07
4.93471e-08
1.69179e-08
6.23463e-09
2.43266e-09
9.90253e-10
4.17397e-10
1.81337e-10
8.11495e-11
3.73991e-11
1.78123e-11
8.73335e-12
4.31762e-12
2.13089e-12
1.05371e-12
5.17913e-13
2.54243e-13
1.25484e-13
6.15517e-14
3.04236e-14
1.51739e-14
7.58469e-15
3.71986e-15
1.79945e-15
8.61471e-16
4.0912e-16
1.91617e-16
8.94656e-17
4.13911e-17
1.90472e-17
8.74528e-18
3.9774e-18
1.8057e-18
8.16178e-19
3.69161e-19
1.66335e-19
7.45122e-20
3.33296e-20
1.48951e-20
6.61401e-21
2.9411e-21
1.30435e-21
5.76214e-22
2.54252e-22
1.11969e-22
4.90818e-23
2.1527e-23
9.38941e-24
4.09429e-24
1.77667e-24
7.68534e-25
4.23377e-25
)
;

boundaryField
{
    inlet
    {
        type            fixedValue;
        value           uniform 0;
    }
    outlet
    {
        type            zeroGradient;
    }
    yzfaces
    {
        type            empty;
    }
}


// ************************************************************************* //
