/*--------------------------------*- C++ -*----------------------------------*\
| =========                 |                                                 |
| \\      /  F ield         | foam-extend: Open Source CFD                    |
|  \\    /   O peration     | Version:     5.0                                |
|   \\  /    A nd           | Web:         http://www.foam-extend.org         |
|    \\/     M anipulation  |                                                 |
\*---------------------------------------------------------------------------*/
FoamFile
{
    version     2.0;
    format      ascii;
    class       volScalarField;
    location    "3";
    object      H2O.gas;
}
// * * * * * * * * * * * * * * * * * * * * * * * * * * * * * * * * * * * * * //

dimensions      [0 0 0 0 0 0 0];

internalField   nonuniform List<scalar> 
100
(
0.000281708
0.000249694
0.000230169
0.00021508
0.000202979
0.000192448
0.000183483
0.00017723
0.000170657
0.000165262
0.000160869
0.000155897
0.000151699
0.000147377
0.000143927
0.000140286
0.000137076
0.000133658
0.000130799
0.000127957
0.000125284
0.000122424
0.000119959
0.00011776
0.000115392
0.000112977
0.000110642
0.00010859
0.000106389
0.000104471
0.000102561
0.000100781
9.87648e-05
9.6939e-05
9.49879e-05
9.30464e-05
9.10352e-05
8.90324e-05
8.70162e-05
8.49851e-05
8.29414e-05
8.07817e-05
7.86658e-05
7.65035e-05
7.41807e-05
7.17524e-05
6.93095e-05
6.67211e-05
6.39801e-05
6.1075e-05
0.0111207
0.014439
0.016569
0.0176684
0.0178997
0.0174347
0.0164632
0.0151981
0.0139031
0.0127111
0.0117835
0.0111229
0.0106787
0.0103973
0.0102408
0.0101368
0.0100787
0.0100456
0.0100196
0.0100083
0.00998718
0.00999583
0.0100024
0.00999434
0.0100041
0.0100014
0.0100034
0.0100032
0.0100028
0.0100032
0.0100006
0.0100032
0.00999833
0.00999441
0.00999779
0.00999045
0.0100005
0.0100069
0.0100027
0.0100059
0.0100007
0.0100063
0.010011
0.0100107
0.0100094
0.0100097
0.0100049
0.00998939
0.00998925
0.00999558
)
;

boundaryField
{
    inlet
    {
        type            fixedValue;
        value           uniform 0;
    }
    outlet
    {
        type            zeroGradient;
    }
    yzfaces
    {
        type            empty;
    }
}


// ************************************************************************* //
