/*--------------------------------*- C++ -*----------------------------------*\
| =========                 |                                                 |
| \\      /  F ield         | foam-extend: Open Source CFD                    |
|  \\    /   O peration     | Version:     5.0                                |
|   \\  /    A nd           | Web:         http://www.foam-extend.org         |
|    \\/     M anipulation  |                                                 |
\*---------------------------------------------------------------------------*/
FoamFile
{
    version     2.0;
    format      ascii;
    class       volScalarField;
    location    "3";
    object      H2O.gas;
}
// * * * * * * * * * * * * * * * * * * * * * * * * * * * * * * * * * * * * * //

dimensions      [0 0 0 0 0 0 0];

internalField   nonuniform List<scalar> 
100
(
0.000282526
0.000250152
0.000229505
0.000215991
0.000203277
0.00019171
0.000183485
0.000176717
0.000169829
0.000165551
0.000160638
0.00015575
0.000151362
0.000147152
0.000143653
0.000140521
0.000136943
0.000133948
0.000130696
0.000128039
0.000125379
0.000122512
0.00011989
0.000117688
0.000115329
0.000113212
0.000110979
0.000108962
0.000106791
0.000104839
0.000102755
0.000100774
9.87691e-05
9.68189e-05
9.48821e-05
9.3051e-05
9.09646e-05
8.89186e-05
8.68586e-05
8.48175e-05
8.2755e-05
8.06552e-05
7.86035e-05
0.0071691
0.0102543
0.013049
0.0154908
0.017562
0.0192122
0.0204534
0.0212701
0.0216072
0.0215006
0.0209547
0.0199838
0.0186687
0.0171359
0.0155243
0.0140443
0.0127633
0.0117949
0.0111101
0.0106663
0.0103886
0.0102207
0.0101258
0.0100749
0.0100409
0.0100207
0.0100127
0.0100077
0.0100031
0.00999829
0.00999767
0.0100135
0.0099991
0.0100017
0.0100092
0.0100008
0.010003
0.0100017
0.0099929
0.00998925
0.00999047
0.00999015
0.00999275
0.00999482
0.00999896
0.00999667
0.00999947
0.00998565
0.00998973
0.00999114
0.00999914
0.00999069
0.00999507
0.00999215
0.00999064
0.00999634
0.0100021
)
;

boundaryField
{
    inlet
    {
        type            fixedValue;
        value           uniform 0;
    }
    outlet
    {
        type            zeroGradient;
    }
    yzfaces
    {
        type            empty;
    }
}


// ************************************************************************* //
