/*--------------------------------*- C++ -*----------------------------------*\
| =========                 |                                                 |
| \\      /  F ield         | foam-extend: Open Source CFD                    |
|  \\    /   O peration     | Version:     5.0                                |
|   \\  /    A nd           | Web:         http://www.foam-extend.org         |
|    \\/     M anipulation  |                                                 |
\*---------------------------------------------------------------------------*/
FoamFile
{
    version     2.0;
    format      ascii;
    class       volScalarField;
    location    "3";
    object      H2O.gas;
}
// * * * * * * * * * * * * * * * * * * * * * * * * * * * * * * * * * * * * * //

dimensions      [0 0 0 0 0 0 0];

internalField   nonuniform List<scalar> 
100
(
0.000282043
0.000251319
0.000229613
0.000215234
0.000203521
0.000192959
0.000184314
0.000177014
0.000170935
0.000165612
0.000160627
0.000156324
0.0001511
0.000147062
0.000143532
0.000139955
0.000136738
0.000133546
0.000130637
0.000127898
0.000125291
0.000122525
0.000120083
0.000117557
0.000115318
0.000112981
0.000110814
0.000108864
0.000106927
0.000104642
0.000102602
0.000100572
9.88378e-05
9.6772e-05
9.47685e-05
9.28671e-05
9.08646e-05
8.89423e-05
8.68764e-05
8.4883e-05
8.28441e-05
8.06982e-05
7.85193e-05
0.00721293
0.0103347
0.0131404
0.015611
0.017653
0.0193348
0.0205552
0.0213747
0.0216885
0.0215453
0.0209358
0.0199341
0.0185781
0.0170385
0.0154259
0.0139291
0.0126756
0.0117276
0.0110828
0.0106463
0.010373
0.0102272
0.0101231
0.010073
0.0100521
0.0100312
0.0100241
0.0100157
0.0100067
0.0100217
0.0100175
0.0100003
0.00999726
0.00999815
0.00999868
0.0099884
0.00999165
0.0099915
0.00999542
0.0099983
0.00999582
0.00999786
0.0100099
0.010017
0.0100161
0.0100125
0.0100107
0.0100137
0.0100074
0.0100157
0.0100175
0.0100081
0.0100137
0.0100027
0.0100089
0.00999495
0.00999047
)
;

boundaryField
{
    inlet
    {
        type            fixedValue;
        value           uniform 0;
    }
    outlet
    {
        type            zeroGradient;
    }
    yzfaces
    {
        type            empty;
    }
}


// ************************************************************************* //
