/*--------------------------------*- C++ -*----------------------------------*\
| =========                 |                                                 |
| \\      /  F ield         | foam-extend: Open Source CFD                    |
|  \\    /   O peration     | Version:     5.0                                |
|   \\  /    A nd           | Web:         http://www.foam-extend.org         |
|    \\/     M anipulation  |                                                 |
\*---------------------------------------------------------------------------*/
FoamFile
{
    version     2.0;
    format      ascii;
    class       volScalarField;
    location    "3";
    object      Na.water;
}
// * * * * * * * * * * * * * * * * * * * * * * * * * * * * * * * * * * * * * //

dimensions      [0 0 0 0 0 0 0];

internalField   nonuniform List<scalar> 
100
(
0.00631492
0.00821903
0.00942888
0.0102519
0.0109938
0.0116495
0.012141
0.0125485
0.0129258
0.0132069
0.0134983
0.0137803
0.0140435
0.0142855
0.0144899
0.0146865
0.0148867
0.0150693
0.0152538
0.0154183
0.0155761
0.0157351
0.0158881
0.0160278
0.0161565
0.016295
0.0164222
0.0165439
0.01667
0.0167841
0.0169006
0.0170203
0.0171377
0.0172503
0.0173674
0.0174843
0.0175959
0.0177175
0.0178391
0.017955
0.0180686
0.0181459
0.0180596
0.0193837
0.0195431
0.0197246
0.019878
0.0200509
0.0202082
0.0203899
0.0206061
0.0208166
0.0210476
0.0212976
0.0215417
0.02179
0.0220524
0.0222764
0.0225112
0.0226503
0.0227776
0.0228511
0.0229207
0.0229518
0.022963
0.0229884
0.0230196
0.0230176
0.0230168
0.023019
0.0230138
0.0230092
0.0230095
0.0230027
0.0230306
0.0230006
0.0230053
0.0230273
0.0230185
0.0230245
0.0230293
0.0229998
0.0229891
0.0229936
0.0229931
0.022994
0.0229952
0.0230009
0.0229997
0.0230038
0.0229718
0.0229821
0.0229837
0.0229955
0.0229755
0.022987
0.0229788
0.022979
0.0229861
0.0229958
)
;

boundaryField
{
    inlet
    {
        type            fixedValue;
        value           uniform 0;
    }
    outlet
    {
        type            zeroGradient;
    }
    yzfaces
    {
        type            empty;
    }
}


// ************************************************************************* //
