/*--------------------------------*- C++ -*----------------------------------*\
| =========                 |                                                 |
| \\      /  F ield         | foam-extend: Open Source CFD                    |
|  \\    /   O peration     | Version:     5.0                                |
|   \\  /    A nd           | Web:         http://www.foam-extend.org         |
|    \\/     M anipulation  |                                                 |
\*---------------------------------------------------------------------------*/
FoamFile
{
    version     2.0;
    format      ascii;
    class       volScalarField;
    location    "3";
    object      Na.water;
}
// * * * * * * * * * * * * * * * * * * * * * * * * * * * * * * * * * * * * * //

dimensions      [0 0 0 0 0 0 0];

internalField   nonuniform List<scalar> 
100
(
0.00633659
0.00815194
0.00943787
0.0102803
0.0109671
0.0115858
0.012098
0.0125359
0.0128791
0.013201
0.0134963
0.0137642
0.0140418
0.0142902
0.0145013
0.0147088
0.0149027
0.0150857
0.0152599
0.0154243
0.0155821
0.0157419
0.0158876
0.0160307
0.0161691
0.0163007
0.0164274
0.0165477
0.0166691
0.0167908
0.0169178
0.0170363
0.0171463
0.0172578
0.0173771
0.0174886
0.0176083
0.0177281
0.0178394
0.0179616
0.0180708
0.018155
0.0180681
0.0194104
0.0195936
0.0197621
0.0199233
0.0200593
0.0202457
0.0204221
0.0206346
0.0208362
0.0210552
0.0212952
0.0215642
0.0218072
0.0220882
0.0223266
0.0225382
0.0226977
0.022815
0.0229142
0.0229437
0.0229512
0.0230046
0.0229967
0.0230081
0.0230416
0.0230376
0.0230449
0.0230393
0.0230273
0.0230582
0.0230502
0.0230127
0.0230049
0.023002
0.0230077
0.0229858
0.0229918
0.0229883
0.0229952
0.0230027
0.0229969
0.0229913
0.0230164
0.023028
0.023021
0.0230156
0.0230164
0.0230223
0.0230108
0.0230319
0.0230373
0.0230141
0.023027
0.0230052
0.0230156
0.0229932
0.022986
)
;

boundaryField
{
    inlet
    {
        type            fixedValue;
        value           uniform 0;
    }
    outlet
    {
        type            zeroGradient;
    }
    yzfaces
    {
        type            empty;
    }
}


// ************************************************************************* //
