/*--------------------------------*- C++ -*----------------------------------*\
| =========                 |                                                 |
| \\      /  F ield         | foam-extend: Open Source CFD                    |
|  \\    /   O peration     | Version:     5.0                                |
|   \\  /    A nd           | Web:         http://www.foam-extend.org         |
|    \\/     M anipulation  |                                                 |
\*---------------------------------------------------------------------------*/
FoamFile
{
    version     2.0;
    format      ascii;
    class       volScalarField;
    location    "3";
    object      Na.water;
}
// * * * * * * * * * * * * * * * * * * * * * * * * * * * * * * * * * * * * * //

dimensions      [0 0 0 0 0 0 0];

internalField   nonuniform List<scalar> 
100
(
0.00636024
0.00824809
0.0093993
0.0102996
0.0110054
0.011618
0.0121365
0.0125233
0.0129048
0.0132208
0.013488
0.0137665
0.014022
0.0142717
0.0144815
0.0146865
0.0148866
0.0150831
0.0152578
0.015418
0.0155765
0.0157361
0.0158872
0.0160184
0.0161523
0.0162951
0.016438
0.0165625
0.0166923
0.0168088
0.0169228
0.0170373
0.0171436
0.0172581
0.0173685
0.0174822
0.0175975
0.017709
0.0178272
0.01795
0.0180697
0.0181949
0.0183216
0.0184509
0.0185842
0.0187209
0.0188621
0.0190093
0.0191248
0.0190446
0.0205036
0.0207761
0.0210242
0.0212553
0.0215054
0.0217737
0.0220264
0.0222716
0.0225041
0.0226376
0.0227807
0.0228801
0.0229277
0.0229429
0.0229836
0.0229821
0.0229898
0.0230077
0.0229932
0.0229905
0.0229627
0.0229955
0.0230127
0.0229868
0.0230063
0.022999
0.0229987
0.0229866
0.0229844
0.0229869
0.0229861
0.0229969
0.0229903
0.0229787
0.0229806
0.0229704
0.0229916
0.0230138
0.0230034
0.0230169
0.0230022
0.0230145
0.023027
0.0230319
0.0230279
0.0230297
0.0230155
0.0229823
0.0229869
0.0230029
)
;

boundaryField
{
    inlet
    {
        type            fixedValue;
        value           uniform 0;
    }
    outlet
    {
        type            zeroGradient;
    }
    yzfaces
    {
        type            empty;
    }
}


// ************************************************************************* //
