/*--------------------------------*- C++ -*----------------------------------*\
| =========                 |                                                 |
| \\      /  F ield         | foam-extend: Open Source CFD                    |
|  \\    /   O peration     | Version:     5.0                                |
|   \\  /    A nd           | Web:         http://www.foam-extend.org         |
|    \\/     M anipulation  |                                                 |
\*---------------------------------------------------------------------------*/
FoamFile
{
    version     2.0;
    format      ascii;
    class       volScalarField;
    location    "3";
    object      Ns;
}
// * * * * * * * * * * * * * * * * * * * * * * * * * * * * * * * * * * * * * //

dimensions      [0 -3 0 0 1 0 0];

internalField   nonuniform List<scalar> 
100
(
67.2661
89.4755
36.9241
86.64
52.1124
52.2628
49.9584
48.3462
78.0609
61.9399
48.3879
51.6737
48.1777
68.3286
66.2173
52.2056
57.8445
56.0416
50.8174
67.3618
49.7662
62.3518
56.4306
49.3015
51.837
50.4498
60.828
57.5631
63.9892
52.0127
49.7327
59.6793
57.7534
49.4876
53.4824
56.7197
51.7722
51.8383
49.9985
55.5761
56.1644
59.744
83.4317
2
2
2
2
2
2
2
2
2
2
2
2
2
2
2
2
2
2
2
2
2
2
2
2
2
2
2
2
2
2
2
2
2
2
2
2
2
2
2
2
2
2
2
2
2
2
2
2
2
2
2
2
2
2
2
2
2
)
;

boundaryField
{
    inlet
    {
        type            fixedValue;
        value           uniform 0;
    }
    outlet
    {
        type            zeroGradient;
    }
    yzfaces
    {
        type            empty;
    }
}


// ************************************************************************* //
