/*--------------------------------*- C++ -*----------------------------------*\
| =========                 |                                                 |
| \\      /  F ield         | foam-extend: Open Source CFD                    |
|  \\    /   O peration     | Version:     5.0                                |
|   \\  /    A nd           | Web:         http://www.foam-extend.org         |
|    \\/     M anipulation  |                                                 |
\*---------------------------------------------------------------------------*/
FoamFile
{
    version     2.0;
    format      ascii;
    class       volScalarField;
    location    "3";
    object      Ns;
}
// * * * * * * * * * * * * * * * * * * * * * * * * * * * * * * * * * * * * * //

dimensions      [0 -3 0 0 1 0 0];

internalField   nonuniform List<scalar> 
100
(
62.2247
75.3379
50.4482
53.4284
65.8409
31.1651
45.8012
60.143
57.3489
31.9406
73.352
49.2925
67.7113
46.46
56.8084
59.8967
58.7841
34.9124
72.9573
45.5469
47.3341
37.4449
39.3687
51.4579
57.0445
55.029
44.1872
54.1916
57.4809
53.5886
53.0776
71.8007
55.8599
63.0955
50.2705
53.1134
54.0483
51.9362
66.6898
50.2578
50.6874
48.6427
47.8715
49.8699
48.3382
45.6272
49.8862
57.531
50.8106
80.1221
2
2
2
2
2
2
2
2
2
2
2
2
2
2
2
2
2
2
2
2
2
2
2
2
2
2
2
2
2
2
2
2
2
2
2
2
2
2
2
2
2
2
2
2
2
2
2
2
2
2
)
;

boundaryField
{
    inlet
    {
        type            fixedValue;
        value           uniform 0;
    }
    outlet
    {
        type            zeroGradient;
    }
    yzfaces
    {
        type            empty;
    }
}


// ************************************************************************* //
