/*--------------------------------*- C++ -*----------------------------------*\
| =========                 |                                                 |
| \\      /  F ield         | foam-extend: Open Source CFD                    |
|  \\    /   O peration     | Version:     5.0                                |
|   \\  /    A nd           | Web:         http://www.foam-extend.org         |
|    \\/     M anipulation  |                                                 |
\*---------------------------------------------------------------------------*/
FoamFile
{
    version     2.0;
    format      ascii;
    class       surfaceScalarField;
    location    "3";
    object      phi;
}
// * * * * * * * * * * * * * * * * * * * * * * * * * * * * * * * * * * * * * //

dimensions      [0 3 -1 0 0 0 0];

internalField   nonuniform List<scalar> 
99
(
1.21902e-06
1.21789e-06
1.21653e-06
1.20947e-06
1.21166e-06
1.21318e-06
1.21378e-06
1.21526e-06
1.22473e-06
1.22309e-06
1.22051e-06
1.22126e-06
1.22316e-06
1.22156e-06
1.22306e-06
1.22234e-06
1.22542e-06
1.22371e-06
1.22609e-06
1.22815e-06
1.225e-06
1.22561e-06
1.2307e-06
1.22883e-06
1.23279e-06
1.22964e-06
1.23067e-06
1.23013e-06
1.23254e-06
1.23051e-06
1.22979e-06
1.23033e-06
1.22933e-06
1.2303e-06
1.22829e-06
1.22236e-06
1.22113e-06
1.22238e-06
1.22128e-06
1.22188e-06
1.22027e-06
1.22169e-06
1.22006e-06
1.22009e-06
1.22035e-06
1.22035e-06
1.21979e-06
1.21956e-06
1.2194e-06
1.22023e-06
1.21962e-06
1.22133e-06
1.22183e-06
1.22159e-06
1.22001e-06
1.21904e-06
1.21864e-06
1.22098e-06
1.21947e-06
1.21924e-06
1.21928e-06
1.2193e-06
1.21884e-06
1.21824e-06
1.21904e-06
1.21807e-06
1.21673e-06
1.2172e-06
1.21658e-06
1.21716e-06
1.21494e-06
1.21542e-06
1.21581e-06
1.21931e-06
1.21847e-06
1.21873e-06
1.22023e-06
1.21812e-06
1.21954e-06
1.21884e-06
1.21656e-06
1.21615e-06
1.21711e-06
1.21925e-06
1.21809e-06
1.21874e-06
1.2186e-06
1.2178e-06
1.21868e-06
1.21752e-06
1.21739e-06
1.21859e-06
1.2179e-06
1.21768e-06
1.21899e-06
1.21729e-06
1.21848e-06
1.21875e-06
1.21848e-06
)
;

boundaryField
{
    inlet
    {
        type            calculated;
        value           uniform -1.225e-06;
    }
    outlet
    {
        type            calculated;
        value           uniform 1.21894e-06;
    }
    yzfaces
    {
        type            empty;
    }
}


// ************************************************************************* //
