/*--------------------------------*- C++ -*----------------------------------*\
| =========                 |                                                 |
| \\      /  F ield         | foam-extend: Open Source CFD                    |
|  \\    /   O peration     | Version:     5.0                                |
|   \\  /    A nd           | Web:         http://www.foam-extend.org         |
|    \\/     M anipulation  |                                                 |
\*---------------------------------------------------------------------------*/
FoamFile
{
    version     2.0;
    format      ascii;
    class       surfaceScalarField;
    location    "3";
    object      phi;
}
// * * * * * * * * * * * * * * * * * * * * * * * * * * * * * * * * * * * * * //

dimensions      [0 3 -1 0 0 0 0];

internalField   nonuniform List<scalar> 
99
(
1.21666e-06
1.22023e-06
1.21149e-06
1.20452e-06
1.2005e-06
1.20586e-06
1.20796e-06
1.20895e-06
1.20496e-06
1.20465e-06
1.20519e-06
1.20956e-06
1.2083e-06
1.21043e-06
1.20998e-06
1.2116e-06
1.20563e-06
1.20597e-06
1.20197e-06
1.20165e-06
1.19757e-06
1.20113e-06
1.20158e-06
1.2004e-06
1.19901e-06
1.20116e-06
1.20096e-06
1.19803e-06
1.20005e-06
1.19783e-06
1.19962e-06
1.19384e-06
1.19331e-06
1.18984e-06
1.1867e-06
1.18264e-06
1.17981e-06
1.18061e-06
1.18143e-06
1.18023e-06
1.17902e-06
1.18144e-06
1.18017e-06
1.1788e-06
1.17784e-06
1.18077e-06
1.17994e-06
1.18017e-06
1.17959e-06
1.17759e-06
1.17621e-06
1.17936e-06
1.17872e-06
1.17895e-06
1.17775e-06
1.17908e-06
1.17839e-06
1.17946e-06
1.18047e-06
1.17959e-06
1.17931e-06
1.17915e-06
1.17916e-06
1.17975e-06
1.17882e-06
1.17884e-06
1.17807e-06
1.17656e-06
1.1754e-06
1.17553e-06
1.17537e-06
1.17533e-06
1.17447e-06
1.1745e-06
1.17515e-06
1.17484e-06
1.17222e-06
1.17417e-06
1.17469e-06
1.17398e-06
1.17517e-06
1.1756e-06
1.17694e-06
1.17486e-06
1.17586e-06
1.17617e-06
1.17769e-06
1.17958e-06
1.17691e-06
1.17506e-06
1.17516e-06
1.17626e-06
1.1742e-06
1.17374e-06
1.17315e-06
1.17004e-06
1.16941e-06
1.17027e-06
1.16964e-06
)
;

boundaryField
{
    inlet
    {
        type            calculated;
        value           uniform -1.225e-06;
    }
    outlet
    {
        type            calculated;
        value           uniform 1.16782e-06;
    }
    yzfaces
    {
        type            empty;
    }
}


// ************************************************************************* //
