/*--------------------------------*- C++ -*----------------------------------*\
| =========                 |                                                 |
| \\      /  F ield         | foam-extend: Open Source CFD                    |
|  \\    /   O peration     | Version:     5.0                                |
|   \\  /    A nd           | Web:         http://www.foam-extend.org         |
|    \\/     M anipulation  |                                                 |
\*---------------------------------------------------------------------------*/
FoamFile
{
    version     2.0;
    format      ascii;
    class       surfaceScalarField;
    location    "3";
    object      phi;
}
// * * * * * * * * * * * * * * * * * * * * * * * * * * * * * * * * * * * * * //

dimensions      [0 3 -1 0 0 0 0];

internalField   nonuniform List<scalar> 
99
(
1.22431e-06
1.21992e-06
1.21232e-06
1.21026e-06
1.20503e-06
1.20833e-06
1.20131e-06
1.2015e-06
1.20616e-06
1.20643e-06
1.2048e-06
1.19158e-06
1.19994e-06
1.19801e-06
1.19997e-06
1.19891e-06
1.1977e-06
1.19937e-06
1.2009e-06
1.203e-06
1.20195e-06
1.20244e-06
1.20285e-06
1.20482e-06
1.19984e-06
1.20323e-06
1.20565e-06
1.20294e-06
1.19961e-06
1.20271e-06
1.20392e-06
1.20594e-06
1.20198e-06
1.20394e-06
1.20478e-06
1.20386e-06
1.20711e-06
1.20411e-06
1.20905e-06
1.20681e-06
1.20557e-06
1.20418e-06
1.20156e-06
1.20577e-06
1.20624e-06
1.20656e-06
1.20431e-06
1.20372e-06
1.20349e-06
1.20627e-06
1.2047e-06
1.2034e-06
1.20039e-06
1.2015e-06
1.20273e-06
1.20287e-06
1.20267e-06
1.20346e-06
1.20366e-06
1.20423e-06
1.20483e-06
1.20373e-06
1.2022e-06
1.20221e-06
1.20193e-06
1.20365e-06
1.20412e-06
1.20426e-06
1.20564e-06
1.20586e-06
1.20621e-06
1.20731e-06
1.20698e-06
1.20601e-06
1.20579e-06
1.20614e-06
1.20556e-06
1.204e-06
1.20348e-06
1.20367e-06
1.20503e-06
1.20468e-06
1.20278e-06
1.20373e-06
1.20481e-06
1.20832e-06
1.20673e-06
1.20601e-06
1.20523e-06
1.20486e-06
1.203e-06
1.20397e-06
1.2042e-06
1.20365e-06
1.20275e-06
1.20184e-06
1.20066e-06
1.19814e-06
1.19795e-06
)
;

boundaryField
{
    inlet
    {
        type            calculated;
        value           uniform -1.225e-06;
    }
    outlet
    {
        type            calculated;
        value           uniform 1.19746e-06;
    }
    yzfaces
    {
        type            empty;
    }
}


// ************************************************************************* //
