/*--------------------------------*- C++ -*----------------------------------*\
| =========                 |                                                 |
| \\      /  F ield         | foam-extend: Open Source CFD                    |
|  \\    /   O peration     | Version:     5.0                                |
|   \\  /    A nd           | Web:         http://www.foam-extend.org         |
|    \\/     M anipulation  |                                                 |
\*---------------------------------------------------------------------------*/
FoamFile
{
    version     2.0;
    format      ascii;
    class       surfaceScalarField;
    location    "3";
    object      phi.water;
}
// * * * * * * * * * * * * * * * * * * * * * * * * * * * * * * * * * * * * * //

dimensions      [0 3 -1 0 0 0 0];

internalField   nonuniform List<scalar> 
99
(
1.55742e-07
2.74888e-07
3.82187e-07
4.61937e-07
5.59206e-07
6.67745e-07
7.54368e-07
8.34697e-07
9.344e-07
9.89494e-07
1.06217e-06
1.14382e-06
1.22133e-06
1.30253e-06
1.373e-06
1.43753e-06
1.52157e-06
1.58957e-06
1.67398e-06
1.74188e-06
1.8085e-06
1.89157e-06
1.9763e-06
2.03841e-06
2.12051e-06
2.18329e-06
2.25925e-06
2.32813e-06
2.41005e-06
2.47657e-06
2.55232e-06
2.62974e-06
2.70695e-06
2.78859e-06
2.86161e-06
2.92495e-06
3.01383e-06
3.107e-06
3.19708e-06
3.29241e-06
3.38464e-06
3.48927e-06
3.58563e-06
3.69503e-06
3.81045e-06
3.92856e-06
4.05172e-06
4.18538e-06
4.33172e-06
4.48498e-06
4.64352e-06
4.82266e-06
5.00253e-06
5.18395e-06
5.36106e-06
5.53245e-06
5.69004e-06
5.83179e-06
5.92492e-06
5.99845e-06
6.04751e-06
6.07764e-06
6.09286e-06
6.10149e-06
6.1116e-06
6.10772e-06
6.10156e-06
6.1062e-06
6.10369e-06
6.10602e-06
6.09526e-06
6.09827e-06
6.10143e-06
6.11487e-06
6.11049e-06
6.11567e-06
6.11999e-06
6.10899e-06
6.11768e-06
6.1144e-06
6.10643e-06
6.10793e-06
6.11292e-06
6.12316e-06
6.11685e-06
6.11832e-06
6.11553e-06
6.11172e-06
6.11679e-06
6.11425e-06
6.11683e-06
6.12112e-06
6.11415e-06
6.11398e-06
6.12214e-06
6.11263e-06
6.11975e-06
6.11991e-06
6.11571e-06
)
;

boundaryField
{
    inlet
    {
        type            fixedValue;
        value           uniform 0;
    }
    outlet
    {
        type            calculated;
        value           uniform 6.1168e-06;
    }
    yzfaces
    {
        type            empty;
    }
}


// ************************************************************************* //
