/*--------------------------------*- C++ -*----------------------------------*\
| =========                 |                                                 |
| \\      /  F ield         | foam-extend: Open Source CFD                    |
|  \\    /   O peration     | Version:     5.0                                |
|   \\  /    A nd           | Web:         http://www.foam-extend.org         |
|    \\/     M anipulation  |                                                 |
\*---------------------------------------------------------------------------*/
FoamFile
{
    version     2.0;
    format      ascii;
    class       surfaceScalarField;
    location    "3";
    object      phi.water;
}
// * * * * * * * * * * * * * * * * * * * * * * * * * * * * * * * * * * * * * //

dimensions      [0 3 -1 0 0 0 0];

internalField   nonuniform List<scalar> 
99
(
1.58676e-07
2.68648e-07
3.78998e-07
4.69433e-07
5.55239e-07
6.52013e-07
7.36224e-07
8.22578e-07
9.04082e-07
9.7515e-07
1.04831e-06
1.10367e-06
1.20575e-06
1.27901e-06
1.34838e-06
1.42157e-06
1.49157e-06
1.56793e-06
1.64082e-06
1.71109e-06
1.77704e-06
1.85575e-06
1.92615e-06
2.00356e-06
2.06293e-06
2.14491e-06
2.21926e-06
2.27808e-06
2.33949e-06
2.42886e-06
2.50547e-06
2.58635e-06
2.64199e-06
2.73106e-06
2.81416e-06
2.89083e-06
2.98443e-06
3.05889e-06
3.16406e-06
3.24778e-06
3.33765e-06
3.43617e-06
3.53506e-06
3.65741e-06
3.77011e-06
3.88739e-06
4.00329e-06
4.13746e-06
4.27751e-06
4.4393e-06
4.59203e-06
4.7588e-06
4.92618e-06
5.11322e-06
5.3004e-06
5.4718e-06
5.62279e-06
5.75362e-06
5.85221e-06
5.92448e-06
5.97004e-06
5.99243e-06
6.0075e-06
6.01682e-06
6.02108e-06
6.03548e-06
6.0355e-06
6.03524e-06
6.04228e-06
6.0425e-06
6.04701e-06
6.04961e-06
6.04376e-06
6.04483e-06
6.04991e-06
6.05259e-06
6.04934e-06
6.04486e-06
6.04486e-06
6.04574e-06
6.05225e-06
6.04897e-06
6.03979e-06
6.04513e-06
6.04714e-06
6.0587e-06
6.04757e-06
6.04435e-06
6.04181e-06
6.03944e-06
6.03112e-06
6.03555e-06
6.03344e-06
6.03297e-06
6.0295e-06
6.02661e-06
6.0227e-06
6.01341e-06
6.01692e-06
)
;

boundaryField
{
    inlet
    {
        type            fixedValue;
        value           uniform 0;
    }
    outlet
    {
        type            calculated;
        value           uniform 6.0146e-06;
    }
    yzfaces
    {
        type            empty;
    }
}


// ************************************************************************* //
