/*--------------------------------*- C++ -*----------------------------------*\
| =========                 |                                                 |
| \\      /  F ield         | foam-extend: Open Source CFD                    |
|  \\    /   O peration     | Version:     5.0                                |
|   \\  /    A nd           | Web:         http://www.foam-extend.org         |
|    \\/     M anipulation  |                                                 |
\*---------------------------------------------------------------------------*/
FoamFile
{
    version     2.0;
    format      ascii;
    class       volVectorField;
    location    "3";
    object      U.gas;
}
// * * * * * * * * * * * * * * * * * * * * * * * * * * * * * * * * * * * * * //

dimensions      [0 1 -1 0 0 0 0];

internalField   nonuniform List<vector> 
100
(
(0.00686117 0 0)
(0.0076577 0 0)
(0.00821352 0 0)
(0.00865034 0 0)
(0.00903317 0 0)
(0.00943237 0 0)
(0.00981412 0 0)
(0.0100694 0 0)
(0.0103401 0 0)
(0.0105467 0 0)
(0.0107309 0 0)
(0.0109813 0 0)
(0.0111763 0 0)
(0.0113792 0 0)
(0.0115309 0 0)
(0.0117052 0 0)
(0.0118199 0 0)
(0.0119483 0 0)
(0.0120422 0 0)
(0.0121415 0 0)
(0.0122261 0 0)
(0.0123452 0 0)
(0.0124518 0 0)
(0.0125226 0 0)
(0.0126021 0 0)
(0.0126928 0 0)
(0.0127784 0 0)
(0.0128156 0 0)
(0.0128811 0 0)
(0.0129168 0 0)
(0.0129601 0 0)
(0.0129702 0 0)
(0.0129866 0 0)
(0.0129852 0 0)
(0.012983 0 0)
(0.0129632 0 0)
(0.0129444 0 0)
(0.0129392 0 0)
(0.0129457 0 0)
(0.0129318 0 0)
(0.0128988 0 0)
(0.0128826 0 0)
(0.0128415 0 0)
(0.0127751 0 0)
(0.0127028 0 0)
(0.012625 0 0)
(0.0125195 0 0)
(0.0123873 0 0)
(0.0122247 0 0)
(0.0120124 0 0)
(0.0117534 0 0)
(0.0114594 0 0)
(0.0110924 0 0)
(0.0106308 0 0)
(0.010075 0 0)
(0.00942517 0 0)
(0.00868792 0 0)
(0.0078972 0 0)
(0.00710234 0 0)
(0.00637198 0 0)
(0.00576234 0 0)
(0.00530199 0 0)
(0.0049853 0 0)
(0.00478075 0 0)
(0.00465398 0 0)
(0.00457742 0 0)
(0.00453191 0 0)
(0.00450203 0 0)
(0.00448142 0 0)
(0.00447149 0 0)
(0.00446668 0 0)
(0.00446381 0 0)
(0.00446117 0 0)
(0.00445933 0 0)
(0.00445977 0 0)
(0.00446117 0 0)
(0.00445606 0 0)
(0.00445502 0 0)
(0.0044594 0 0)
(0.00445865 0 0)
(0.00445959 0 0)
(0.00446164 0 0)
(0.00446479 0 0)
(0.00446284 0 0)
(0.00446197 0 0)
(0.00446523 0 0)
(0.00446831 0 0)
(0.00447391 0 0)
(0.00447157 0 0)
(0.0044624 0 0)
(0.00445912 0 0)
(0.00446207 0 0)
(0.0044591 0 0)
(0.00445431 0 0)
(0.0044519 0 0)
(0.00444493 0 0)
(0.00443868 0 0)
(0.00444019 0 0)
(0.00443926 0 0)
(0.00443338 0 0)
)
;

boundaryField
{
    inlet
    {
        type            fixedValue;
        value           uniform (0.005 0 0);
    }
    outlet
    {
        type            zeroGradient;
    }
    yzfaces
    {
        type            empty;
    }
}


// ************************************************************************* //
