/*--------------------------------*- C++ -*----------------------------------*\
| =========                 |                                                 |
| \\      /  F ield         | foam-extend: Open Source CFD                    |
|  \\    /   O peration     | Version:     5.0                                |
|   \\  /    A nd           | Web:         http://www.foam-extend.org         |
|    \\/     M anipulation  |                                                 |
\*---------------------------------------------------------------------------*/
FoamFile
{
    version     2.0;
    format      ascii;
    class       volVectorField;
    location    "3";
    object      U.gas;
}
// * * * * * * * * * * * * * * * * * * * * * * * * * * * * * * * * * * * * * //

dimensions      [0 1 -1 0 0 0 0];

internalField   nonuniform List<vector> 
100
(
(0.00687467 0 0)
(0.00763384 0 0)
(0.00823598 0 0)
(0.00866619 0 0)
(0.00905065 0 0)
(0.00944004 0 0)
(0.00976116 0 0)
(0.0100265 0 0)
(0.0102963 0 0)
(0.0105435 0 0)
(0.0107549 0 0)
(0.0108718 0 0)
(0.0110953 0 0)
(0.0112908 0 0)
(0.0114426 0 0)
(0.0116099 0 0)
(0.0117342 0 0)
(0.0118751 0 0)
(0.0120111 0 0)
(0.0121427 0 0)
(0.0122544 0 0)
(0.0123684 0 0)
(0.0124588 0 0)
(0.0125705 0 0)
(0.0126276 0 0)
(0.0127047 0 0)
(0.0128011 0 0)
(0.0128523 0 0)
(0.0128763 0 0)
(0.0129534 0 0)
(0.0130162 0 0)
(0.0130776 0 0)
(0.0130852 0 0)
(0.013128 0 0)
(0.0131653 0 0)
(0.0131778 0 0)
(0.013211 0 0)
(0.0132135 0 0)
(0.0132329 0 0)
(0.0132295 0 0)
(0.0131912 0 0)
(0.0131528 0 0)
(0.0130863 0 0)
(0.0130388 0 0)
(0.0129877 0 0)
(0.0129025 0 0)
(0.0127778 0 0)
(0.012636 0 0)
(0.0124611 0 0)
(0.0122673 0 0)
(0.0120115 0 0)
(0.0116861 0 0)
(0.0112783 0 0)
(0.0107948 0 0)
(0.010231 0 0)
(0.00956102 0 0)
(0.00879636 0 0)
(0.00797743 0 0)
(0.00716857 0 0)
(0.00642994 0 0)
(0.00582551 0 0)
(0.0053719 0 0)
(0.00505757 0 0)
(0.00485598 0 0)
(0.00473378 0 0)
(0.00466354 0 0)
(0.00462561 0 0)
(0.00460252 0 0)
(0.00459143 0 0)
(0.00458593 0 0)
(0.00458083 0 0)
(0.00458073 0 0)
(0.00458162 0 0)
(0.0045778 0 0)
(0.00457498 0 0)
(0.0045746 0 0)
(0.00457381 0 0)
(0.00457004 0 0)
(0.00456669 0 0)
(0.00456701 0 0)
(0.00456958 0 0)
(0.0045725 0 0)
(0.00456874 0 0)
(0.00456755 0 0)
(0.00457156 0 0)
(0.00458112 0 0)
(0.00458531 0 0)
(0.00458007 0 0)
(0.00457651 0 0)
(0.00457413 0 0)
(0.00457011 0 0)
(0.00456778 0 0)
(0.00456995 0 0)
(0.00456895 0 0)
(0.00456573 0 0)
(0.00456271 0 0)
(0.0045586 0 0)
(0.00455123 0 0)
(0.00454743 0 0)
(0.00454765 0 0)
)
;

boundaryField
{
    inlet
    {
        type            fixedValue;
        value           uniform (0.005 0 0);
    }
    outlet
    {
        type            zeroGradient;
    }
    yzfaces
    {
        type            empty;
    }
}


// ************************************************************************* //
