/*--------------------------------*- C++ -*----------------------------------*\
| =========                 |                                                 |
| \\      /  F ield         | foam-extend: Open Source CFD                    |
|  \\    /   O peration     | Version:     5.0                                |
|   \\  /    A nd           | Web:         http://www.foam-extend.org         |
|    \\/     M anipulation  |                                                 |
\*---------------------------------------------------------------------------*/
FoamFile
{
    version     2.0;
    format      ascii;
    class       volVectorField;
    location    "3";
    object      U.gas;
}
// * * * * * * * * * * * * * * * * * * * * * * * * * * * * * * * * * * * * * //

dimensions      [0 1 -1 0 0 0 0];

internalField   nonuniform List<vector> 
100
(
(0.0068485 0 0)
(0.00764514 0 0)
(0.00824496 0 0)
(0.00865011 0 0)
(0.00908467 0 0)
(0.00953886 0 0)
(0.00986294 0 0)
(0.010145 0 0)
(0.0104903 0 0)
(0.0106904 0 0)
(0.010898 0 0)
(0.0111107 0 0)
(0.0113175 0 0)
(0.0115101 0 0)
(0.0116587 0 0)
(0.0117995 0 0)
(0.0119826 0 0)
(0.0121118 0 0)
(0.0122645 0 0)
(0.0123892 0 0)
(0.0124981 0 0)
(0.0126104 0 0)
(0.0127386 0 0)
(0.012828 0 0)
(0.0129326 0 0)
(0.0130024 0 0)
(0.0130726 0 0)
(0.013131 0 0)
(0.0132121 0 0)
(0.0132579 0 0)
(0.0133035 0 0)
(0.0133439 0 0)
(0.0133836 0 0)
(0.0134122 0 0)
(0.0134315 0 0)
(0.0134007 0 0)
(0.0133942 0 0)
(0.0133985 0 0)
(0.0133971 0 0)
(0.0133802 0 0)
(0.013354 0 0)
(0.0133223 0 0)
(0.0132707 0 0)
(0.0132154 0 0)
(0.0131491 0 0)
(0.0130612 0 0)
(0.0129451 0 0)
(0.0128074 0 0)
(0.0126389 0 0)
(0.0124288 0 0)
(0.0121756 0 0)
(0.0118617 0 0)
(0.0114779 0 0)
(0.0110049 0 0)
(0.0104284 0 0)
(0.00974792 0 0)
(0.00898042 0 0)
(0.0081653 0 0)
(0.00734345 0 0)
(0.00658367 0 0)
(0.00595407 0 0)
(0.00548029 0 0)
(0.00515152 0 0)
(0.00493554 0 0)
(0.00480634 0 0)
(0.0047299 0 0)
(0.00468032 0 0)
(0.00465095 0 0)
(0.0046356 0 0)
(0.00462773 0 0)
(0.00461946 0 0)
(0.00461327 0 0)
(0.00461367 0 0)
(0.00461863 0 0)
(0.00462444 0 0)
(0.00462397 0 0)
(0.00462745 0 0)
(0.00462618 0 0)
(0.00462496 0 0)
(0.00462518 0 0)
(0.0046197 0 0)
(0.00461568 0 0)
(0.00461697 0 0)
(0.00462244 0 0)
(0.00462302 0 0)
(0.00462246 0 0)
(0.00462391 0 0)
(0.00462119 0 0)
(0.00462126 0 0)
(0.00462183 0 0)
(0.00461995 0 0)
(0.00462178 0 0)
(0.00462364 0 0)
(0.0046215 0 0)
(0.00462297 0 0)
(0.00462313 0 0)
(0.00462137 0 0)
(0.00462422 0 0)
(0.00462393 0 0)
(0.00462323 0 0)
)
;

boundaryField
{
    inlet
    {
        type            fixedValue;
        value           uniform (0.005 0 0);
    }
    outlet
    {
        type            zeroGradient;
    }
    yzfaces
    {
        type            empty;
    }
}


// ************************************************************************* //
