/*--------------------------------*- C++ -*----------------------------------*\
| =========                 |                                                 |
| \\      /  F ield         | foam-extend: Open Source CFD                    |
|  \\    /   O peration     | Version:     5.0                                |
|   \\  /    A nd           | Web:         http://www.foam-extend.org         |
|    \\/     M anipulation  |                                                 |
\*---------------------------------------------------------------------------*/
FoamFile
{
    version     2.0;
    format      ascii;
    class       volVectorField;
    location    "3";
    object      U.water;
}
// * * * * * * * * * * * * * * * * * * * * * * * * * * * * * * * * * * * * * //

dimensions      [0 1 -1 0 0 0 0];

internalField   nonuniform List<vector> 
100
(
(7.41304e-05 0 0)
(0.000176238 0 0)
(0.000264388 0 0)
(0.000346713 0 0)
(0.00041878 0 0)
(0.000492559 0 0)
(0.000566681 0 0)
(0.000635955 0 0)
(0.000703807 0 0)
(0.000766478 0 0)
(0.000826396 0 0)
(0.000880624 0 0)
(0.000941659 0 0)
(0.00101324 0 0)
(0.00107229 0 0)
(0.00112997 0 0)
(0.00118896 0 0)
(0.00124836 0 0)
(0.001309 0 0)
(0.00136778 0 0)
(0.00142429 0 0)
(0.00148248 0 0)
(0.00154351 0 0)
(0.00160359 0 0)
(0.0016604 0 0)
(0.00171705 0 0)
(0.00178071 0 0)
(0.00183658 0 0)
(0.00188604 0 0)
(0.0019452 0 0)
(0.00201295 0 0)
(0.00207778 0 0)
(0.00213555 0 0)
(0.00219323 0 0)
(0.00226314 0 0)
(0.0023289 0 0)
(0.00239773 0 0)
(0.00246682 0 0)
(0.00253968 0 0)
(0.00261767 0 0)
(0.00268958 0 0)
(0.00276582 0 0)
(0.00284514 0 0)
(0.00293476 0 0)
(0.00303162 0 0)
(0.00312692 0 0)
(0.00322251 0 0)
(0.00332273 0 0)
(0.00343468 0 0)
(0.00355897 0 0)
(0.00368858 0 0)
(0.0038184 0 0)
(0.00395348 0 0)
(0.00409812 0 0)
(0.00425156 0 0)
(0.00439893 0 0)
(0.00453229 0 0)
(0.00464847 0 0)
(0.00474193 0 0)
(0.00481112 0 0)
(0.00485979 0 0)
(0.00488869 0 0)
(0.00490177 0 0)
(0.00490975 0 0)
(0.0049157 0 0)
(0.00492244 0 0)
(0.0049291 0 0)
(0.00493157 0 0)
(0.00493539 0 0)
(0.00493912 0 0)
(0.0049406 0 0)
(0.00494371 0 0)
(0.0049453 0 0)
(0.00494271 0 0)
(0.00494031 0 0)
(0.00494061 0 0)
(0.00494016 0 0)
(0.00493574 0 0)
(0.00493145 0 0)
(0.00493074 0 0)
(0.00493393 0 0)
(0.00493593 0 0)
(0.00493131 0 0)
(0.00492933 0 0)
(0.00493348 0 0)
(0.00494285 0 0)
(0.00494675 0 0)
(0.00494205 0 0)
(0.00493902 0 0)
(0.0049367 0 0)
(0.0049321 0 0)
(0.0049303 0 0)
(0.00493276 0 0)
(0.00493214 0 0)
(0.0049292 0 0)
(0.00492547 0 0)
(0.0049212 0 0)
(0.00491363 0 0)
(0.00490801 0 0)
(0.00490653 0 0)
)
;

boundaryField
{
    inlet
    {
        type            fixedValue;
        value           uniform (0 0 0);
    }
    outlet
    {
        type            zeroGradient;
    }
    yzfaces
    {
        type            empty;
    }
}


// ************************************************************************* //
