/*--------------------------------*- C++ -*----------------------------------*\
| =========                 |                                                 |
| \\      /  F ield         | foam-extend: Open Source CFD                    |
|  \\    /   O peration     | Version:     5.0                                |
|   \\  /    A nd           | Web:         http://www.foam-extend.org         |
|    \\/     M anipulation  |                                                 |
\*---------------------------------------------------------------------------*/
FoamFile
{
    version     2.0;
    format      ascii;
    class       volVectorField;
    location    "3";
    object      U.water;
}
// * * * * * * * * * * * * * * * * * * * * * * * * * * * * * * * * * * * * * //

dimensions      [0 1 -1 0 0 0 0];

internalField   nonuniform List<vector> 
100
(
(7.41718e-05 0 0)
(0.000178611 0 0)
(0.000266377 0 0)
(0.000343676 0 0)
(0.000419165 0 0)
(0.000495061 0 0)
(0.000572747 0 0)
(0.000643409 0 0)
(0.000704544 0 0)
(0.000768804 0 0)
(0.000827856 0 0)
(0.000888277 0 0)
(0.000952452 0 0)
(0.00101434 0 0)
(0.00107651 0 0)
(0.00113482 0 0)
(0.00119325 0 0)
(0.00125066 0 0)
(0.00131018 0 0)
(0.00136505 0 0)
(0.00142076 0 0)
(0.00148028 0 0)
(0.00154406 0 0)
(0.00159951 0 0)
(0.00165297 0 0)
(0.00171372 0 0)
(0.00177718 0 0)
(0.00183435 0 0)
(0.00189256 0 0)
(0.00195289 0 0)
(0.0020092 0 0)
(0.00206217 0 0)
(0.00211501 0 0)
(0.00217245 0 0)
(0.00222694 0 0)
(0.00228427 0 0)
(0.00234364 0 0)
(0.00241049 0 0)
(0.00248306 0 0)
(0.00255574 0 0)
(0.00262759 0 0)
(0.00270677 0 0)
(0.00278937 0 0)
(0.00286835 0 0)
(0.00295248 0 0)
(0.00304948 0 0)
(0.00315061 0 0)
(0.00325157 0 0)
(0.00335962 0 0)
(0.00347125 0 0)
(0.00358937 0 0)
(0.00372464 0 0)
(0.00386838 0 0)
(0.00401194 0 0)
(0.00415574 0 0)
(0.00429801 0 0)
(0.00443055 0 0)
(0.0045451 0 0)
(0.00464117 0 0)
(0.00470962 0 0)
(0.00475445 0 0)
(0.00478436 0 0)
(0.00480315 0 0)
(0.00481593 0 0)
(0.00482199 0 0)
(0.00482403 0 0)
(0.00482477 0 0)
(0.00482142 0 0)
(0.00481673 0 0)
(0.00481501 0 0)
(0.00481518 0 0)
(0.00481491 0 0)
(0.00481312 0 0)
(0.00481142 0 0)
(0.00481287 0 0)
(0.00481351 0 0)
(0.0048075 0 0)
(0.00480612 0 0)
(0.00481119 0 0)
(0.00481082 0 0)
(0.00481179 0 0)
(0.00481515 0 0)
(0.00481881 0 0)
(0.00481733 0 0)
(0.00481505 0 0)
(0.00481769 0 0)
(0.00482144 0 0)
(0.00482848 0 0)
(0.00482694 0 0)
(0.00481772 0 0)
(0.00481413 0 0)
(0.00481655 0 0)
(0.00481463 0 0)
(0.00480947 0 0)
(0.00480735 0 0)
(0.00479976 0 0)
(0.00479207 0 0)
(0.00479247 0 0)
(0.00479301 0 0)
(0.00478807 0 0)
)
;

boundaryField
{
    inlet
    {
        type            fixedValue;
        value           uniform (0 0 0);
    }
    outlet
    {
        type            zeroGradient;
    }
    yzfaces
    {
        type            empty;
    }
}


// ************************************************************************* //
