/*--------------------------------*- C++ -*----------------------------------*\
| =========                 |                                                 |
| \\      /  F ield         | foam-extend: Open Source CFD                    |
|  \\    /   O peration     | Version:     5.0                                |
|   \\  /    A nd           | Web:         http://www.foam-extend.org         |
|    \\/     M anipulation  |                                                 |
\*---------------------------------------------------------------------------*/
FoamFile
{
    version     2.0;
    format      ascii;
    class       volVectorField;
    location    "3";
    object      U.water;
}
// * * * * * * * * * * * * * * * * * * * * * * * * * * * * * * * * * * * * * //

dimensions      [0 1 -1 0 0 0 0];

internalField   nonuniform List<vector> 
100
(
(7.32869e-05 0 0)
(0.000176717 0 0)
(0.000267663 0 0)
(0.000346036 0 0)
(0.000417848 0 0)
(0.000499368 0 0)
(0.000579817 0 0)
(0.000648611 0 0)
(0.000719068 0 0)
(0.000785594 0 0)
(0.000837889 0 0)
(0.000900299 0 0)
(0.000965784 0 0)
(0.00102969 0 0)
(0.00109173 0 0)
(0.0011477 0 0)
(0.0012067 0 0)
(0.00126958 0 0)
(0.00133075 0 0)
(0.00139429 0 0)
(0.00145004 0 0)
(0.00150956 0 0)
(0.00157734 0 0)
(0.00163846 0 0)
(0.00169678 0 0)
(0.00175662 0 0)
(0.00181275 0 0)
(0.00187242 0 0)
(0.00193353 0 0)
(0.00199506 0 0)
(0.00205296 0 0)
(0.00211555 0 0)
(0.00217819 0 0)
(0.00224333 0 0)
(0.00230775 0 0)
(0.00236482 0 0)
(0.00242489 0 0)
(0.00249833 0 0)
(0.00257331 0 0)
(0.00264922 0 0)
(0.0027258 0 0)
(0.00280588 0 0)
(0.00288781 0 0)
(0.00296953 0 0)
(0.00305956 0 0)
(0.00315561 0 0)
(0.00325543 0 0)
(0.0033605 0 0)
(0.00347387 0 0)
(0.0035965 0 0)
(0.00372561 0 0)
(0.00386482 0 0)
(0.00401247 0 0)
(0.00416106 0 0)
(0.00430754 0 0)
(0.00444914 0 0)
(0.00458202 0 0)
(0.00470342 0 0)
(0.00479977 0 0)
(0.00486673 0 0)
(0.00491516 0 0)
(0.00494703 0 0)
(0.00496588 0 0)
(0.00497572 0 0)
(0.00498308 0 0)
(0.0049867 0 0)
(0.00498429 0 0)
(0.00498392 0 0)
(0.00498437 0 0)
(0.00498468 0 0)
(0.00498158 0 0)
(0.00497816 0 0)
(0.00498 0 0)
(0.00498812 0 0)
(0.00499351 0 0)
(0.00499228 0 0)
(0.00499589 0 0)
(0.00499464 0 0)
(0.00499321 0 0)
(0.00499475 0 0)
(0.00498866 0 0)
(0.00498309 0 0)
(0.0049842 0 0)
(0.00499058 0 0)
(0.00499265 0 0)
(0.00499158 0 0)
(0.0049926 0 0)
(0.00499073 0 0)
(0.0049909 0 0)
(0.00499025 0 0)
(0.00498757 0 0)
(0.00498979 0 0)
(0.00499079 0 0)
(0.00498894 0 0)
(0.0049912 0 0)
(0.00499037 0 0)
(0.00498936 0 0)
(0.00499234 0 0)
(0.00499237 0 0)
(0.00499282 0 0)
)
;

boundaryField
{
    inlet
    {
        type            fixedValue;
        value           uniform (0 0 0);
    }
    outlet
    {
        type            zeroGradient;
    }
    yzfaces
    {
        type            empty;
    }
}


// ************************************************************************* //
