/*--------------------------------*- C++ -*----------------------------------*\
| =========                 |                                                 |
| \\      /  F ield         | foam-extend: Open Source CFD                    |
|  \\    /   O peration     | Version:     5.0                                |
|   \\  /    A nd           | Web:         http://www.foam-extend.org         |
|    \\/     M anipulation  |                                                 |
\*---------------------------------------------------------------------------*/
FoamFile
{
    version     2.0;
    format      ascii;
    class       volScalarField;
    location    "10";
    object      Cl.water;
}
// * * * * * * * * * * * * * * * * * * * * * * * * * * * * * * * * * * * * * //

dimensions      [0 0 0 0 0 0 0];

internalField   nonuniform List<scalar> 
100
(
0.00327639
0.00470689
0.00565487
0.00632831
0.00702772
0.00758383
0.00772322
0.00794003
0.00807649
0.00817138
0.0088632
0.00946491
0.00999173
0.0102589
0.010495
0.0107355
0.0109833
0.0111764
0.0112779
0.0113554
0.0115489
0.0116914
0.0118578
0.0120402
0.0121402
0.0122434
0.0123925
0.0125281
0.0127001
0.0129466
0.0131517
0.0132597
0.0133062
0.0133686
0.0134273
0.0134679
0.013486
0.0135415
0.0136203
0.0136968
0.0137742
0.0138485
0.0139569
0.0140476
0.0141211
0.0142141
0.0142687
0.0143436
0.0144088
0.0144781
0.0145348
0.0146051
0.014686
0.0147835
0.0148532
0.0149217
0.0150119
0.0150856
0.0151457
0.0151612
0.0152058
0.0152654
0.0153273
0.0153753
0.0154519
0.0155112
0.015596
0.0156402
0.0156934
0.0157147
0.0157806
0.0158424
0.0159437
0.0160089
0.0160587
0.0161539
0.0162141
0.0162865
0.0163824
0.0164362
0.0164964
0.0165721
0.0166861
0.0168028
0.0169289
0.0170737
0.0172752
0.0175885
0.0180691
0.0189238
0.0207019
0.0211257
0.0213508
0.0214088
0.0214447
0.0214388
0.0214217
0.0214063
0.021403
0.0213994
)
;

boundaryField
{
    inlet
    {
        type            fixedValue;
        value           uniform 0;
    }
    outlet
    {
        type            zeroGradient;
    }
    yzfaces
    {
        type            empty;
    }
}


// ************************************************************************* //
