/*--------------------------------*- C++ -*----------------------------------*\
| =========                 |                                                 |
| \\      /  F ield         | foam-extend: Open Source CFD                    |
|  \\    /   O peration     | Version:     5.0                                |
|   \\  /    A nd           | Web:         http://www.foam-extend.org         |
|    \\/     M anipulation  |                                                 |
\*---------------------------------------------------------------------------*/
FoamFile
{
    version     2.0;
    format      ascii;
    class       volScalarField;
    location    "10";
    object      CO2.gas;
}
// * * * * * * * * * * * * * * * * * * * * * * * * * * * * * * * * * * * * * //

dimensions      [0 0 0 0 0 0 0];

internalField   nonuniform List<scalar> 
100
(
0.170137
0.159017
0.150443
0.144474
0.137687
0.133169
0.132247
0.130257
0.129091
0.128134
0.122329
0.117222
0.112794
0.110404
0.108341
0.106268
0.103725
0.102418
0.101464
0.10076
0.0991916
0.0972327
0.095539
0.094751
0.0936526
0.0918885
0.0904217
0.088659
0.0863619
0.0845928
0.0840911
0.0838552
0.0834994
0.0830254
0.0824069
0.0823087
0.0822412
0.0818925
0.0812175
0.0805588
0.0791937
0.0784867
0.0777601
0.0772351
0.0762866
0.0758155
0.0751361
0.0746166
0.074139
0.0737439
0.0729236
0.0721088
0.0715368
0.0709986
0.0703859
0.0697278
0.0690995
0.0684766
0.0679011
0.0674589
0.066973
0.0664926
0.0659747
0.0652766
0.064808
0.0644013
0.0639819
0.0635937
0.0632245
0.062693
0.0622119
0.061485
0.0609473
0.0605093
0.0599057
0.0592393
0.0587061
0.0579808
0.0572653
0.0568193
0.0561418
0.0552844
0.0545192
0.0535647
0.0524589
0.0511896
0.0493537
0.0466891
0.0425067
0.0349327
0.0183848
0.021281
0.0216005
0.0214526
0.021271
0.0210177
0.0207009
0.0203234
0.019888
0.0194092
)
;

boundaryField
{
    inlet
    {
        type            fixedValue;
        value           uniform 0.2;
    }
    outlet
    {
        type            zeroGradient;
    }
    yzfaces
    {
        type            empty;
    }
}


// ************************************************************************* //
