/*--------------------------------*- C++ -*----------------------------------*\
| =========                 |                                                 |
| \\      /  F ield         | foam-extend: Open Source CFD                    |
|  \\    /   O peration     | Version:     5.0                                |
|   \\  /    A nd           | Web:         http://www.foam-extend.org         |
|    \\/     M anipulation  |                                                 |
\*---------------------------------------------------------------------------*/
FoamFile
{
    version     2.0;
    format      ascii;
    class       volScalarField;
    location    "10";
    object      Na.water;
}
// * * * * * * * * * * * * * * * * * * * * * * * * * * * * * * * * * * * * * //

dimensions      [0 0 0 0 0 0 0];

internalField   nonuniform List<scalar> 
100
(
0.0032767
0.00470701
0.00565413
0.0063341
0.00703365
0.0075908
0.00773047
0.00794465
0.00807872
0.00816778
0.00886091
0.00946194
0.00998399
0.0102585
0.0105022
0.0107374
0.0109872
0.0111872
0.0112888
0.0113671
0.0115568
0.011693
0.0118619
0.0120392
0.01213
0.0122397
0.0123825
0.0125213
0.0126963
0.0129421
0.0131443
0.0132525
0.0133021
0.0133675
0.0134257
0.0134705
0.0134871
0.013539
0.0136198
0.013695
0.0137674
0.0138484
0.0139477
0.01405
0.0141167
0.0142164
0.0142722
0.0143475
0.0144156
0.0144839
0.014538
0.014602
0.0146861
0.0147817
0.0148553
0.0149287
0.0150195
0.0150866
0.0151391
0.0151461
0.0151955
0.0152562
0.0153211
0.0153695
0.0154482
0.0155045
0.0155896
0.0156313
0.0156895
0.0157121
0.0157772
0.0158313
0.0159266
0.0159975
0.0160522
0.0161421
0.0162029
0.0162667
0.0163662
0.0164196
0.0164785
0.0165646
0.0166784
0.016799
0.0169219
0.0170712
0.0172778
0.0175944
0.0180693
0.0189259
0.0207073
0.0211308
0.0213571
0.0214231
0.0214686
0.0214526
0.0214424
0.0214233
0.0214136
0.0214105
)
;

boundaryField
{
    inlet
    {
        type            fixedValue;
        value           uniform 0;
    }
    outlet
    {
        type            zeroGradient;
    }
    yzfaces
    {
        type            empty;
    }
}


// ************************************************************************* //
