/*--------------------------------*- C++ -*----------------------------------*\
| =========                 |                                                 |
| \\      /  F ield         | foam-extend: Open Source CFD                    |
|  \\    /   O peration     | Version:     5.0                                |
|   \\  /    A nd           | Web:         http://www.foam-extend.org         |
|    \\/     M anipulation  |                                                 |
\*---------------------------------------------------------------------------*/
FoamFile
{
    version     2.0;
    format      ascii;
    class       surfaceScalarField;
    location    "10";
    object      phi.water;
}
// * * * * * * * * * * * * * * * * * * * * * * * * * * * * * * * * * * * * * //

dimensions      [0 3 -1 0 0 0 0];

internalField   nonuniform List<scalar> 
99
(
5.61233e-08
1.0132e-07
1.40371e-07
1.6997e-07
2.1004e-07
2.46673e-07
2.54861e-07
2.63966e-07
2.6994e-07
2.66037e-07
3.14768e-07
3.64719e-07
4.18215e-07
4.46344e-07
4.73351e-07
5.03236e-07
5.40921e-07
5.60392e-07
5.75584e-07
5.83976e-07
6.11025e-07
6.39574e-07
6.70573e-07
6.96484e-07
7.09577e-07
7.38214e-07
7.69747e-07
7.99283e-07
8.44492e-07
8.95378e-07
9.23222e-07
9.3923e-07
9.48484e-07
9.61297e-07
9.82276e-07
9.93008e-07
9.89683e-07
1.00084e-06
1.01888e-06
1.02999e-06
1.06775e-06
1.09013e-06
1.11525e-06
1.13466e-06
1.16077e-06
1.18489e-06
1.20457e-06
1.21963e-06
1.23797e-06
1.25287e-06
1.27833e-06
1.3101e-06
1.33118e-06
1.35173e-06
1.37445e-06
1.39707e-06
1.42423e-06
1.44405e-06
1.47478e-06
1.48786e-06
1.50824e-06
1.52429e-06
1.54917e-06
1.57769e-06
1.60642e-06
1.6315e-06
1.65722e-06
1.68023e-06
1.68943e-06
1.71482e-06
1.73932e-06
1.77496e-06
1.81369e-06
1.83187e-06
1.86474e-06
1.90496e-06
1.93672e-06
1.97651e-06
2.01328e-06
2.04691e-06
2.0869e-06
2.14297e-06
2.18833e-06
2.24773e-06
2.32092e-06
2.39709e-06
2.50652e-06
2.69411e-06
2.99178e-06
3.56176e-06
5.12926e-06
4.92272e-06
4.86643e-06
4.85707e-06
4.84194e-06
4.82696e-06
4.81745e-06
4.80622e-06
4.79588e-06
)
;

boundaryField
{
    inlet
    {
        type            fixedValue;
        value           uniform 0;
    }
    outlet
    {
        type            calculated;
        value           uniform 4.79026e-06;
    }
    yzfaces
    {
        type            empty;
    }
}


// ************************************************************************* //
