/*--------------------------------*- C++ -*----------------------------------*\
| =========                 |                                                 |
| \\      /  F ield         | foam-extend: Open Source CFD                    |
|  \\    /   O peration     | Version:     5.0                                |
|   \\  /    A nd           | Web:         http://www.foam-extend.org         |
|    \\/     M anipulation  |                                                 |
\*---------------------------------------------------------------------------*/
FoamFile
{
    version     2.0;
    format      ascii;
    class       volScalarField;
    location    "7.25399";
    object      CO2.water;
}
// * * * * * * * * * * * * * * * * * * * * * * * * * * * * * * * * * * * * * //

dimensions      [0 0 0 0 0 0 0];

internalField   nonuniform List<scalar> 
100
(
7.19427e-05
5.66639e-06
3.61148e-07
2.07309e-08
1.11529e-09
5.73255e-11
2.84718e-12
1.37634e-13
6.50741e-15
3.01996e-16
1.37909e-17
6.20895e-19
2.76075e-20
1.21379e-21
5.28162e-23
2.27732e-24
9.7365e-26
4.12954e-27
1.73863e-28
7.26948e-30
3.01958e-31
1.24674e-32
5.11781e-34
2.08913e-35
8.48591e-37
3.42975e-38
1.37982e-39
5.52544e-41
2.20306e-42
8.74682e-44
3.45819e-45
1.36246e-46
5.34732e-48
2.0915e-49
8.15168e-51
3.16646e-52
1.22591e-53
4.73158e-55
1.82044e-56
6.98403e-58
2.67147e-59
1.01914e-60
3.87685e-62
1.47096e-63
5.56529e-65
2.10045e-66
7.90794e-68
2.97038e-69
1.11293e-70
4.16108e-72
1.55218e-73
5.77753e-75
2.14592e-76
7.9539e-78
2.94229e-79
1.08594e-80
3.99867e-82
1.46911e-83
5.38582e-85
1.9701e-86
7.19294e-88
2.62098e-89
9.53435e-91
3.4624e-92
1.25585e-93
4.54772e-95
1.64426e-96
5.93263e-98
2.13645e-99
7.68107e-101
2.7572e-102
9.88226e-104
3.53785e-105
1.26515e-106
4.51697e-108
1.61012e-109
5.73009e-111
2.03562e-112
7.22305e-114
2.5592e-115
9.05631e-117
3.19915e-118
1.12844e-119
3.97486e-121
1.39815e-122
4.91261e-124
1.72351e-125
6.03655e-127
2.11089e-128
7.37168e-130
2.57198e-131
8.96229e-133
3.11819e-134
1.08372e-135
3.76056e-137
1.30334e-138
4.51137e-140
1.55951e-141
5.3826e-143
1.85489e-144
)
;

boundaryField
{
    inlet
    {
        type            fixedValue;
        value           uniform 0;
    }
    outlet
    {
        type            zeroGradient;
    }
    yzfaces
    {
        type            empty;
    }
}


// ************************************************************************* //
