/*--------------------------------*- C++ -*----------------------------------*\
| =========                 |                                                 |
| \\      /  F ield         | foam-extend: Open Source CFD                    |
|  \\    /   O peration     | Version:     5.0                                |
|   \\  /    A nd           | Web:         http://www.foam-extend.org         |
|    \\/     M anipulation  |                                                 |
\*---------------------------------------------------------------------------*/
FoamFile
{
    version     2.0;
    format      ascii;
    class       volScalarField;
    location    "3";
    object      alpha.gas;
}
// * * * * * * * * * * * * * * * * * * * * * * * * * * * * * * * * * * * * * //

dimensions      [0 0 0 0 0 0 0];

internalField   nonuniform List<scalar> 
100
(
0.157961
0.141228
0.131593
0.124278
0.115523
0.110918
0.106472
0.10078
0.0972863
0.0940281
0.0915281
0.089785
0.0873651
0.0853319
0.0833048
0.0810495
0.078875
0.0765139
0.0740476
0.071765
0.0697332
0.0670472
0.0639796
0.0610681
0.0575983
0.0530962
0.0468662
0.0365928
0.01446
0.0302618
0.0292966
0.0287491
0.0284182
0.0282262
0.0281282
0.0280739
0.0280423
0.0279901
0.0279091
0.0277682
0.0275631
0.0272882
0.0268989
0.0263982
0.0257919
0.0250284
0.024083
0.022981
0.0217037
0.0202661
0.0186906
0.0170519
0.0154393
0.0139744
0.012747
0.0118031
0.0111362
0.0106958
0.0104152
0.0102468
0.0101417
0.0100813
0.0100458
0.0100239
0.0100132
0.0100068
0.0100035
0.0100004
0.00999798
0.00999731
0.00999843
0.0100004
0.0100011
0.00999917
0.00999857
0.01
0.00999944
0.00999909
0.0100001
0.00999954
0.00999902
0.00999774
0.00999897
0.0100019
0.0100036
0.0100054
0.0100033
0.0100039
0.0100036
0.0100024
0.00999993
0.0100002
0.00999861
0.00999868
0.00999868
0.00999915
0.00999934
0.0100016
0.0100019
0.01
)
;

boundaryField
{
    inlet
    {
        type            fixedValue;
        value           uniform 0.2;
    }
    outlet
    {
        type            zeroGradient;
    }
    yzfaces
    {
        type            empty;
    }
}


// ************************************************************************* //
