/*--------------------------------*- C++ -*----------------------------------*\
| =========                 |                                                 |
| \\      /  F ield         | foam-extend: Open Source CFD                    |
|  \\    /   O peration     | Version:     5.0                                |
|   \\  /    A nd           | Web:         http://www.foam-extend.org         |
|    \\/     M anipulation  |                                                 |
\*---------------------------------------------------------------------------*/
FoamFile
{
    version     2.0;
    format      ascii;
    class       volScalarField;
    location    "3";
    object      Cl.water;
}
// * * * * * * * * * * * * * * * * * * * * * * * * * * * * * * * * * * * * * //

dimensions      [0 0 0 0 0 0 0];

internalField   nonuniform List<scalar> 
100
(
0.00860191
0.0119657
0.0141767
0.0156702
0.0172105
0.0182841
0.0191612
0.0199875
0.020815
0.0214761
0.0220128
0.0224986
0.0229986
0.0234447
0.0238854
0.0243669
0.0248328
0.0252731
0.0257664
0.0262569
0.0267154
0.0271872
0.027726
0.0284463
0.0291565
0.0300465
0.031304
0.0334422
0.037981
0.0355777
0.0358768
0.0360385
0.0361277
0.0361607
0.0361927
0.0362034
0.0362295
0.0362195
0.0362425
0.0362891
0.0363367
0.0364001
0.0364599
0.0365502
0.0366866
0.036816
0.0369997
0.0372042
0.0375081
0.0378285
0.0381658
0.0385104
0.0388429
0.0391636
0.0394342
0.0396395
0.0397585
0.0398536
0.0399407
0.0399574
0.0399799
0.0400312
0.0400358
0.0400147
0.0400453
0.0400475
0.0400332
0.0400818
0.0400496
0.0400647
0.0400397
0.0400254
0.0400152
0.0400319
0.0400314
0.040025
0.0400272
0.0400331
0.0400435
0.0400195
0.0400085
0.0400149
0.0400249
0.0399999
0.0400038
0.0400241
0.0400274
0.0400127
0.0400072
0.0400159
0.0400256
0.0399946
0.0400033
0.0399942
0.0399873
0.0400116
0.0399719
0.0399645
0.0399725
0.0399757
)
;

boundaryField
{
    inlet
    {
        type            fixedValue;
        value           uniform 0;
    }
    outlet
    {
        type            zeroGradient;
    }
    yzfaces
    {
        type            empty;
    }
}


// ************************************************************************* //
