/*--------------------------------*- C++ -*----------------------------------*\
| =========                 |                                                 |
| \\      /  F ield         | foam-extend: Open Source CFD                    |
|  \\    /   O peration     | Version:     5.0                                |
|   \\  /    A nd           | Web:         http://www.foam-extend.org         |
|    \\/     M anipulation  |                                                 |
\*---------------------------------------------------------------------------*/
FoamFile
{
    version     2.0;
    format      ascii;
    class       volScalarField;
    location    "3";
    object      H2O.gas;
}
// * * * * * * * * * * * * * * * * * * * * * * * * * * * * * * * * * * * * * //

dimensions      [0 0 0 0 0 0 0];

internalField   nonuniform List<scalar> 
100
(
0.000307624
0.000275038
0.000256273
0.000242028
0.000224979
0.00021601
0.000207351
0.000196267
0.000189462
0.000183117
0.000178248
0.000174854
0.000170141
0.000166181
0.000162234
0.000157842
0.000153607
0.000149009
0.000144205
0.00013976
0.000135803
0.000130572
0.000124599
0.000118928
0.000112171
0.000103403
9.12706e-05
7.12634e-05
2.81604e-05
0.00144238
0.00248339
0.00368266
0.00500987
0.00643648
0.00794863
0.00952002
0.0111359
0.0127464
0.0143364
0.0158653
0.0172747
0.0185515
0.0196262
0.020474
0.0210973
0.0213931
0.021371
0.0210238
0.0203852
0.0194293
0.0181923
0.0167808
0.015304
0.0139135
0.0127258
0.0118003
0.0111341
0.0106943
0.0104214
0.0102462
0.0101417
0.010088
0.0100488
0.0100228
0.0100182
0.0100144
0.0100087
0.0100154
0.0100057
0.0100087
0.0100051
0.0100047
0.0100061
0.0100087
0.0100092
0.0100095
0.010007
0.0100104
0.010013
0.0100076
0.0100051
0.0100039
0.0100058
0.0100011
0.0100035
0.01001
0.0100094
0.0100066
0.0100085
0.0100091
0.0100085
0.00999833
0.0099992
0.00999899
0.00999571
0.0100015
0.00999276
0.00999299
0.00999629
0.00999506
)
;

boundaryField
{
    inlet
    {
        type            fixedValue;
        value           uniform 0;
    }
    outlet
    {
        type            zeroGradient;
    }
    yzfaces
    {
        type            empty;
    }
}


// ************************************************************************* //
