/*--------------------------------*- C++ -*----------------------------------*\
| =========                 |                                                 |
| \\      /  F ield         | foam-extend: Open Source CFD                    |
|  \\    /   O peration     | Version:     5.0                                |
|   \\  /    A nd           | Web:         http://www.foam-extend.org         |
|    \\/     M anipulation  |                                                 |
\*---------------------------------------------------------------------------*/
FoamFile
{
    version     2.0;
    format      ascii;
    class       volScalarField;
    location    "3";
    object      H2O.water;
}
// * * * * * * * * * * * * * * * * * * * * * * * * * * * * * * * * * * * * * //

dimensions      [0 0 0 0 0 0 0];

internalField   nonuniform List<scalar> 
100
(
0.0237321
0.0333001
0.0382544
0.0423929
0.0478304
0.0501632
0.0527467
0.0566222
0.0583603
0.0602118
0.0615835
0.062323
0.0636771
0.0647611
0.0658587
0.0671045
0.0682859
0.0696997
0.0711059
0.0723421
0.073409
0.0750686
0.0769915
0.0783755
0.0803432
0.0829276
0.0864636
0.0921847
0.104667
0.0979466
0.0987186
0.0991438
0.0993902
0.0994962
0.0995562
0.0995638
0.099629
0.0996258
0.0996801
0.0998143
0.0999202
0.100111
0.100328
0.100588
0.100966
0.101284
0.101801
0.102363
0.103215
0.104119
0.105026
0.105989
0.106907
0.107716
0.108438
0.109014
0.109358
0.109587
0.109834
0.109857
0.109932
0.11003
0.109997
0.109976
0.110053
0.110091
0.110061
0.110164
0.110091
0.110121
0.110068
0.110045
0.11008
0.110126
0.110139
0.110128
0.110093
0.110147
0.110159
0.110103
0.110081
0.110077
0.110065
0.109965
0.10997
0.110031
0.110071
0.110039
0.110069
0.110082
0.110114
0.109979
0.109995
0.109998
0.109943
0.110008
0.109907
0.109884
0.109924
0.109938
)
;

boundaryField
{
    inlet
    {
        type            fixedValue;
        value           uniform 0;
    }
    outlet
    {
        type            zeroGradient;
    }
    yzfaces
    {
        type            empty;
    }
}


// ************************************************************************* //
