/*--------------------------------*- C++ -*----------------------------------*\
| =========                 |                                                 |
| \\      /  F ield         | foam-extend: Open Source CFD                    |
|  \\    /   O peration     | Version:     5.0                                |
|   \\  /    A nd           | Web:         http://www.foam-extend.org         |
|    \\/     M anipulation  |                                                 |
\*---------------------------------------------------------------------------*/
FoamFile
{
    version     2.0;
    format      ascii;
    class       volScalarField;
    location    "3";
    object      Na.water;
}
// * * * * * * * * * * * * * * * * * * * * * * * * * * * * * * * * * * * * * //

dimensions      [0 0 0 0 0 0 0];

internalField   nonuniform List<scalar> 
100
(
0.0086009
0.0119624
0.0141795
0.0156699
0.017217
0.0182946
0.0191638
0.0200039
0.0208407
0.0215008
0.0220266
0.0224988
0.0230008
0.0234506
0.0238861
0.0243549
0.024825
0.02527
0.025772
0.0262679
0.0267211
0.027205
0.0277303
0.028461
0.0291619
0.0300713
0.0313442
0.0334885
0.038019
0.0356121
0.035899
0.0360546
0.0361566
0.0361923
0.036217
0.0362192
0.0362304
0.0362212
0.0362454
0.0362987
0.0363504
0.0364092
0.0364747
0.0365781
0.0367145
0.0368536
0.0370359
0.0372334
0.0375333
0.037848
0.0381769
0.0385192
0.0388527
0.0391672
0.0394395
0.0396463
0.0397644
0.0398542
0.0399278
0.0399283
0.0399458
0.039984
0.0399795
0.0399662
0.0399829
0.0399982
0.0400024
0.0400384
0.040007
0.0400342
0.0400208
0.0400104
0.0399978
0.0400238
0.0400334
0.0400268
0.0400249
0.0400361
0.0400435
0.040031
0.0400269
0.0400275
0.0400408
0.0400188
0.0400206
0.0400262
0.0400137
0.0399962
0.0400129
0.040027
0.0400235
0.0399915
0.0400141
0.040015
0.0400151
0.0400248
0.0399962
0.0399863
0.0399954
0.0399924
)
;

boundaryField
{
    inlet
    {
        type            fixedValue;
        value           uniform 0;
    }
    outlet
    {
        type            zeroGradient;
    }
    yzfaces
    {
        type            empty;
    }
}


// ************************************************************************* //
