/*--------------------------------*- C++ -*----------------------------------*\
| =========                 |                                                 |
| \\      /  F ield         | foam-extend: Open Source CFD                    |
|  \\    /   O peration     | Version:     5.0                                |
|   \\  /    A nd           | Web:         http://www.foam-extend.org         |
|    \\/     M anipulation  |                                                 |
\*---------------------------------------------------------------------------*/
FoamFile
{
    version     2.0;
    format      ascii;
    class       surfaceScalarField;
    location    "3";
    object      phi;
}
// * * * * * * * * * * * * * * * * * * * * * * * * * * * * * * * * * * * * * //

dimensions      [0 3 -1 0 0 0 0];

internalField   nonuniform List<scalar> 
99
(
1.22376e-06
1.22124e-06
1.22298e-06
1.22837e-06
1.22829e-06
1.22449e-06
1.21618e-06
1.21311e-06
1.21021e-06
1.22078e-06
1.21162e-06
1.20908e-06
1.21067e-06
1.21239e-06
1.2135e-06
1.2082e-06
1.20696e-06
1.20394e-06
1.20406e-06
1.20178e-06
1.19735e-06
1.19762e-06
1.20064e-06
1.20083e-06
1.19856e-06
1.1973e-06
1.19628e-06
1.19604e-06
1.19428e-06
1.19238e-06
1.19259e-06
1.19181e-06
1.19176e-06
1.19148e-06
1.19132e-06
1.19178e-06
1.19164e-06
1.19031e-06
1.18969e-06
1.19077e-06
1.1903e-06
1.18783e-06
1.18865e-06
1.18778e-06
1.18717e-06
1.18608e-06
1.18745e-06
1.18879e-06
1.18944e-06
1.18867e-06
1.1906e-06
1.19067e-06
1.19217e-06
1.19196e-06
1.19096e-06
1.19124e-06
1.19237e-06
1.19236e-06
1.19318e-06
1.19263e-06
1.19336e-06
1.19272e-06
1.19201e-06
1.19356e-06
1.19215e-06
1.19188e-06
1.19113e-06
1.19094e-06
1.19052e-06
1.18925e-06
1.18888e-06
1.18908e-06
1.19069e-06
1.18972e-06
1.18994e-06
1.18862e-06
1.19026e-06
1.19062e-06
1.18977e-06
1.1904e-06
1.18995e-06
1.19085e-06
1.19016e-06
1.18856e-06
1.18694e-06
1.18743e-06
1.18611e-06
1.18559e-06
1.18488e-06
1.18489e-06
1.18418e-06
1.1855e-06
1.18451e-06
1.18421e-06
1.18506e-06
1.18378e-06
1.18176e-06
1.18128e-06
1.1818e-06
)
;

boundaryField
{
    inlet
    {
        type            calculated;
        value           uniform -1.225e-06;
    }
    outlet
    {
        type            calculated;
        value           uniform 1.18103e-06;
    }
    yzfaces
    {
        type            empty;
    }
}


// ************************************************************************* //
