/*--------------------------------*- C++ -*----------------------------------*\
| =========                 |                                                 |
| \\      /  F ield         | foam-extend: Open Source CFD                    |
|  \\    /   O peration     | Version:     5.0                                |
|   \\  /    A nd           | Web:         http://www.foam-extend.org         |
|    \\/     M anipulation  |                                                 |
\*---------------------------------------------------------------------------*/
FoamFile
{
    version     2.0;
    format      ascii;
    class       surfaceScalarField;
    location    "3";
    object      phi.water;
}
// * * * * * * * * * * * * * * * * * * * * * * * * * * * * * * * * * * * * * //

dimensions      [0 3 -1 0 0 0 0];

internalField   nonuniform List<scalar> 
99
(
9.99134e-08
1.90832e-07
2.58425e-07
3.21684e-07
4.20887e-07
4.83321e-07
5.41479e-07
6.34644e-07
7.00584e-07
7.72656e-07
8.32331e-07
8.68977e-07
9.30263e-07
9.8372e-07
1.04417e-06
1.11656e-06
1.18353e-06
1.26532e-06
1.35639e-06
1.44448e-06
1.53197e-06
1.6508e-06
1.80807e-06
1.96655e-06
2.169e-06
2.45394e-06
2.89504e-06
3.88894e-06
4.30373e-06
4.4897e-06
4.59226e-06
4.64492e-06
4.679e-06
4.69801e-06
4.70767e-06
4.71458e-06
4.71718e-06
4.71717e-06
4.72007e-06
4.73648e-06
4.7525e-06
4.76787e-06
4.80808e-06
4.85101e-06
4.90489e-06
4.97173e-06
5.06402e-06
5.16473e-06
5.2697e-06
5.37883e-06
5.50541e-06
5.61867e-06
5.72723e-06
5.80825e-06
5.86321e-06
5.90754e-06
5.94225e-06
5.95748e-06
5.97198e-06
5.97684e-06
5.98209e-06
5.98002e-06
5.97979e-06
5.98789e-06
5.97855e-06
5.97732e-06
5.97151e-06
5.96983e-06
5.96896e-06
5.96288e-06
5.96321e-06
5.96462e-06
5.97108e-06
5.96457e-06
5.96575e-06
5.96001e-06
5.9677e-06
5.96785e-06
5.96453e-06
5.9698e-06
5.96811e-06
5.97247e-06
5.97105e-06
5.96503e-06
5.95525e-06
5.9558e-06
5.94979e-06
5.94752e-06
5.94278e-06
5.94173e-06
5.94081e-06
5.94978e-06
5.94431e-06
5.94379e-06
5.94745e-06
5.94203e-06
5.93522e-06
5.93239e-06
5.93395e-06
)
;

boundaryField
{
    inlet
    {
        type            fixedValue;
        value           uniform 0;
    }
    outlet
    {
        type            calculated;
        value           uniform 5.92998e-06;
    }
    yzfaces
    {
        type            empty;
    }
}


// ************************************************************************* //
