/*--------------------------------*- C++ -*----------------------------------*\
| =========                 |                                                 |
| \\      /  F ield         | foam-extend: Open Source CFD                    |
|  \\    /   O peration     | Version:     5.0                                |
|   \\  /    A nd           | Web:         http://www.foam-extend.org         |
|    \\/     M anipulation  |                                                 |
\*---------------------------------------------------------------------------*/
FoamFile
{
    version     2.0;
    format      ascii;
    class       volVectorField;
    location    "3";
    object      U.gas;
}
// * * * * * * * * * * * * * * * * * * * * * * * * * * * * * * * * * * * * * //

dimensions      [0 1 -1 0 0 0 0];

internalField   nonuniform List<vector> 
100
(
(0.00634093 0 0)
(0.00704576 0 0)
(0.00750378 0 0)
(0.00793725 0 0)
(0.00848943 0 0)
(0.00878451 0 0)
(0.0090465 0 0)
(0.00940487 0 0)
(0.00963363 0 0)
(0.00991112 0 0)
(0.0101316 0 0)
(0.0102085 0 0)
(0.0104051 0 0)
(0.0105739 0 0)
(0.0107726 0 0)
(0.0109746 0 0)
(0.0111237 0 0)
(0.0113264 0 0)
(0.011522 0 0)
(0.0117066 0 0)
(0.0118586 0 0)
(0.0120798 0 0)
(0.0123742 0 0)
(0.012624 0 0)
(0.012922 0 0)
(0.0132796 0 0)
(0.0137741 0 0)
(0.0145562 0 0)
(0.0129484 0 0)
(0.0120773 0 0)
(0.0116338 0 0)
(0.0113908 0 0)
(0.011248 0 0)
(0.0111608 0 0)
(0.0111085 0 0)
(0.0110843 0 0)
(0.0110709 0 0)
(0.0110582 0 0)
(0.0110402 0 0)
(0.0110271 0 0)
(0.0110019 0 0)
(0.0109458 0 0)
(0.0108804 0 0)
(0.0107924 0 0)
(0.0106659 0 0)
(0.0105111 0 0)
(0.0103152 0 0)
(0.0100611 0 0)
(0.00974028 0 0)
(0.00933258 0 0)
(0.00884215 0 0)
(0.00826877 0 0)
(0.0076314 0 0)
(0.00696457 0 0)
(0.00632373 0 0)
(0.00577325 0 0)
(0.00534757 0 0)
(0.00504447 0 0)
(0.00484321 0 0)
(0.00471586 0 0)
(0.0046397 0 0)
(0.00459144 0 0)
(0.00456235 0 0)
(0.00454801 0 0)
(0.0045378 0 0)
(0.00453029 0 0)
(0.00452487 0 0)
(0.00452153 0 0)
(0.00451944 0 0)
(0.00451521 0 0)
(0.00451158 0 0)
(0.00451107 0 0)
(0.00451558 0 0)
(0.00451751 0 0)
(0.00451507 0 0)
(0.00451202 0 0)
(0.00451323 0 0)
(0.00451742 0 0)
(0.0045169 0 0)
(0.00451666 0 0)
(0.00451627 0 0)
(0.00451681 0 0)
(0.00451667 0 0)
(0.00451303 0 0)
(0.00450848 0 0)
(0.00450686 0 0)
(0.00450571 0 0)
(0.00450113 0 0)
(0.00449885 0 0)
(0.00449758 0 0)
(0.00449608 0 0)
(0.00449628 0 0)
(0.00449618 0 0)
(0.00449276 0 0)
(0.00449451 0 0)
(0.00449422 0 0)
(0.00448824 0 0)
(0.00448352 0 0)
(0.00448438 0 0)
(0.00448364 0 0)
)
;

boundaryField
{
    inlet
    {
        type            fixedValue;
        value           uniform (0.005 0 0);
    }
    outlet
    {
        type            zeroGradient;
    }
    yzfaces
    {
        type            empty;
    }
}


// ************************************************************************* //
