/*--------------------------------*- C++ -*----------------------------------*\
| =========                 |                                                 |
| \\      /  F ield         | foam-extend: Open Source CFD                    |
|  \\    /   O peration     | Version:     5.0                                |
|   \\  /    A nd           | Web:         http://www.foam-extend.org         |
|    \\/     M anipulation  |                                                 |
\*---------------------------------------------------------------------------*/
FoamFile
{
    version     2.0;
    format      ascii;
    class       volVectorField;
    location    "3";
    object      U.water;
}
// * * * * * * * * * * * * * * * * * * * * * * * * * * * * * * * * * * * * * //

dimensions      [0 1 -1 0 0 0 0];

internalField   nonuniform List<vector> 
100
(
(4.87802e-05 0 0)
(0.000119131 0 0)
(0.000183825 0 0)
(0.000239073 0 0)
(0.00030156 0 0)
(0.000369815 0 0)
(0.000420527 0 0)
(0.000478837 0 0)
(0.000544881 0 0)
(0.000601065 0 0)
(0.000654182 0 0)
(0.00069581 0 0)
(0.000733793 0 0)
(0.000781162 0 0)
(0.000828323 0 0)
(0.000882127 0 0)
(0.00094043 0 0)
(0.00100052 0 0)
(0.00107059 0 0)
(0.00114373 0 0)
(0.00121695 0 0)
(0.00130108 0 0)
(0.00141221 0 0)
(0.00154319 0 0)
(0.00169238 0 0)
(0.00189522 0 0)
(0.00220285 0 0)
(0.00275183 0 0)
(0.0033353 0 0)
(0.00358592 0 0)
(0.00370599 0 0)
(0.00377078 0 0)
(0.00380715 0 0)
(0.00382901 0 0)
(0.00384072 0 0)
(0.00384766 0 0)
(0.00385195 0 0)
(0.00385272 0 0)
(0.0038544 0 0)
(0.00386348 0 0)
(0.00387749 0 0)
(0.00389073 0 0)
(0.00391284 0 0)
(0.00394623 0 0)
(0.0039853 0 0)
(0.00403262 0 0)
(0.00409492 0 0)
(0.00417289 0 0)
(0.00425868 0 0)
(0.00434824 0 0)
(0.00444471 0 0)
(0.004542 0 0)
(0.00463134 0 0)
(0.00470788 0 0)
(0.00476367 0 0)
(0.00480445 0 0)
(0.00483603 0 0)
(0.00485676 0 0)
(0.00486983 0 0)
(0.00487728 0 0)
(0.00488165 0 0)
(0.00488432 0 0)
(0.0048829 0 0)
(0.00488543 0 0)
(0.00488625 0 0)
(0.00488302 0 0)
(0.0048811 0 0)
(0.00487925 0 0)
(0.00487805 0 0)
(0.00487465 0 0)
(0.00487132 0 0)
(0.00487097 0 0)
(0.00487462 0 0)
(0.00487589 0 0)
(0.0048744 0 0)
(0.0048722 0 0)
(0.00487284 0 0)
(0.00487691 0 0)
(0.00487588 0 0)
(0.00487543 0 0)
(0.00487583 0 0)
(0.00487676 0 0)
(0.00487722 0 0)
(0.00487251 0 0)
(0.00486585 0 0)
(0.00486351 0 0)
(0.00486177 0 0)
(0.00485804 0 0)
(0.00485552 0 0)
(0.00485409 0 0)
(0.00485267 0 0)
(0.00485399 0 0)
(0.00485468 0 0)
(0.00485207 0 0)
(0.00485316 0 0)
(0.00485225 0 0)
(0.00484549 0 0)
(0.00484038 0 0)
(0.00484042 0 0)
(0.00483993 0 0)
)
;

boundaryField
{
    inlet
    {
        type            fixedValue;
        value           uniform (0 0 0);
    }
    outlet
    {
        type            zeroGradient;
    }
    yzfaces
    {
        type            empty;
    }
}


// ************************************************************************* //
