/*--------------------------------*- C++ -*----------------------------------*\
| =========                 |                                                 |
| \\      /  F ield         | foam-extend: Open Source CFD                    |
|  \\    /   O peration     | Version:     5.0                                |
|   \\  /    A nd           | Web:         http://www.foam-extend.org         |
|    \\/     M anipulation  |                                                 |
\*---------------------------------------------------------------------------*/
FoamFile
{
    version     2.0;
    format      ascii;
    class       volScalarField;
    location    "3";
    object      alpha.gas;
}
// * * * * * * * * * * * * * * * * * * * * * * * * * * * * * * * * * * * * * //

dimensions      [0 0 0 0 0 0 0];

internalField   nonuniform List<scalar> 
100
(
0.144658
0.128451
0.117178
0.108896
0.102404
0.0971539
0.0927894
0.0890821
0.0860296
0.0831545
0.0802571
0.077378
0.0750181
0.0726825
0.0704143
0.068007
0.0657429
0.0635451
0.0609805
0.0581174
0.0550089
0.0514454
0.0466216
0.0393024
0.0263277
0.0302715
0.0317313
0.0328095
0.0336922
0.034403
0.0349227
0.0352741
0.0355063
0.0356242
0.0356335
0.0355556
0.0353839
0.0351619
0.0348663
0.0345187
0.0340982
0.0335976
0.0330419
0.0323938
0.0316729
0.0308452
0.0299106
0.0288461
0.0276219
0.0262687
0.0247514
0.0230649
0.0212414
0.0193125
0.0173748
0.015533
0.0139159
0.0126184
0.0116657
0.0110182
0.010608
0.0103588
0.0102089
0.0101211
0.0100724
0.0100424
0.0100266
0.0100185
0.010016
0.0100131
0.0100122
0.0100098
0.0100065
0.0100054
0.0100049
0.0100012
0.00999875
0.00999733
0.00999667
0.00999983
0.0100023
0.0100038
0.0100074
0.0100073
0.0100073
0.0100088
0.0100083
0.0100051
0.0100068
0.0100061
0.0100046
0.0100034
0.0100028
0.0100024
0.0100005
0.00999966
0.00999815
0.00999603
0.00999635
0.00999773
)
;

boundaryField
{
    inlet
    {
        type            fixedValue;
        value           uniform 0.2;
    }
    outlet
    {
        type            zeroGradient;
    }
    yzfaces
    {
        type            empty;
    }
}


// ************************************************************************* //
