/*--------------------------------*- C++ -*----------------------------------*\
| =========                 |                                                 |
| \\      /  F ield         | foam-extend: Open Source CFD                    |
|  \\    /   O peration     | Version:     5.0                                |
|   \\  /    A nd           | Web:         http://www.foam-extend.org         |
|    \\/     M anipulation  |                                                 |
\*---------------------------------------------------------------------------*/
FoamFile
{
    version     2.0;
    format      ascii;
    class       volScalarField;
    location    "3";
    object      Cl.water;
}
// * * * * * * * * * * * * * * * * * * * * * * * * * * * * * * * * * * * * * //

dimensions      [0 0 0 0 0 0 0];

internalField   nonuniform List<scalar> 
100
(
0.00635221
0.00820158
0.00949386
0.0104234
0.0111079
0.0117013
0.0122209
0.0126582
0.0130647
0.0134132
0.0137452
0.0140434
0.0143448
0.0145945
0.0148696
0.0151363
0.0154139
0.0156534
0.0159569
0.0162866
0.0166303
0.0170425
0.0175514
0.0183407
0.0197008
0.0195383
0.0193375
0.019204
0.0190963
0.0190064
0.0189535
0.0189217
0.0188929
0.0188769
0.0188691
0.0188733
0.0189031
0.0189215
0.0189537
0.0189956
0.019046
0.0191087
0.0191688
0.0192473
0.0193317
0.0194279
0.0195283
0.0196463
0.0198024
0.0199515
0.0201295
0.020315
0.0205242
0.0207556
0.0209723
0.0211853
0.0213688
0.0215121
0.0216288
0.0216965
0.0217476
0.021774
0.0217926
0.0217906
0.0217889
0.0217941
0.0218003
0.0218054
0.0218171
0.0218239
0.0218193
0.0218279
0.0218202
0.0218098
0.0218253
0.0218391
0.0218299
0.0218258
0.0218153
0.0218044
0.0217996
0.0218062
0.0218077
0.0218255
0.0218272
0.0218058
0.0218142
0.0218389
0.0218174
0.0218275
0.0218219
0.0218226
0.0218133
0.0218088
0.0218204
0.0218332
0.0218266
0.021828
0.0218189
0.0218106
)
;

boundaryField
{
    inlet
    {
        type            fixedValue;
        value           uniform 0;
    }
    outlet
    {
        type            zeroGradient;
    }
    yzfaces
    {
        type            empty;
    }
}


// ************************************************************************* //
