/*--------------------------------*- C++ -*----------------------------------*\
| =========                 |                                                 |
| \\      /  F ield         | foam-extend: Open Source CFD                    |
|  \\    /   O peration     | Version:     5.0                                |
|   \\  /    A nd           | Web:         http://www.foam-extend.org         |
|    \\/     M anipulation  |                                                 |
\*---------------------------------------------------------------------------*/
FoamFile
{
    version     2.0;
    format      ascii;
    class       volScalarField;
    location    "3";
    object      H2O.gas;
}
// * * * * * * * * * * * * * * * * * * * * * * * * * * * * * * * * * * * * * //

dimensions      [0 0 0 0 0 0 0];

internalField   nonuniform List<scalar> 
100
(
0.000281717
0.000250154
0.00010727
7.22808e-05
6.33947e-05
6.23246e-05
6.69013e-05
7.50571e-05
9.17426e-05
0.000161941
0.000119323
0.000126318
0.000130388
0.000131533
0.000130858
0.000128801
0.00012657
0.000123752
0.000118758
0.000113182
0.000107128
0.000100188
9.07943e-05
7.65404e-05
5.12725e-05
0.000231788
0.00045551
0.000750545
0.00113681
0.00163156
0.00224717
0.00299257
0.00387981
0.00490815
0.00607054
0.00736308
0.00876633
0.0102679
0.0118312
0.0134328
0.0150265
0.0165759
0.0180543
0.0194014
0.0205978
0.0215808
0.0223422
0.0228105
0.0229339
0.022768
0.0222368
0.0213576
0.0201481
0.0186507
0.0170202
0.0153556
0.01384
0.0125933
0.0116521
0.0110178
0.0106043
0.0103581
0.0102075
0.0101191
0.0100685
0.0100418
0.0100281
0.0100185
0.0100209
0.010018
0.0100135
0.0100144
0.0100079
0.0100015
0.0100048
0.0100055
0.0100002
0.00999998
0.00999637
0.00999654
0.0100004
0.0100024
0.010004
0.0100124
0.0100118
0.0100025
0.0100054
0.0100136
0.0100068
0.0100091
0.0100044
0.0100032
0.00999872
0.00999515
0.00999777
0.0100038
0.00999891
0.0099981
0.00999291
0.00999147
)
;

boundaryField
{
    inlet
    {
        type            fixedValue;
        value           uniform 0;
    }
    outlet
    {
        type            zeroGradient;
    }
    yzfaces
    {
        type            empty;
    }
}


// ************************************************************************* //
