/*--------------------------------*- C++ -*----------------------------------*\
| =========                 |                                                 |
| \\      /  F ield         | foam-extend: Open Source CFD                    |
|  \\    /   O peration     | Version:     5.0                                |
|   \\  /    A nd           | Web:         http://www.foam-extend.org         |
|    \\/     M anipulation  |                                                 |
\*---------------------------------------------------------------------------*/
FoamFile
{
    version     2.0;
    format      ascii;
    class       volScalarField;
    location    "3";
    object      Na.water;
}
// * * * * * * * * * * * * * * * * * * * * * * * * * * * * * * * * * * * * * //

dimensions      [0 0 0 0 0 0 0];

internalField   nonuniform List<scalar> 
100
(
0.00635166
0.0082075
0.00949867
0.0104217
0.011112
0.0117003
0.0122242
0.0126629
0.0130666
0.013405
0.0137357
0.0140373
0.0143351
0.0145907
0.0148667
0.0151302
0.0154117
0.0156599
0.0159573
0.0162803
0.0166272
0.0170334
0.0175513
0.0183374
0.0196919
0.0195326
0.0193347
0.019202
0.0190934
0.0190104
0.0189589
0.0189249
0.0188928
0.0188773
0.0188814
0.0188908
0.018913
0.0189356
0.0189717
0.0190134
0.0190568
0.0191168
0.0191772
0.0192555
0.0193353
0.0194335
0.0195309
0.0196526
0.0198037
0.0199528
0.0201243
0.0203118
0.0205184
0.0207488
0.0209626
0.0211826
0.0213658
0.0215109
0.0216355
0.0216996
0.0217584
0.0217813
0.0218016
0.0218139
0.0218181
0.0218263
0.0218266
0.021825
0.0218321
0.0218257
0.0218187
0.0218304
0.0218216
0.0218094
0.0218127
0.0218248
0.0218201
0.0218297
0.0218217
0.0218159
0.0218247
0.0218226
0.0218144
0.0218326
0.0218304
0.0218092
0.0218186
0.0218394
0.0218196
0.021827
0.021822
0.0218261
0.0218179
0.0218144
0.0218148
0.0218313
0.021826
0.0218249
0.0218079
0.0218038
)
;

boundaryField
{
    inlet
    {
        type            fixedValue;
        value           uniform 0;
    }
    outlet
    {
        type            zeroGradient;
    }
    yzfaces
    {
        type            empty;
    }
}


// ************************************************************************* //
