/*--------------------------------*- C++ -*----------------------------------*\
| =========                 |                                                 |
| \\      /  F ield         | foam-extend: Open Source CFD                    |
|  \\    /   O peration     | Version:     5.0                                |
|   \\  /    A nd           | Web:         http://www.foam-extend.org         |
|    \\/     M anipulation  |                                                 |
\*---------------------------------------------------------------------------*/
FoamFile
{
    version     2.0;
    format      ascii;
    class       volScalarField;
    location    "3";
    object      Ns;
}
// * * * * * * * * * * * * * * * * * * * * * * * * * * * * * * * * * * * * * //

dimensions      [0 -3 0 0 1 0 0];

internalField   nonuniform List<scalar> 
100
(
1.03222
3.78487
0.285592
0.440503
2.62193
0.0234422
2.47799
0.551699
1.82429
2.80885
0.133604
0.457974
1.65334
2.17522
0.533867
0.0256807
0.172778
4.16927
2.26005
3.04726
6.79414
6.80907
19.8421
36.8426
79.5318
162.831
172.415
172.374
172.052
174.225
172.447
169.309
174.994
175.454
173.562
175.607
173.4
173.127
171.693
174.804
160.541
179.111
172.659
160.868
180.056
174.875
178.005
170.393
171.588
174.435
177.294
175.19
176.949
173.077
173.602
177.102
169.291
177.78
175.18
174.142
174.396
171.86
171.989
172.201
171.412
174.669
173.096
175.153
170.635
174.203
170.285
176.181
173.443
173.805
176.702
171.587
174.992
175.501
175.197
174.29
171.871
172.868
170.386
172.926
170.739
172.658
170.064
170.516
171.881
174.188
170.789
174.504
170.518
172.519
174.284
171.618
173.81
175.013
175.304
171.397
)
;

boundaryField
{
    inlet
    {
        type            fixedValue;
        value           uniform 0;
    }
    outlet
    {
        type            zeroGradient;
    }
    yzfaces
    {
        type            empty;
    }
}


// ************************************************************************* //
