/*--------------------------------*- C++ -*----------------------------------*\
| =========                 |                                                 |
| \\      /  F ield         | foam-extend: Open Source CFD                    |
|  \\    /   O peration     | Version:     5.0                                |
|   \\  /    A nd           | Web:         http://www.foam-extend.org         |
|    \\/     M anipulation  |                                                 |
\*---------------------------------------------------------------------------*/
FoamFile
{
    version     2.0;
    format      ascii;
    class       surfaceScalarField;
    location    "3";
    object      phi;
}
// * * * * * * * * * * * * * * * * * * * * * * * * * * * * * * * * * * * * * //

dimensions      [0 3 -1 0 0 0 0];

internalField   nonuniform List<scalar> 
99
(
1.22502e-06
1.21655e-06
1.19987e-06
1.19564e-06
1.19308e-06
1.19848e-06
1.20367e-06
1.20979e-06
1.20504e-06
1.20238e-06
1.19768e-06
1.20101e-06
1.20234e-06
1.20188e-06
1.19972e-06
1.20285e-06
1.20291e-06
1.20254e-06
1.19982e-06
1.20277e-06
1.20406e-06
1.20528e-06
1.20347e-06
1.19992e-06
1.19072e-06
1.20226e-06
1.20514e-06
1.20584e-06
1.20669e-06
1.20573e-06
1.20552e-06
1.20724e-06
1.20653e-06
1.20887e-06
1.20747e-06
1.20771e-06
1.20833e-06
1.20854e-06
1.20923e-06
1.20927e-06
1.21019e-06
1.21056e-06
1.21084e-06
1.21383e-06
1.21451e-06
1.21571e-06
1.21477e-06
1.21394e-06
1.21623e-06
1.21692e-06
1.21716e-06
1.21606e-06
1.21424e-06
1.21601e-06
1.21574e-06
1.21601e-06
1.21514e-06
1.21402e-06
1.21443e-06
1.21372e-06
1.21426e-06
1.21467e-06
1.21526e-06
1.21482e-06
1.21551e-06
1.21602e-06
1.21625e-06
1.21701e-06
1.21714e-06
1.21556e-06
1.21537e-06
1.21565e-06
1.21362e-06
1.21363e-06
1.21439e-06
1.21417e-06
1.21311e-06
1.21227e-06
1.21147e-06
1.21209e-06
1.21276e-06
1.21214e-06
1.21255e-06
1.21275e-06
1.21153e-06
1.21192e-06
1.21311e-06
1.21117e-06
1.21064e-06
1.21123e-06
1.21101e-06
1.21084e-06
1.21084e-06
1.21143e-06
1.21219e-06
1.21121e-06
1.21159e-06
1.21136e-06
1.21022e-06
)
;

boundaryField
{
    inlet
    {
        type            calculated;
        value           uniform -1.225e-06;
    }
    outlet
    {
        type            calculated;
        value           uniform 1.21209e-06;
    }
    yzfaces
    {
        type            empty;
    }
}


// ************************************************************************* //
