/*--------------------------------*- C++ -*----------------------------------*\
| =========                 |                                                 |
| \\      /  F ield         | foam-extend: Open Source CFD                    |
|  \\    /   O peration     | Version:     5.0                                |
|   \\  /    A nd           | Web:         http://www.foam-extend.org         |
|    \\/     M anipulation  |                                                 |
\*---------------------------------------------------------------------------*/
FoamFile
{
    version     2.0;
    format      ascii;
    class       volVectorField;
    location    "3";
    object      U.gas;
}
// * * * * * * * * * * * * * * * * * * * * * * * * * * * * * * * * * * * * * //

dimensions      [0 1 -1 0 0 0 0];

internalField   nonuniform List<vector> 
100
(
(0.00688829 0 0)
(0.00767269 0 0)
(0.00822761 0 0)
(0.00868356 0 0)
(0.00910583 0 0)
(0.00949991 0 0)
(0.00987753 0 0)
(0.0102208 0 0)
(0.0104736 0 0)
(0.0106875 0 0)
(0.0109044 0 0)
(0.0111528 0 0)
(0.011369 0 0)
(0.0115797 0 0)
(0.0117654 0 0)
(0.0119858 0 0)
(0.012189 0 0)
(0.0123689 0 0)
(0.0125674 0 0)
(0.0127964 0 0)
(0.013041 0 0)
(0.0133238 0 0)
(0.0136414 0 0)
(0.0140683 0 0)
(0.0147399 0 0)
(0.0109026 0 0)
(0.0115194 0 0)
(0.0118314 0 0)
(0.0120316 0 0)
(0.0121795 0 0)
(0.0122913 0 0)
(0.0123855 0 0)
(0.0124482 0 0)
(0.0124962 0 0)
(0.012527 0 0)
(0.0125336 0 0)
(0.0125404 0 0)
(0.0125301 0 0)
(0.0125149 0 0)
(0.0124875 0 0)
(0.0124557 0 0)
(0.0124141 0 0)
(0.0123515 0 0)
(0.012292 0 0)
(0.0122131 0 0)
(0.0121075 0 0)
(0.0119644 0 0)
(0.0117826 0 0)
(0.0115735 0 0)
(0.0113092 0 0)
(0.0109746 0 0)
(0.0105522 0 0)
(0.010026 0 0)
(0.00941042 0 0)
(0.00870577 0 0)
(0.00793564 0 0)
(0.0071513 0 0)
(0.00642416 0 0)
(0.00582644 0 0)
(0.00538287 0 0)
(0.00508015 0 0)
(0.00489142 0 0)
(0.0047776 0 0)
(0.00470765 0 0)
(0.00466783 0 0)
(0.00464759 0 0)
(0.00463439 0 0)
(0.00462895 0 0)
(0.00462679 0 0)
(0.00462332 0 0)
(0.00461878 0 0)
(0.00461876 0 0)
(0.00461447 0 0)
(0.00460817 0 0)
(0.00460926 0 0)
(0.00460984 0 0)
(0.00460514 0 0)
(0.00460055 0 0)
(0.00459716 0 0)
(0.00459703 0 0)
(0.00460103 0 0)
(0.0046023 0 0)
(0.00460252 0 0)
(0.00460475 0 0)
(0.00460279 0 0)
(0.00460145 0 0)
(0.00460486 0 0)
(0.00460371 0 0)
(0.00459775 0 0)
(0.00459824 0 0)
(0.004599 0 0)
(0.00459796 0 0)
(0.00459675 0 0)
(0.00459729 0 0)
(0.00459987 0 0)
(0.00459854 0 0)
(0.0045971 0 0)
(0.00459677 0 0)
(0.00459345 0 0)
(0.00459494 0 0)
)
;

boundaryField
{
    inlet
    {
        type            fixedValue;
        value           uniform (0.005 0 0);
    }
    outlet
    {
        type            zeroGradient;
    }
    yzfaces
    {
        type            empty;
    }
}


// ************************************************************************* //
