/*--------------------------------*- C++ -*----------------------------------*\
| =========                 |                                                 |
| \\      /  F ield         | foam-extend: Open Source CFD                    |
|  \\    /   O peration     | Version:     5.0                                |
|   \\  /    A nd           | Web:         http://www.foam-extend.org         |
|    \\/     M anipulation  |                                                 |
\*---------------------------------------------------------------------------*/
FoamFile
{
    version     2.0;
    format      ascii;
    class       volVectorField;
    location    "3";
    object      U.water;
}
// * * * * * * * * * * * * * * * * * * * * * * * * * * * * * * * * * * * * * //

dimensions      [0 1 -1 0 0 0 0];

internalField   nonuniform List<vector> 
100
(
(7.46734e-05 0 0)
(0.000178598 0 0)
(0.000268038 0 0)
(0.000352958 0 0)
(0.000435635 0 0)
(0.000517225 0 0)
(0.000596385 0 0)
(0.000672571 0 0)
(0.000742354 0 0)
(0.00080613 0 0)
(0.000872361 0 0)
(0.000946619 0 0)
(0.00102478 0 0)
(0.00109705 0 0)
(0.00117134 0 0)
(0.00125405 0 0)
(0.00134523 0 0)
(0.00143682 0 0)
(0.00153593 0 0)
(0.00165697 0 0)
(0.00180409 0 0)
(0.0019843 0 0)
(0.00222741 0 0)
(0.00260258 0 0)
(0.00327853 0 0)
(0.00381014 0 0)
(0.00366729 0 0)
(0.00356415 0 0)
(0.00348351 0 0)
(0.00341581 0 0)
(0.00336169 0 0)
(0.00332622 0 0)
(0.0033024 0 0)
(0.00328948 0 0)
(0.00328459 0 0)
(0.00328467 0 0)
(0.003295 0 0)
(0.00331172 0 0)
(0.00333364 0 0)
(0.00336044 0 0)
(0.00339247 0 0)
(0.0034313 0 0)
(0.00347519 0 0)
(0.00352898 0 0)
(0.00359025 0 0)
(0.00365623 0 0)
(0.00372847 0 0)
(0.0038061 0 0)
(0.0038997 0 0)
(0.00400645 0 0)
(0.00411909 0 0)
(0.0042375 0 0)
(0.00435779 0 0)
(0.00448399 0 0)
(0.00460665 0 0)
(0.00471244 0 0)
(0.00479777 0 0)
(0.00485869 0 0)
(0.00490211 0 0)
(0.00493048 0 0)
(0.00494806 0 0)
(0.00496058 0 0)
(0.00496879 0 0)
(0.00497275 0 0)
(0.00497533 0 0)
(0.00497894 0 0)
(0.00498121 0 0)
(0.00498361 0 0)
(0.00498563 0 0)
(0.00498269 0 0)
(0.00497913 0 0)
(0.00497931 0 0)
(0.00497576 0 0)
(0.00497176 0 0)
(0.00497335 0 0)
(0.00497448 0 0)
(0.00497197 0 0)
(0.00496812 0 0)
(0.00496479 0 0)
(0.00496442 0 0)
(0.00496699 0 0)
(0.00496702 0 0)
(0.00496655 0 0)
(0.00496775 0 0)
(0.00496568 0 0)
(0.00496396 0 0)
(0.00496717 0 0)
(0.00496562 0 0)
(0.00496061 0 0)
(0.00496072 0 0)
(0.00496148 0 0)
(0.0049607 0 0)
(0.00496038 0 0)
(0.00496162 0 0)
(0.00496438 0 0)
(0.00496399 0 0)
(0.00496277 0 0)
(0.0049631 0 0)
(0.00496033 0 0)
(0.00496183 0 0)
)
;

boundaryField
{
    inlet
    {
        type            fixedValue;
        value           uniform (0 0 0);
    }
    outlet
    {
        type            zeroGradient;
    }
    yzfaces
    {
        type            empty;
    }
}


// ************************************************************************* //
