/*--------------------------------*- C++ -*----------------------------------*\
| =========                 |                                                 |
| \\      /  F ield         | foam-extend: Open Source CFD                    |
|  \\    /   O peration     | Version:     5.0                                |
|   \\  /    A nd           | Web:         http://www.foam-extend.org         |
|    \\/     M anipulation  |                                                 |
\*---------------------------------------------------------------------------*/
FoamFile
{
    version     2.0;
    format      ascii;
    class       volScalarField;
    location    "10";
    object      alpha.gas;
}
// * * * * * * * * * * * * * * * * * * * * * * * * * * * * * * * * * * * * * //

dimensions      [0 0 0 0 0 0 0];

internalField   nonuniform List<scalar> 
100
(
0.170153
0.157323
0.149787
0.141608
0.136847
0.134937
0.134946
0.133365
0.130213
0.12628
0.12203
0.117633
0.114798
0.112368
0.110537
0.107938
0.105468
0.103417
0.101795
0.099334
0.0973784
0.0963383
0.0949047
0.0933955
0.0920259
0.0909035
0.0895949
0.08825
0.0873489
0.0866676
0.0865846
0.0866999
0.0866234
0.0863275
0.0856718
0.0846643
0.0838181
0.0830818
0.0819699
0.0807702
0.0798066
0.0790538
0.0781723
0.0775324
0.0767802
0.0761537
0.0756904
0.0751304
0.0746564
0.074198
0.0736358
0.0729504
0.0724734
0.0718958
0.0714313
0.0710275
0.0705934
0.0701652
0.069731
0.0693164
0.0688631
0.0684916
0.0678871
0.067377
0.0668896
0.0664713
0.0660802
0.0657207
0.0654048
0.0650991
0.0646746
0.0642434
0.0638881
0.0633655
0.062926
0.0625036
0.0622027
0.061856
0.0615103
0.0610892
0.0607241
0.0604461
0.0600635
0.0596632
0.0592878
0.0589299
0.0586459
0.0583408
0.0580359
0.0577557
0.0574313
0.057148
0.0568163
0.0564781
0.0561551
0.0558934
0.055522
0.0552666
0.055067
0.0548874
)
;

boundaryField
{
    inlet
    {
        type            fixedValue;
        value           uniform 0.2;
    }
    outlet
    {
        type            zeroGradient;
    }
    yzfaces
    {
        type            empty;
    }
}


// ************************************************************************* //
