/*--------------------------------*- C++ -*----------------------------------*\
| =========                 |                                                 |
| \\      /  F ield         | foam-extend: Open Source CFD                    |
|  \\    /   O peration     | Version:     5.0                                |
|   \\  /    A nd           | Web:         http://www.foam-extend.org         |
|    \\/     M anipulation  |                                                 |
\*---------------------------------------------------------------------------*/
FoamFile
{
    version     2.0;
    format      ascii;
    class       volScalarField;
    location    "10";
    object      alpha.gas;
}
// * * * * * * * * * * * * * * * * * * * * * * * * * * * * * * * * * * * * * //

dimensions      [0 0 0 0 0 0 0];

internalField   nonuniform List<scalar> 
100
(
0.169969
0.157305
0.150342
0.142671
0.137069
0.13479
0.134369
0.133277
0.130107
0.125785
0.121602
0.117413
0.114213
0.112039
0.110702
0.108436
0.105744
0.103537
0.101566
0.0997416
0.0978317
0.0968069
0.0955517
0.0942425
0.0922663
0.091056
0.0899035
0.0884198
0.0873355
0.0868188
0.0866912
0.0865952
0.0862725
0.085848
0.0855087
0.0847525
0.083905
0.0831058
0.0822124
0.08137
0.0800975
0.0793566
0.0785337
0.0776794
0.07708
0.0763753
0.0758201
0.0753754
0.0748759
0.0744201
0.0737847
0.0732998
0.0727662
0.0721339
0.0715216
0.0709025
0.07049
0.0701569
0.0697926
0.0693647
0.068855
0.0683341
0.0679243
0.0673343
0.0668979
0.0664588
0.0660615
0.0656464
0.065152
0.0648475
0.0644981
0.0641125
0.0636987
0.0633506
0.0629422
0.0625003
0.0621452
0.0617424
0.0614398
0.0611531
0.0608677
0.0605174
0.0601835
0.0598986
0.0594632
0.0590533
0.0587029
0.0583737
0.0579761
0.0577019
0.0573923
0.0570574
0.0567498
0.0564748
0.0562685
0.055932
0.0556836
0.0553547
0.0550773
0.0548616
)
;

boundaryField
{
    inlet
    {
        type            fixedValue;
        value           uniform 0.2;
    }
    outlet
    {
        type            zeroGradient;
    }
    yzfaces
    {
        type            empty;
    }
}


// ************************************************************************* //
