/*--------------------------------*- C++ -*----------------------------------*\
| =========                 |                                                 |
| \\      /  F ield         | foam-extend: Open Source CFD                    |
|  \\    /   O peration     | Version:     5.0                                |
|   \\  /    A nd           | Web:         http://www.foam-extend.org         |
|    \\/     M anipulation  |                                                 |
\*---------------------------------------------------------------------------*/
FoamFile
{
    version     2.0;
    format      ascii;
    class       volScalarField;
    location    "10";
    object      Cl.water;
}
// * * * * * * * * * * * * * * * * * * * * * * * * * * * * * * * * * * * * * //

dimensions      [0 0 0 0 0 0 0];

internalField   nonuniform List<scalar> 
100
(
0.00342903
0.00490318
0.0057658
0.00669815
0.00724824
0.00747874
0.0074688
0.00766455
0.00801816
0.0084659
0.00895513
0.00945819
0.00978621
0.0100629
0.0102796
0.0105786
0.0108574
0.0110937
0.0112853
0.0115565
0.0117781
0.011905
0.0120676
0.0122402
0.0124008
0.012527
0.012675
0.012831
0.0129314
0.0130019
0.0130199
0.0130074
0.0130219
0.013051
0.0131333
0.0132414
0.0133383
0.0134179
0.0135441
0.0136874
0.0137922
0.013879
0.0139851
0.0140632
0.0141454
0.0142228
0.014276
0.0143415
0.014397
0.0144514
0.0145172
0.0145926
0.0146492
0.014712
0.0147603
0.0148114
0.0148646
0.0149142
0.0149613
0.0150064
0.0150605
0.0151057
0.0151767
0.0152338
0.015286
0.0153359
0.0153781
0.0154166
0.0154529
0.0154892
0.0155374
0.0155863
0.0156285
0.0156806
0.0157338
0.015786
0.0158183
0.0158601
0.015896
0.015952
0.0159927
0.016026
0.0160707
0.0161158
0.0161585
0.0161972
0.0162337
0.0162692
0.0163008
0.0163313
0.016366
0.0164065
0.0164444
0.0164893
0.0165237
0.0165544
0.0165928
0.0166224
0.0166458
0.016666
)
;

boundaryField
{
    inlet
    {
        type            fixedValue;
        value           uniform 0;
    }
    outlet
    {
        type            zeroGradient;
    }
    yzfaces
    {
        type            empty;
    }
}


// ************************************************************************* //
