/*--------------------------------*- C++ -*----------------------------------*\
| =========                 |                                                 |
| \\      /  F ield         | foam-extend: Open Source CFD                    |
|  \\    /   O peration     | Version:     5.0                                |
|   \\  /    A nd           | Web:         http://www.foam-extend.org         |
|    \\/     M anipulation  |                                                 |
\*---------------------------------------------------------------------------*/
FoamFile
{
    version     2.0;
    format      ascii;
    class       volScalarField;
    location    "10";
    object      Cl.water;
}
// * * * * * * * * * * * * * * * * * * * * * * * * * * * * * * * * * * * * * //

dimensions      [0 0 0 0 0 0 0];

internalField   nonuniform List<scalar> 
100
(
0.00344778
0.00489594
0.0057084
0.00658652
0.0072277
0.00747973
0.00753566
0.0076624
0.00802932
0.00852621
0.00901719
0.00948301
0.00984565
0.010095
0.01025
0.0105126
0.0108196
0.0110772
0.0113021
0.0115114
0.0117302
0.0118521
0.0119996
0.012144
0.012367
0.0125107
0.0126442
0.0128076
0.0129276
0.0129915
0.0130097
0.0130199
0.0130567
0.0131021
0.0131491
0.013235
0.0133315
0.0134283
0.0135299
0.0136276
0.013769
0.0138577
0.0139556
0.0140474
0.0141202
0.0141942
0.0142584
0.0143075
0.0143597
0.0144178
0.0144878
0.0145477
0.0146115
0.0146843
0.0147507
0.0148225
0.01487
0.0149106
0.0149454
0.0149959
0.0150529
0.0151094
0.0151569
0.0152218
0.0152744
0.0153258
0.0153734
0.0154236
0.0154734
0.0155091
0.0155524
0.0155956
0.015649
0.0156889
0.0157344
0.0157824
0.015824
0.0158711
0.0159061
0.0159428
0.015972
0.0160083
0.0160504
0.0160898
0.0161352
0.0161843
0.0162299
0.0162674
0.016309
0.0163431
0.0163808
0.0164155
0.0164478
0.0164738
0.0164992
0.0165366
0.0165704
0.0166062
0.0166383
0.0166696
)
;

boundaryField
{
    inlet
    {
        type            fixedValue;
        value           uniform 0;
    }
    outlet
    {
        type            zeroGradient;
    }
    yzfaces
    {
        type            empty;
    }
}


// ************************************************************************* //
