/*--------------------------------*- C++ -*----------------------------------*\
| =========                 |                                                 |
| \\      /  F ield         | foam-extend: Open Source CFD                    |
|  \\    /   O peration     | Version:     5.0                                |
|   \\  /    A nd           | Web:         http://www.foam-extend.org         |
|    \\/     M anipulation  |                                                 |
\*---------------------------------------------------------------------------*/
FoamFile
{
    version     2.0;
    format      ascii;
    class       volScalarField;
    location    "10";
    object      CO2.water;
}
// * * * * * * * * * * * * * * * * * * * * * * * * * * * * * * * * * * * * * //

dimensions      [0 0 0 0 0 0 0];

internalField   nonuniform List<scalar> 
100
(
0.000788744
0.00112136
0.00130425
0.00150572
0.00165286
0.00171271
0.00172376
0.00175246
0.0018357
0.00194923
0.00205908
0.00216912
0.00225316
0.00231027
0.00234538
0.00240489
0.00247558
0.00253356
0.00258534
0.00263324
0.0026834
0.00271032
0.00274329
0.00277767
0.00282957
0.00286136
0.00289163
0.0029306
0.00295908
0.00297265
0.002976
0.00297853
0.002987
0.00299815
0.00300706
0.00302692
0.00304918
0.00307017
0.00309364
0.00311576
0.00314919
0.00316864
0.00319026
0.00321269
0.00322844
0.00324695
0.00326153
0.00327321
0.00328633
0.0032983
0.00331499
0.00332772
0.00334174
0.00335834
0.00337443
0.00339069
0.00340152
0.00341027
0.00341984
0.00343108
0.00344446
0.00345815
0.00346891
0.0034844
0.00349587
0.0035074
0.00351783
0.00352873
0.00354172
0.00354972
0.0035589
0.00356902
0.00357989
0.00358903
0.00359976
0.00361137
0.00362069
0.00363127
0.00363922
0.00364675
0.00365425
0.00366345
0.00367222
0.0036797
0.00369114
0.0037019
0.0037111
0.00371975
0.00373019
0.00373739
0.00374553
0.00375432
0.0037624
0.00376962
0.00377504
0.00378388
0.0037904
0.00379904
0.00380633
0.00381199
)
;

boundaryField
{
    inlet
    {
        type            fixedValue;
        value           uniform 0;
    }
    outlet
    {
        type            zeroGradient;
    }
    yzfaces
    {
        type            empty;
    }
}


// ************************************************************************* //
