/*--------------------------------*- C++ -*----------------------------------*\
| =========                 |                                                 |
| \\      /  F ield         | foam-extend: Open Source CFD                    |
|  \\    /   O peration     | Version:     5.0                                |
|   \\  /    A nd           | Web:         http://www.foam-extend.org         |
|    \\/     M anipulation  |                                                 |
\*---------------------------------------------------------------------------*/
FoamFile
{
    version     2.0;
    format      ascii;
    class       volScalarField;
    location    "10";
    object      CO2.gas;
}
// * * * * * * * * * * * * * * * * * * * * * * * * * * * * * * * * * * * * * //

dimensions      [0 0 0 0 0 0 0];

internalField   nonuniform List<scalar> 
100
(
0.169822
0.157016
0.149495
0.141332
0.136581
0.134674
0.134683
0.133105
0.12996
0.126034
0.121792
0.117403
0.114575
0.112149
0.110322
0.107728
0.105262
0.103216
0.101596
0.0991405
0.0971888
0.0961507
0.0947199
0.0932136
0.0918466
0.0907264
0.0894205
0.0880781
0.0871788
0.0864988
0.086416
0.0865311
0.0864547
0.0861594
0.0855049
0.0844994
0.0836549
0.08292
0.0818102
0.0806129
0.0796511
0.0788998
0.07802
0.0773814
0.0766307
0.0760054
0.075543
0.0749841
0.074511
0.0740535
0.0734924
0.0728083
0.0723322
0.0717558
0.0712922
0.0708891
0.0704559
0.0700285
0.0695952
0.0691814
0.068729
0.0683582
0.0677549
0.0672458
0.0667594
0.0663418
0.0659516
0.0655927
0.0652774
0.0649723
0.0645486
0.0641183
0.0637636
0.0632421
0.0628035
0.0623819
0.0620816
0.0617356
0.0613905
0.0609702
0.0606059
0.0603284
0.0599465
0.059547
0.0591723
0.0588151
0.0585316
0.0582272
0.0579229
0.0576432
0.0573194
0.0570367
0.0567056
0.0563681
0.0560457
0.0557845
0.0554139
0.055159
0.0549597
0.0547805
)
;

boundaryField
{
    inlet
    {
        type            fixedValue;
        value           uniform 0.2;
    }
    outlet
    {
        type            zeroGradient;
    }
    yzfaces
    {
        type            empty;
    }
}


// ************************************************************************* //
