/*--------------------------------*- C++ -*----------------------------------*\
| =========                 |                                                 |
| \\      /  F ield         | foam-extend: Open Source CFD                    |
|  \\    /   O peration     | Version:     5.0                                |
|   \\  /    A nd           | Web:         http://www.foam-extend.org         |
|    \\/     M anipulation  |                                                 |
\*---------------------------------------------------------------------------*/
FoamFile
{
    version     2.0;
    format      ascii;
    class       volScalarField;
    location    "10";
    object      CO2.gas;
}
// * * * * * * * * * * * * * * * * * * * * * * * * * * * * * * * * * * * * * //

dimensions      [0 0 0 0 0 0 0];

internalField   nonuniform List<scalar> 
100
(
0.169638
0.156999
0.150049
0.142393
0.136802
0.134528
0.134108
0.133017
0.129854
0.12554
0.121365
0.117184
0.11399
0.11182
0.110486
0.108225
0.105538
0.103335
0.101368
0.0995474
0.0976412
0.0966184
0.0953656
0.094059
0.0920867
0.0908787
0.0897284
0.0882476
0.0871654
0.0866497
0.0865224
0.0864265
0.0861045
0.0856809
0.0853421
0.0845874
0.0837416
0.082944
0.0820523
0.0812115
0.0799415
0.079202
0.0783808
0.0775281
0.0769299
0.0762265
0.0756725
0.0752286
0.0747301
0.0742751
0.073641
0.073157
0.0726245
0.0719935
0.0713823
0.0707644
0.0703528
0.0700203
0.0696567
0.0692296
0.0687209
0.068201
0.067792
0.0672032
0.0667676
0.0663294
0.0659329
0.0655186
0.0650252
0.0647212
0.0643725
0.0639876
0.0635746
0.0632273
0.0628197
0.0623786
0.0620242
0.0616222
0.0613201
0.061034
0.0607492
0.0603996
0.0600663
0.059782
0.0593474
0.0589383
0.0585886
0.05826
0.0578632
0.0575895
0.0572805
0.0569463
0.0566393
0.0563648
0.0561589
0.0558231
0.0555751
0.0552469
0.05497
0.0547548
)
;

boundaryField
{
    inlet
    {
        type            fixedValue;
        value           uniform 0.2;
    }
    outlet
    {
        type            zeroGradient;
    }
    yzfaces
    {
        type            empty;
    }
}


// ************************************************************************* //
