/*--------------------------------*- C++ -*----------------------------------*\
| =========                 |                                                 |
| \\      /  F ield         | foam-extend: Open Source CFD                    |
|  \\    /   O peration     | Version:     5.0                                |
|   \\  /    A nd           | Web:         http://www.foam-extend.org         |
|    \\/     M anipulation  |                                                 |
\*---------------------------------------------------------------------------*/
FoamFile
{
    version     2.0;
    format      ascii;
    class       volScalarField;
    location    "10";
    object      CO2.water;
}
// * * * * * * * * * * * * * * * * * * * * * * * * * * * * * * * * * * * * * //

dimensions      [0 0 0 0 0 0 0];

internalField   nonuniform List<scalar> 
100
(
0.00078392
0.0011209
0.00131883
0.00153364
0.00165868
0.00170885
0.00170861
0.00175015
0.00183292
0.00193622
0.00204785
0.00216334
0.00223778
0.00230162
0.0023497
0.00241796
0.00248285
0.0025367
0.00257932
0.00264395
0.00269531
0.00272263
0.00276028
0.00279992
0.00283589
0.00286537
0.00289974
0.00293506
0.00295873
0.00297662
0.0029788
0.00297577
0.00297778
0.00298556
0.00300278
0.00302924
0.00305146
0.0030708
0.00310001
0.00313152
0.00315683
0.0031766
0.00319975
0.00321656
0.00323631
0.00325277
0.00326493
0.00327964
0.00329209
0.00330413
0.0033189
0.0033369
0.00334943
0.0033646
0.0033768
0.0033874
0.00339881
0.00341005
0.00342146
0.00343235
0.00344425
0.00345401
0.00346988
0.00348328
0.00349608
0.00350707
0.00351734
0.00352679
0.00353508
0.00354311
0.00355426
0.00356558
0.00357492
0.00358864
0.00360019
0.00361128
0.00361918
0.00362829
0.00363737
0.00364843
0.00365802
0.00366532
0.00367537
0.00368588
0.00369574
0.00370514
0.0037126
0.00372061
0.00372862
0.00373598
0.0037445
0.00375194
0.00376065
0.00376954
0.00377802
0.00378489
0.00379465
0.00380136
0.0038066
0.00381132
)
;

boundaryField
{
    inlet
    {
        type            fixedValue;
        value           uniform 0;
    }
    outlet
    {
        type            zeroGradient;
    }
    yzfaces
    {
        type            empty;
    }
}


// ************************************************************************* //
