/*--------------------------------*- C++ -*----------------------------------*\
| =========                 |                                                 |
| \\      /  F ield         | foam-extend: Open Source CFD                    |
|  \\    /   O peration     | Version:     5.0                                |
|   \\  /    A nd           | Web:         http://www.foam-extend.org         |
|    \\/     M anipulation  |                                                 |
\*---------------------------------------------------------------------------*/
FoamFile
{
    version     2.0;
    format      ascii;
    class       volScalarField;
    location    "10";
    object      H2O.water;
}
// * * * * * * * * * * * * * * * * * * * * * * * * * * * * * * * * * * * * * //

dimensions      [0 0 0 0 0 0 0];

internalField   nonuniform List<scalar> 
100
(
0.0223478
0.0317852
0.0369383
0.0426508
0.0468247
0.0485337
0.0488292
0.0496395
0.0520005
0.0552133
0.0583057
0.0614503
0.0638343
0.0654511
0.0664416
0.0681225
0.0701349
0.0717699
0.073251
0.0746031
0.0760251
0.0767771
0.0777058
0.0786909
0.0801727
0.0810644
0.0819185
0.0830334
0.0838439
0.0842179
0.084304
0.0843793
0.084625
0.0849462
0.0851857
0.0857511
0.0863813
0.0869699
0.0876419
0.088268
0.089225
0.0897661
0.0903759
0.0910205
0.091457
0.0919887
0.0923979
0.0927264
0.0931032
0.093438
0.0939193
0.0942731
0.0946683
0.0951402
0.0955992
0.0960641
0.0963645
0.0966102
0.0968832
0.0972004
0.0975789
0.097972
0.0982717
0.0987161
0.0990352
0.0993645
0.0996609
0.0999667
0.100343
0.100568
0.100825
0.101115
0.101419
0.101676
0.101981
0.102311
0.102574
0.102873
0.103098
0.103313
0.103521
0.103789
0.104036
0.10424
0.10457
0.104877
0.105134
0.105378
0.105679
0.105879
0.106106
0.106363
0.106595
0.106799
0.106945
0.1072
0.107379
0.107624
0.10783
0.107991
)
;

boundaryField
{
    inlet
    {
        type            fixedValue;
        value           uniform 0;
    }
    outlet
    {
        type            zeroGradient;
    }
    yzfaces
    {
        type            empty;
    }
}


// ************************************************************************* //
