/*--------------------------------*- C++ -*----------------------------------*\
| =========                 |                                                 |
| \\      /  F ield         | foam-extend: Open Source CFD                    |
|  \\    /   O peration     | Version:     5.0                                |
|   \\  /    A nd           | Web:         http://www.foam-extend.org         |
|    \\/     M anipulation  |                                                 |
\*---------------------------------------------------------------------------*/
FoamFile
{
    version     2.0;
    format      ascii;
    class       volScalarField;
    location    "10";
    object      H2O.gas;
}
// * * * * * * * * * * * * * * * * * * * * * * * * * * * * * * * * * * * * * //

dimensions      [0 0 0 0 0 0 0];

internalField   nonuniform List<scalar> 
100
(
0.000331368
0.000306382
0.000291705
0.000275777
0.000266506
0.000262786
0.000262804
0.000259724
0.000253586
0.000245927
0.000237649
0.000229086
0.000223567
0.000218833
0.000215268
0.000210206
0.000205395
0.000201402
0.000198242
0.00019345
0.000189642
0.000187616
0.000184824
0.000181885
0.000179218
0.000177032
0.000174484
0.000171864
0.000170109
0.000168783
0.000168621
0.000168846
0.000168697
0.00016812
0.000166843
0.000164881
0.000163233
0.000161799
0.000159634
0.000157298
0.000155421
0.000153955
0.000152238
0.000150992
0.000149527
0.000148307
0.000147405
0.000146314
0.000145391
0.000144498
0.000143404
0.000142069
0.00014114
0.000140015
0.00013911
0.000138324
0.000137478
0.000136645
0.000135799
0.000134992
0.000134109
0.000133385
0.000132208
0.000131215
0.000130266
0.000129451
0.000128689
0.000127989
0.000127374
0.000126779
0.000125952
0.000125112
0.00012442
0.000123402
0.000122547
0.000121724
0.000121138
0.000120463
0.000119789
0.000118969
0.000118258
0.000117717
0.000116972
0.000116192
0.000115461
0.000114764
0.000114211
0.000113617
0.000113023
0.000112478
0.000111846
0.000111294
0.000110648
0.000109989
0.00010936
0.000108851
0.000108128
0.00010763
0.000107241
0.000106892
)
;

boundaryField
{
    inlet
    {
        type            fixedValue;
        value           uniform 0;
    }
    outlet
    {
        type            zeroGradient;
    }
    yzfaces
    {
        type            empty;
    }
}


// ************************************************************************* //
