/*--------------------------------*- C++ -*----------------------------------*\
| =========                 |                                                 |
| \\      /  F ield         | foam-extend: Open Source CFD                    |
|  \\    /   O peration     | Version:     5.0                                |
|   \\  /    A nd           | Web:         http://www.foam-extend.org         |
|    \\/     M anipulation  |                                                 |
\*---------------------------------------------------------------------------*/
FoamFile
{
    version     2.0;
    format      ascii;
    class       volScalarField;
    location    "10";
    object      H2O.gas;
}
// * * * * * * * * * * * * * * * * * * * * * * * * * * * * * * * * * * * * * //

dimensions      [0 0 0 0 0 0 0];

internalField   nonuniform List<scalar> 
100
(
0.00033101
0.000306347
0.000292787
0.000277848
0.000266938
0.0002625
0.000261681
0.000259552
0.00025338
0.000244962
0.000236817
0.000228657
0.000222426
0.000218192
0.000215588
0.000211176
0.000205934
0.000201635
0.000197796
0.000194244
0.000190524
0.000188529
0.000186084
0.000183535
0.000179686
0.000177329
0.000175084
0.000172195
0.000170083
0.000169077
0.000168829
0.000168642
0.000168013
0.000167187
0.000166526
0.000165053
0.000163403
0.000161846
0.000160106
0.000158466
0.000155987
0.000154545
0.000152942
0.000151278
0.000150111
0.000148739
0.000147657
0.000146791
0.000145819
0.000144931
0.000143693
0.000142749
0.00014171
0.000140479
0.000139286
0.00013808
0.000137277
0.000136629
0.000135919
0.000135086
0.000134093
0.000133079
0.000132281
0.000131132
0.000130282
0.000129427
0.000128653
0.000127845
0.000126882
0.000126289
0.000125608
0.000124857
0.000124051
0.000123374
0.000122578
0.000121717
0.000121026
0.000120242
0.000119652
0.000119094
0.000118538
0.000117856
0.000117206
0.000116651
0.000115803
0.000115005
0.000114322
0.000113681
0.000112907
0.000112373
0.00011177
0.000111118
0.000110519
0.000109983
0.000109581
0.000108926
0.000108442
0.000107802
0.000107261
0.000106841
)
;

boundaryField
{
    inlet
    {
        type            fixedValue;
        value           uniform 0;
    }
    outlet
    {
        type            zeroGradient;
    }
    yzfaces
    {
        type            empty;
    }
}


// ************************************************************************* //
