/*--------------------------------*- C++ -*----------------------------------*\
| =========                 |                                                 |
| \\      /  F ield         | foam-extend: Open Source CFD                    |
|  \\    /   O peration     | Version:     5.0                                |
|   \\  /    A nd           | Web:         http://www.foam-extend.org         |
|    \\/     M anipulation  |                                                 |
\*---------------------------------------------------------------------------*/
FoamFile
{
    version     2.0;
    format      ascii;
    class       volScalarField;
    location    "10";
    object      H2O.water;
}
// * * * * * * * * * * * * * * * * * * * * * * * * * * * * * * * * * * * * * //

dimensions      [0 0 0 0 0 0 0];

internalField   nonuniform List<scalar> 
100
(
0.0222068
0.0317536
0.0373688
0.0434667
0.0469986
0.0483955
0.0484038
0.04955
0.0519083
0.0548398
0.0580019
0.0612769
0.0633887
0.0652077
0.0665641
0.0684943
0.070338
0.0718636
0.0730598
0.0749079
0.0763721
0.0771316
0.0781948
0.0793243
0.0803393
0.0811775
0.0821569
0.0831514
0.0838235
0.0843403
0.0843903
0.084301
0.0843509
0.0845745
0.085055
0.0858161
0.0864485
0.0869999
0.0878276
0.0887141
0.0894452
0.0900061
0.090652
0.0911194
0.0916906
0.0921478
0.0924936
0.0929115
0.0932644
0.0936068
0.0940205
0.0945359
0.0948874
0.0953216
0.0956692
0.0959636
0.0962889
0.0966077
0.0969293
0.0972382
0.0975777
0.0978467
0.0983044
0.0986832
0.0990474
0.099358
0.0996489
0.0999163
0.100151
0.100376
0.100694
0.101016
0.101273
0.10167
0.101994
0.102308
0.10253
0.102789
0.10305
0.103364
0.103635
0.103837
0.104121
0.104422
0.104699
0.104972
0.105176
0.105406
0.105636
0.105839
0.106087
0.106293
0.106543
0.106791
0.107032
0.10722
0.107505
0.107696
0.107838
0.10797
)
;

boundaryField
{
    inlet
    {
        type            fixedValue;
        value           uniform 0;
    }
    outlet
    {
        type            zeroGradient;
    }
    yzfaces
    {
        type            empty;
    }
}


// ************************************************************************* //
