/*--------------------------------*- C++ -*----------------------------------*\
| =========                 |                                                 |
| \\      /  F ield         | foam-extend: Open Source CFD                    |
|  \\    /   O peration     | Version:     5.0                                |
|   \\  /    A nd           | Web:         http://www.foam-extend.org         |
|    \\/     M anipulation  |                                                 |
\*---------------------------------------------------------------------------*/
FoamFile
{
    version     2.0;
    format      ascii;
    class       volScalarField;
    location    "10";
    object      Na.water;
}
// * * * * * * * * * * * * * * * * * * * * * * * * * * * * * * * * * * * * * //

dimensions      [0 0 0 0 0 0 0];

internalField   nonuniform List<scalar> 
100
(
0.00344638
0.00489239
0.00570715
0.00658585
0.00722585
0.00748364
0.00754195
0.007669
0.00802711
0.00852652
0.00901586
0.00948508
0.00985418
0.010105
0.0102613
0.0105242
0.0108256
0.0110824
0.0112961
0.0115106
0.0117296
0.0118536
0.0119997
0.0121449
0.0123645
0.0125075
0.0126421
0.0128087
0.012934
0.0129992
0.013019
0.0130271
0.0130588
0.0131055
0.0131495
0.0132345
0.0133331
0.0134258
0.0135222
0.0136186
0.0137593
0.0138509
0.0139446
0.01404
0.0141143
0.0141949
0.0142621
0.0143175
0.0143748
0.0144258
0.0144932
0.0145517
0.0146122
0.0146832
0.0147541
0.0148202
0.014874
0.014912
0.014959
0.0150079
0.0150687
0.0151265
0.0151782
0.0152434
0.0152966
0.0153436
0.0153863
0.0154345
0.0154899
0.0155258
0.0155656
0.0156079
0.0156536
0.0156952
0.015743
0.0157947
0.0158361
0.0158821
0.0159173
0.0159447
0.0159848
0.0160217
0.0160575
0.0160922
0.0161405
0.0161831
0.0162218
0.016261
0.0163055
0.0163386
0.0163754
0.0164099
0.0164448
0.0164831
0.0165126
0.0165477
0.0165765
0.0166159
0.0166482
0.0166659
)
;

boundaryField
{
    inlet
    {
        type            fixedValue;
        value           uniform 0;
    }
    outlet
    {
        type            zeroGradient;
    }
    yzfaces
    {
        type            empty;
    }
}


// ************************************************************************* //
