/*--------------------------------*- C++ -*----------------------------------*\
| =========                 |                                                 |
| \\      /  F ield         | foam-extend: Open Source CFD                    |
|  \\    /   O peration     | Version:     5.0                                |
|   \\  /    A nd           | Web:         http://www.foam-extend.org         |
|    \\/     M anipulation  |                                                 |
\*---------------------------------------------------------------------------*/
FoamFile
{
    version     2.0;
    format      ascii;
    class       volScalarField;
    location    "10";
    object      Na.water;
}
// * * * * * * * * * * * * * * * * * * * * * * * * * * * * * * * * * * * * * //

dimensions      [0 0 0 0 0 0 0];

internalField   nonuniform List<scalar> 
100
(
0.00342731
0.0048995
0.0057597
0.00669358
0.00724741
0.00747995
0.00747251
0.00767068
0.00802755
0.00847791
0.0089654
0.00946899
0.00978884
0.0100599
0.0102694
0.010571
0.0108541
0.0110888
0.0112808
0.0115577
0.0117761
0.0119025
0.0120727
0.01224
0.0123982
0.0125267
0.0126735
0.0128325
0.0129376
0.0130136
0.0130264
0.0130159
0.0130261
0.0130615
0.0131371
0.0132489
0.0133436
0.0134295
0.0135584
0.0136968
0.0137992
0.0138845
0.0139909
0.0140684
0.0141475
0.014223
0.0142751
0.0143369
0.0143901
0.0144397
0.0145076
0.0145842
0.0146405
0.014706
0.0147625
0.0148101
0.0148544
0.0149028
0.0149569
0.0150067
0.0150544
0.015102
0.0151619
0.0152227
0.0152809
0.0153277
0.0153755
0.0154197
0.0154566
0.015493
0.0155397
0.0155884
0.0156356
0.0156955
0.0157457
0.0157907
0.01583
0.0158669
0.0159064
0.0159467
0.0159902
0.0160257
0.0160695
0.0161129
0.0161595
0.0161962
0.016232
0.016263
0.0162983
0.016338
0.0163716
0.0164008
0.0164359
0.0164723
0.0165115
0.0165472
0.0165855
0.0166138
0.0166429
0.0166652
)
;

boundaryField
{
    inlet
    {
        type            fixedValue;
        value           uniform 0;
    }
    outlet
    {
        type            zeroGradient;
    }
    yzfaces
    {
        type            empty;
    }
}


// ************************************************************************* //
