/*--------------------------------*- C++ -*----------------------------------*\
| =========                 |                                                 |
| \\      /  F ield         | foam-extend: Open Source CFD                    |
|  \\    /   O peration     | Version:     5.0                                |
|   \\  /    A nd           | Web:         http://www.foam-extend.org         |
|    \\/     M anipulation  |                                                 |
\*---------------------------------------------------------------------------*/
FoamFile
{
    version     2.0;
    format      ascii;
    class       volScalarField;
    location    "10";
    object      Ns;
}
// * * * * * * * * * * * * * * * * * * * * * * * * * * * * * * * * * * * * * //

dimensions      [0 -3 0 0 1 0 0];

internalField   nonuniform List<scalar> 
100
(
2098.77
1982.44
1971.57
1945.46
1980.1
1991.17
2051.33
2003.77
1951.63
1894.86
1875.6
1830.6
1856.3
1797.71
1838.53
1793.76
1765.27
1775.48
1750.87
1783.32
1760.53
1756.83
1784.44
1797.9
1755.48
1757.92
2153.33
1873.77
1787.75
1785.08
1782.37
1796.82
1756.06
1789.76
1761.44
1776.38
1788.95
1786.55
1772.72
1749.15
1753.7
1805.57
1741.73
1744.82
2132.81
1858.42
1764.09
1787.88
1770.23
1770.62
1760.55
1743.95
1770.25
1778.82
1760.53
1778.68
1769.97
1783.25
1763.03
1766.43
1786.37
1759.83
2147.05
1849.94
1786.38
1790.67
1787.96
1760.29
1762.35
1798.39
1777.97
1799.21
1767.4
1770.21
1767.35
1774.19
1752.87
2143.52
1868.06
1806.7
1794.24
1781.13
1784.91
1829.47
1841.08
1907.88
1916.37
1927.05
1969.91
1793.47
1960.66
1979.19
1750.35
1943.43
1756.52
1948.09
1771.97
1950.99
1770.92
1953.39
)
;

boundaryField
{
    inlet
    {
        type            fixedValue;
        value           uniform 0;
    }
    outlet
    {
        type            zeroGradient;
    }
    yzfaces
    {
        type            empty;
    }
}


// ************************************************************************* //
