/*--------------------------------*- C++ -*----------------------------------*\
| =========                 |                                                 |
| \\      /  F ield         | foam-extend: Open Source CFD                    |
|  \\    /   O peration     | Version:     5.0                                |
|   \\  /    A nd           | Web:         http://www.foam-extend.org         |
|    \\/     M anipulation  |                                                 |
\*---------------------------------------------------------------------------*/
FoamFile
{
    version     2.0;
    format      ascii;
    class       surfaceScalarField;
    location    "10";
    object      phi;
}
// * * * * * * * * * * * * * * * * * * * * * * * * * * * * * * * * * * * * * //

dimensions      [0 3 -1 0 0 0 0];

internalField   nonuniform List<scalar> 
99
(
1.22373e-06
1.22954e-06
1.21931e-06
1.22185e-06
1.21896e-06
1.22744e-06
1.21136e-06
1.20595e-06
1.19764e-06
1.18481e-06
1.16612e-06
1.16394e-06
1.16407e-06
1.16382e-06
1.16424e-06
1.15694e-06
1.15265e-06
1.14519e-06
1.15097e-06
1.14816e-06
1.14907e-06
1.14399e-06
1.13852e-06
1.13793e-06
1.14382e-06
1.14127e-06
1.13945e-06
1.14577e-06
1.15375e-06
1.15285e-06
1.14463e-06
1.13988e-06
1.13873e-06
1.14293e-06
1.13967e-06
1.13958e-06
1.1353e-06
1.13215e-06
1.12993e-06
1.13063e-06
1.13333e-06
1.13172e-06
1.13021e-06
1.13311e-06
1.12771e-06
1.13086e-06
1.12905e-06
1.12689e-06
1.12673e-06
1.12491e-06
1.12723e-06
1.12931e-06
1.12548e-06
1.1259e-06
1.1249e-06
1.12892e-06
1.12656e-06
1.12267e-06
1.12251e-06
1.11976e-06
1.11521e-06
1.11652e-06
1.11411e-06
1.11303e-06
1.11171e-06
1.11108e-06
1.1117e-06
1.10861e-06
1.10857e-06
1.11102e-06
1.10957e-06
1.10994e-06
1.11086e-06
1.10733e-06
1.10676e-06
1.10667e-06
1.10532e-06
1.10461e-06
1.10406e-06
1.10379e-06
1.10087e-06
1.10353e-06
1.10429e-06
1.10001e-06
1.09935e-06
1.10058e-06
1.09896e-06
1.09704e-06
1.09772e-06
1.09655e-06
1.09134e-06
1.09233e-06
1.09624e-06
1.09803e-06
1.09676e-06
1.0974e-06
1.09738e-06
1.09632e-06
1.09379e-06
)
;

boundaryField
{
    inlet
    {
        type            calculated;
        value           uniform -1.225e-06;
    }
    outlet
    {
        type            calculated;
        value           uniform 1.09421e-06;
    }
    yzfaces
    {
        type            empty;
    }
}


// ************************************************************************* //
