/*--------------------------------*- C++ -*----------------------------------*\
| =========                 |                                                 |
| \\      /  F ield         | foam-extend: Open Source CFD                    |
|  \\    /   O peration     | Version:     5.0                                |
|   \\  /    A nd           | Web:         http://www.foam-extend.org         |
|    \\/     M anipulation  |                                                 |
\*---------------------------------------------------------------------------*/
FoamFile
{
    version     2.0;
    format      ascii;
    class       surfaceScalarField;
    location    "10";
    object      phi;
}
// * * * * * * * * * * * * * * * * * * * * * * * * * * * * * * * * * * * * * //

dimensions      [0 3 -1 0 0 0 0];

internalField   nonuniform List<scalar> 
99
(
1.2203e-06
1.2331e-06
1.2264e-06
1.23413e-06
1.23328e-06
1.22347e-06
1.23428e-06
1.20892e-06
1.19867e-06
1.18741e-06
1.18217e-06
1.17773e-06
1.17164e-06
1.17311e-06
1.17148e-06
1.16098e-06
1.15726e-06
1.15818e-06
1.15366e-06
1.15411e-06
1.16227e-06
1.15976e-06
1.1576e-06
1.15938e-06
1.16146e-06
1.16306e-06
1.16308e-06
1.16863e-06
1.17108e-06
1.17499e-06
1.17231e-06
1.16745e-06
1.16229e-06
1.15478e-06
1.14635e-06
1.14623e-06
1.14323e-06
1.14207e-06
1.14372e-06
1.14083e-06
1.14819e-06
1.15423e-06
1.1574e-06
1.15254e-06
1.15695e-06
1.15632e-06
1.15737e-06
1.15772e-06
1.15556e-06
1.15552e-06
1.151e-06
1.15025e-06
1.15046e-06
1.14947e-06
1.15149e-06
1.14812e-06
1.14877e-06
1.15038e-06
1.15018e-06
1.15139e-06
1.15029e-06
1.14554e-06
1.14696e-06
1.14759e-06
1.15075e-06
1.15107e-06
1.1504e-06
1.15147e-06
1.15205e-06
1.15401e-06
1.1537e-06
1.15495e-06
1.15386e-06
1.15667e-06
1.15618e-06
1.15579e-06
1.15313e-06
1.15254e-06
1.15543e-06
1.155e-06
1.1572e-06
1.15581e-06
1.15549e-06
1.15722e-06
1.15293e-06
1.15696e-06
1.15335e-06
1.15342e-06
1.15673e-06
1.15418e-06
1.15902e-06
1.15838e-06
1.1611e-06
1.15983e-06
1.15846e-06
1.15571e-06
1.15542e-06
1.15723e-06
1.15567e-06
)
;

boundaryField
{
    inlet
    {
        type            calculated;
        value           uniform -1.225e-06;
    }
    outlet
    {
        type            calculated;
        value           uniform 1.15516e-06;
    }
    yzfaces
    {
        type            empty;
    }
}


// ************************************************************************* //
