/*--------------------------------*- C++ -*----------------------------------*\
| =========                 |                                                 |
| \\      /  F ield         | foam-extend: Open Source CFD                    |
|  \\    /   O peration     | Version:     5.0                                |
|   \\  /    A nd           | Web:         http://www.foam-extend.org         |
|    \\/     M anipulation  |                                                 |
\*---------------------------------------------------------------------------*/
FoamFile
{
    version     2.0;
    format      ascii;
    class       surfaceScalarField;
    location    "10";
    object      phi.water;
}
// * * * * * * * * * * * * * * * * * * * * * * * * * * * * * * * * * * * * * //

dimensions      [0 3 -1 0 0 0 0];

internalField   nonuniform List<scalar> 
99
(
5.90171e-08
1.10352e-07
1.43506e-07
1.94508e-07
2.29803e-07
2.44429e-07
2.43619e-07
2.47006e-07
2.67731e-07
2.96828e-07
3.34271e-07
3.80508e-07
4.11121e-07
4.41891e-07
4.6268e-07
4.94438e-07
5.28982e-07
5.60564e-07
5.82303e-07
6.26706e-07
6.69161e-07
6.8608e-07
7.13459e-07
7.44922e-07
7.7708e-07
8.01458e-07
8.32541e-07
8.68951e-07
8.95141e-07
9.19214e-07
9.17433e-07
9.11949e-07
9.07044e-07
9.07187e-07
9.16438e-07
9.44367e-07
9.66353e-07
9.84869e-07
1.01599e-06
1.05054e-06
1.08752e-06
1.11759e-06
1.14961e-06
1.16449e-06
1.19531e-06
1.2168e-06
1.23452e-06
1.25545e-06
1.26967e-06
1.28637e-06
1.30149e-06
1.32723e-06
1.34634e-06
1.36956e-06
1.39131e-06
1.40269e-06
1.42086e-06
1.44017e-06
1.45808e-06
1.47844e-06
1.49592e-06
1.5061e-06
1.53445e-06
1.55935e-06
1.58625e-06
1.60518e-06
1.62354e-06
1.64244e-06
1.65783e-06
1.67609e-06
1.69579e-06
1.71847e-06
1.7339e-06
1.76653e-06
1.78923e-06
1.80986e-06
1.82147e-06
1.84037e-06
1.86406e-06
1.88625e-06
1.90917e-06
1.92327e-06
1.94381e-06
1.96854e-06
1.98558e-06
2.0134e-06
2.02301e-06
2.04206e-06
2.06581e-06
2.07744e-06
2.1073e-06
2.1228e-06
2.14732e-06
2.16668e-06
2.18521e-06
2.19555e-06
2.22107e-06
2.24055e-06
2.24969e-06
)
;

boundaryField
{
    inlet
    {
        type            fixedValue;
        value           uniform 0;
    }
    outlet
    {
        type            calculated;
        value           uniform 2.25966e-06;
    }
    yzfaces
    {
        type            empty;
    }
}


// ************************************************************************* //
