/*--------------------------------*- C++ -*----------------------------------*\
| =========                 |                                                 |
| \\      /  F ield         | foam-extend: Open Source CFD                    |
|  \\    /   O peration     | Version:     5.0                                |
|   \\  /    A nd           | Web:         http://www.foam-extend.org         |
|    \\/     M anipulation  |                                                 |
\*---------------------------------------------------------------------------*/
FoamFile
{
    version     2.0;
    format      ascii;
    class       volVectorField;
    location    "10";
    object      U.gas;
}
// * * * * * * * * * * * * * * * * * * * * * * * * * * * * * * * * * * * * * //

dimensions      [0 1 -1 0 0 0 0];

internalField   nonuniform List<vector> 
100
(
(0.00587515 0 0)
(0.00634663 0 0)
(0.00661409 0 0)
(0.00693058 0 0)
(0.00719231 0 0)
(0.00731566 0 0)
(0.00730989 0 0)
(0.00730138 0 0)
(0.00742645 0 0)
(0.00759374 0 0)
(0.00772364 0 0)
(0.00789554 0 0)
(0.00807644 0 0)
(0.00820554 0 0)
(0.0082854 0 0)
(0.00841111 0 0)
(0.00854869 0 0)
(0.00865005 0 0)
(0.00877678 0 0)
(0.00891491 0 0)
(0.00904429 0 0)
(0.0090926 0 0)
(0.00914447 0 0)
(0.00921639 0 0)
(0.00939369 0 0)
(0.00948925 0 0)
(0.00955809 0 0)
(0.00969728 0 0)
(0.00983653 0 0)
(0.00989815 0 0)
(0.00986272 0 0)
(0.0098133 0 0)
(0.00981758 0 0)
(0.00986564 0 0)
(0.00989397 0 0)
(0.00994755 0 0)
(0.00999782 0 0)
(0.0100283 0 0)
(0.0100776 0 0)
(0.0101365 0 0)
(0.0102644 0 0)
(0.0103161 0 0)
(0.0103705 0 0)
(0.0104474 0 0)
(0.0104772 0 0)
(0.0105263 0 0)
(0.0105732 0 0)
(0.0105867 0 0)
(0.0106181 0 0)
(0.0106442 0 0)
(0.0107022 0 0)
(0.0107579 0 0)
(0.0107949 0 0)
(0.0108327 0 0)
(0.0108775 0 0)
(0.0109403 0 0)
(0.0109733 0 0)
(0.0109676 0 0)
(0.0109773 0 0)
(0.0109987 0 0)
(0.0110054 0 0)
(0.0110302 0 0)
(0.0110519 0 0)
(0.0110863 0 0)
(0.0111014 0 0)
(0.0111245 0 0)
(0.0111517 0 0)
(0.0111712 0 0)
(0.0111945 0 0)
(0.0112201 0 0)
(0.0112544 0 0)
(0.0112774 0 0)
(0.0113134 0 0)
(0.0113217 0 0)
(0.0113334 0 0)
(0.0113633 0 0)
(0.011375 0 0)
(0.0113941 0 0)
(0.0114023 0 0)
(0.0114153 0 0)
(0.0114162 0 0)
(0.0114417 0 0)
(0.0114815 0 0)
(0.0114775 0 0)
(0.0114885 0 0)
(0.0115154 0 0)
(0.0115295 0 0)
(0.0115294 0 0)
(0.0115503 0 0)
(0.0115543 0 0)
(0.0115417 0 0)
(0.0115392 0 0)
(0.0115789 0 0)
(0.0116215 0 0)
(0.0116297 0 0)
(0.0116535 0 0)
(0.0116627 0 0)
(0.011681 0 0)
(0.0116714 0 0)
(0.011662 0 0)
)
;

boundaryField
{
    inlet
    {
        type            fixedValue;
        value           uniform (0.005 0 0);
    }
    outlet
    {
        type            zeroGradient;
    }
    yzfaces
    {
        type            empty;
    }
}


// ************************************************************************* //
