/*--------------------------------*- C++ -*----------------------------------*\
| =========                 |                                                 |
| \\      /  F ield         | foam-extend: Open Source CFD                    |
|  \\    /   O peration     | Version:     5.0                                |
|   \\  /    A nd           | Web:         http://www.foam-extend.org         |
|    \\/     M anipulation  |                                                 |
\*---------------------------------------------------------------------------*/
FoamFile
{
    version     2.0;
    format      ascii;
    class       volVectorField;
    location    "10";
    object      U.gas;
}
// * * * * * * * * * * * * * * * * * * * * * * * * * * * * * * * * * * * * * //

dimensions      [0 1 -1 0 0 0 0];

internalField   nonuniform List<vector> 
100
(
(0.00586067 0 0)
(0.00634633 0 0)
(0.00666687 0 0)
(0.00703566 0 0)
(0.00728015 0 0)
(0.00733849 0 0)
(0.00733699 0 0)
(0.00737647 0 0)
(0.00743347 0 0)
(0.00757726 0 0)
(0.00776059 0 0)
(0.00798454 0 0)
(0.00811327 0 0)
(0.00824583 0 0)
(0.00835788 0 0)
(0.00848665 0 0)
(0.00859737 0 0)
(0.00872335 0 0)
(0.00881839 0 0)
(0.00898309 0 0)
(0.00915329 0 0)
(0.00924215 0 0)
(0.00933341 0 0)
(0.00944632 0 0)
(0.00956498 0 0)
(0.00966378 0 0)
(0.00977534 0 0)
(0.00990574 0 0)
(0.010005 0 0)
(0.0100824 0 0)
(0.0100841 0 0)
(0.0100386 0 0)
(0.0100046 0 0)
(0.00997835 0 0)
(0.00996792 0 0)
(0.0100174 0 0)
(0.0100681 0 0)
(0.010106 0 0)
(0.010206 0 0)
(0.0103004 0 0)
(0.0103943 0 0)
(0.0105116 0 0)
(0.0106286 0 0)
(0.0106679 0 0)
(0.0107319 0 0)
(0.0107978 0 0)
(0.0108327 0 0)
(0.0108881 0 0)
(0.0109166 0 0)
(0.0109437 0 0)
(0.0109715 0 0)
(0.0110074 0 0)
(0.0110366 0 0)
(0.0110824 0 0)
(0.01112 0 0)
(0.0111439 0 0)
(0.0111678 0 0)
(0.0112138 0 0)
(0.0112562 0 0)
(0.0112928 0 0)
(0.0113309 0 0)
(0.0113275 0 0)
(0.0113687 0 0)
(0.0114151 0 0)
(0.0114703 0 0)
(0.0115179 0 0)
(0.0115454 0 0)
(0.011573 0 0)
(0.0116036 0 0)
(0.0116384 0 0)
(0.0116847 0 0)
(0.0117233 0 0)
(0.0117469 0 0)
(0.0118028 0 0)
(0.011841 0 0)
(0.0118667 0 0)
(0.0118665 0 0)
(0.0118762 0 0)
(0.0119109 0 0)
(0.0119573 0 0)
(0.0119893 0 0)
(0.0120061 0 0)
(0.0120285 0 0)
(0.0120652 0 0)
(0.0120736 0 0)
(0.0120922 0 0)
(0.0121081 0 0)
(0.0121102 0 0)
(0.0121467 0 0)
(0.0121666 0 0)
(0.0122009 0 0)
(0.0122359 0 0)
(0.0122709 0 0)
(0.0122984 0 0)
(0.0122998 0 0)
(0.0122869 0 0)
(0.0122997 0 0)
(0.0123115 0 0)
(0.0123191 0 0)
(0.0123177 0 0)
)
;

boundaryField
{
    inlet
    {
        type            fixedValue;
        value           uniform (0.005 0 0);
    }
    outlet
    {
        type            zeroGradient;
    }
    yzfaces
    {
        type            empty;
    }
}


// ************************************************************************* //
