/*--------------------------------*- C++ -*----------------------------------*\
| =========                 |                                                 |
| \\      /  F ield         | foam-extend: Open Source CFD                    |
|  \\    /   O peration     | Version:     5.0                                |
|   \\  /    A nd           | Web:         http://www.foam-extend.org         |
|    \\/     M anipulation  |                                                 |
\*---------------------------------------------------------------------------*/
FoamFile
{
    version     2.0;
    format      ascii;
    class       volVectorField;
    location    "10";
    object      U.water;
}
// * * * * * * * * * * * * * * * * * * * * * * * * * * * * * * * * * * * * * //

dimensions      [0 1 -1 0 0 0 0];

internalField   nonuniform List<vector> 
100
(
(2.95153e-05 0 0)
(6.97406e-05 0 0)
(0.000103848 0 0)
(0.000132556 0 0)
(0.000165391 0 0)
(0.000190995 0 0)
(0.000201173 0 0)
(0.000203082 0 0)
(0.000212022 0 0)
(0.000232439 0 0)
(0.000259559 0 0)
(0.000290702 0 0)
(0.000323797 0 0)
(0.00035042 0 0)
(0.000369765 0 0)
(0.000386114 0 0)
(0.000410757 0 0)
(0.000438454 0 0)
(0.000465188 0 0)
(0.000491093 0 0)
(0.000517075 0 0)
(0.000539913 0 0)
(0.000554004 0 0)
(0.000572877 0 0)
(0.00059968 0 0)
(0.000630014 0 0)
(0.000650339 0 0)
(0.000674956 0 0)
(0.00070566 0 0)
(0.000725628 0 0)
(0.000730181 0 0)
(0.000728966 0 0)
(0.000730331 0 0)
(0.000738895 0 0)
(0.000748136 0 0)
(0.000756892 0 0)
(0.00077226 0 0)
(0.000787698 0 0)
(0.000804826 0 0)
(0.000824999 0 0)
(0.000849989 0 0)
(0.000877474 0 0)
(0.000895751 0 0)
(0.000917753 0 0)
(0.000937227 0 0)
(0.000953855 0 0)
(0.000972389 0 0)
(0.000985463 0 0)
(0.000997447 0 0)
(0.00101045 0 0)
(0.00102667 0 0)
(0.00104565 0 0)
(0.00105956 0 0)
(0.00107551 0 0)
(0.00109526 0 0)
(0.00111723 0 0)
(0.00113575 0 0)
(0.0011445 0 0)
(0.00115405 0 0)
(0.00116576 0 0)
(0.00117773 0 0)
(0.00119372 0 0)
(0.00120969 0 0)
(0.00122525 0 0)
(0.00124262 0 0)
(0.00125762 0 0)
(0.00127346 0 0)
(0.00128692 0 0)
(0.0013024 0 0)
(0.00131969 0 0)
(0.00133191 0 0)
(0.00134596 0 0)
(0.00136313 0 0)
(0.00137684 0 0)
(0.00138893 0 0)
(0.00140529 0 0)
(0.0014214 0 0)
(0.00143582 0 0)
(0.00145021 0 0)
(0.00146262 0 0)
(0.0014733 0 0)
(0.00148645 0 0)
(0.00150309 0 0)
(0.00151481 0 0)
(0.00152665 0 0)
(0.00154603 0 0)
(0.00156376 0 0)
(0.00157678 0 0)
(0.00159254 0 0)
(0.00160869 0 0)
(0.00161709 0 0)
(0.0016293 0 0)
(0.00164881 0 0)
(0.00166731 0 0)
(0.00167985 0 0)
(0.00169205 0 0)
(0.00170742 0 0)
(0.00171998 0 0)
(0.00173258 0 0)
(0.00174497 0 0)
)
;

boundaryField
{
    inlet
    {
        type            fixedValue;
        value           uniform (0 0 0);
    }
    outlet
    {
        type            zeroGradient;
    }
    yzfaces
    {
        type            empty;
    }
}


// ************************************************************************* //
