/*--------------------------------*- C++ -*----------------------------------*\
| =========                 |                                                 |
| \\      /  F ield         | foam-extend: Open Source CFD                    |
|  \\    /   O peration     | Version:     5.0                                |
|   \\  /    A nd           | Web:         http://www.foam-extend.org         |
|    \\/     M anipulation  |                                                 |
\*---------------------------------------------------------------------------*/
FoamFile
{
    version     2.0;
    format      ascii;
    class       volVectorField;
    location    "10";
    object      U.water;
}
// * * * * * * * * * * * * * * * * * * * * * * * * * * * * * * * * * * * * * //

dimensions      [0 1 -1 0 0 0 0];

internalField   nonuniform List<vector> 
100
(
(2.92745e-05 0 0)
(6.94792e-05 0 0)
(0.000104902 0 0)
(0.000136911 0 0)
(0.000171608 0 0)
(0.000192397 0 0)
(0.000200765 0 0)
(0.000202007 0 0)
(0.000211412 0 0)
(0.000231354 0 0)
(0.000258469 0 0)
(0.000291136 0 0)
(0.000323172 0 0)
(0.000347785 0 0)
(0.000370216 0 0)
(0.000390926 0 0)
(0.000417574 0 0)
(0.000444543 0 0)
(0.000467829 0 0)
(0.000492911 0 0)
(0.00052746 0 0)
(0.000553657 0 0)
(0.000571621 0 0)
(0.000595302 0 0)
(0.000621035 0 0)
(0.00064451 0 0)
(0.000666852 0 0)
(0.000693835 0 0)
(0.00071952 0 0)
(0.000739097 0 0)
(0.000749059 0 0)
(0.000747204 0 0)
(0.000743356 0 0)
(0.00074192 0 0)
(0.000745825 0 0)
(0.000759801 0 0)
(0.000779693 0 0)
(0.000796713 0 0)
(0.00081664 0 0)
(0.000842959 0 0)
(0.000871608 0 0)
(0.000899417 0 0)
(0.000924782 0 0)
(0.000944927 0 0)
(0.000962934 0 0)
(0.000984292 0 0)
(0.00100097 0 0)
(0.00101634 0 0)
(0.00103076 0 0)
(0.00104367 0 0)
(0.00105679 0 0)
(0.00107271 0 0)
(0.00109158 0 0)
(0.00110826 0 0)
(0.00112666 0 0)
(0.00114051 0 0)
(0.00115246 0 0)
(0.0011677 0 0)
(0.00118293 0 0)
(0.00119865 0 0)
(0.00121385 0 0)
(0.00122602 0 0)
(0.00124078 0 0)
(0.00126247 0 0)
(0.00128354 0 0)
(0.0013024 0 0)
(0.00131762 0 0)
(0.00133271 0 0)
(0.00134684 0 0)
(0.00136098 0 0)
(0.00137611 0 0)
(0.00139336 0 0)
(0.00140976 0 0)
(0.00142851 0 0)
(0.00145115 0 0)
(0.00146876 0 0)
(0.00148249 0 0)
(0.00149464 0 0)
(0.00151193 0 0)
(0.00153029 0 0)
(0.00154881 0 0)
(0.00156474 0 0)
(0.00157869 0 0)
(0.00159696 0 0)
(0.00161394 0 0)
(0.00163195 0 0)
(0.00164761 0 0)
(0.00165907 0 0)
(0.00167629 0 0)
(0.001691 0 0)
(0.00170756 0 0)
(0.00172639 0 0)
(0.0017428 0 0)
(0.00176088 0 0)
(0.00177652 0 0)
(0.00178896 0 0)
(0.00180244 0 0)
(0.00182075 0 0)
(0.00183301 0 0)
(0.00184068 0 0)
)
;

boundaryField
{
    inlet
    {
        type            fixedValue;
        value           uniform (0 0 0);
    }
    outlet
    {
        type            zeroGradient;
    }
    yzfaces
    {
        type            empty;
    }
}


// ************************************************************************* //
