/*--------------------------------*- C++ -*----------------------------------*\
| =========                 |                                                 |
| \\      /  F ield         | foam-extend: Open Source CFD                    |
|  \\    /   O peration     | Version:     5.0                                |
|   \\  /    A nd           | Web:         http://www.foam-extend.org         |
|    \\/     M anipulation  |                                                 |
\*---------------------------------------------------------------------------*/
FoamFile
{
    version     2.0;
    format      ascii;
    class       volScalarField;
    location    "4";
    object      Cl.water;
}
// * * * * * * * * * * * * * * * * * * * * * * * * * * * * * * * * * * * * * //

dimensions      [0 0 0 0 0 0 0];

internalField   nonuniform List<scalar> 
100
(
0.00547133
0.00730339
0.00825233
0.00931093
0.010108
0.0106722
0.0111667
0.0115648
0.0119708
0.0123285
0.0126417
0.01296
0.0132182
0.0134585
0.013677
0.0138674
0.014075
0.0142584
0.0144292
0.0145999
0.01479
0.0149833
0.0151681
0.0153389
0.0155102
0.01566
0.0157971
0.0159571
0.0161301
0.0163164
0.0165357
0.0167849
0.0170479
0.0174193
0.0179244
0.0187486
0.0203657
0.0208177
0.0210638
0.0211689
0.0211868
0.0212012
0.0212063
0.0211905
0.0211798
0.0211515
0.0211589
0.0211533
0.0211376
0.0211468
0.0211459
0.0211369
0.0211481
0.0211566
0.0211701
0.0211981
0.0212288
0.0212686
0.0213281
0.0213818
0.021471
0.021583
0.0216797
0.0218114
0.0219725
0.0221561
0.0223119
0.0224502
0.0226129
0.0227086
0.0228211
0.0228876
0.0229329
0.0229602
0.0229585
0.022979
0.0229776
0.0229788
0.0229935
0.0229879
0.0229828
0.0229812
0.0229877
0.0230008
0.0229833
0.0229813
0.022967
0.0229916
0.0229917
0.0230024
0.0229937
0.0229973
0.0229891
0.0230039
0.0230051
0.0230154
0.0230018
0.0230128
0.0230209
0.0230116
)
;

boundaryField
{
    inlet
    {
        type            fixedValue;
        value           uniform 0;
    }
    outlet
    {
        type            zeroGradient;
    }
    yzfaces
    {
        type            empty;
    }
}


// ************************************************************************* //
