/*--------------------------------*- C++ -*----------------------------------*\
| =========                 |                                                 |
| \\      /  F ield         | foam-extend: Open Source CFD                    |
|  \\    /   O peration     | Version:     5.0                                |
|   \\  /    A nd           | Web:         http://www.foam-extend.org         |
|    \\/     M anipulation  |                                                 |
\*---------------------------------------------------------------------------*/
FoamFile
{
    version     2.0;
    format      ascii;
    class       volScalarField;
    location    "4";
    object      CO2.water;
}
// * * * * * * * * * * * * * * * * * * * * * * * * * * * * * * * * * * * * * //

dimensions      [0 0 0 0 0 0 0];

internalField   nonuniform List<scalar> 
100
(
0.00125245
0.00167184
0.00188779
0.00213039
0.00231402
0.00244124
0.00255371
0.00264347
0.00273613
0.00281838
0.00289063
0.00296393
0.00302311
0.00307887
0.00312807
0.0031713
0.00321859
0.00326038
0.0033001
0.00333747
0.00338188
0.00342667
0.00346671
0.00350696
0.00354649
0.00358229
0.00361317
0.00365008
0.00368914
0.00373165
0.00378178
0.003838
0.0038991
0.00398424
0.00410177
0.00429269
0.00467558
0.00165183
0.000608997
0.000228658
8.61261e-05
3.23698e-05
1.21084e-05
4.49754e-06
1.65882e-06
6.0718e-07
2.21324e-07
8.0118e-08
2.88523e-08
1.03419e-08
3.68779e-09
1.31034e-09
4.64899e-10
1.64951e-10
5.87858e-11
2.10947e-11
7.65165e-12
2.81393e-12
1.05464e-12
4.03564e-13
1.58425e-13
6.37249e-14
2.61855e-14
1.09915e-14
4.68004e-15
2.00757e-15
8.60681e-16
3.64939e-16
1.52816e-16
6.22284e-17
2.47106e-17
9.51384e-18
3.5573e-18
1.34216e-18
5.30339e-19
2.19876e-19
9.34333e-20
4.0397e-20
1.76575e-20
7.80255e-21
3.45861e-21
1.58948e-21
7.28337e-22
3.22168e-22
1.39588e-22
5.9322e-23
2.62857e-23
1.34564e-23
8.45629e-24
6.01009e-24
3.90795e-24
2.37944e-24
1.38609e-24
7.80287e-25
4.26518e-25
2.27663e-25
1.1905e-25
6.13007e-26
3.10767e-26
1.6149e-26
)
;

boundaryField
{
    inlet
    {
        type            fixedValue;
        value           uniform 0;
    }
    outlet
    {
        type            zeroGradient;
    }
    yzfaces
    {
        type            empty;
    }
}


// ************************************************************************* //
