/*--------------------------------*- C++ -*----------------------------------*\
| =========                 |                                                 |
| \\      /  F ield         | foam-extend: Open Source CFD                    |
|  \\    /   O peration     | Version:     5.0                                |
|   \\  /    A nd           | Web:         http://www.foam-extend.org         |
|    \\/     M anipulation  |                                                 |
\*---------------------------------------------------------------------------*/
FoamFile
{
    version     2.0;
    format      ascii;
    class       volScalarField;
    location    "4";
    object      H2O.gas;
}
// * * * * * * * * * * * * * * * * * * * * * * * * * * * * * * * * * * * * * //

dimensions      [0 0 0 0 0 0 0];

internalField   nonuniform List<scalar> 
100
(
2.27586e-05
8.74203e-05
0.000249107
0.000231426
0.00021261
0.000208456
0.000200083
0.000168364
0.000152371
0.000138538
0.000125285
0.000113747
0.000121393
0.000114668
0.000157447
0.000116198
0.000105506
9.82247e-05
9.20655e-05
8.68113e-05
8.286e-05
8.14198e-05
8.28342e-05
8.73835e-05
9.36243e-05
0.00012386
0.000115247
0.000110786
0.000108756
0.000107437
0.00010576
0.000104844
9.93002e-05
9.39802e-05
8.52067e-05
7.07881e-05
4.15676e-05
0.000836983
0.00166461
0.00257519
0.00356214
0.00462967
0.00577316
0.00697984
0.0082447
0.00953775
0.010879
0.0122151
0.0135309
0.0148283
0.0160603
0.0172117
0.0182896
0.0192462
0.0200893
0.0207921
0.0213343
0.0216915
0.0218725
0.0218227
0.0215859
0.0211326
0.0204148
0.0194891
0.0183783
0.0171318
0.0157969
0.0144811
0.0133093
0.0123092
0.0115564
0.0110076
0.0106373
0.0103961
0.0102349
0.0101428
0.0100803
0.0100417
0.0100257
0.0100098
0.0100008
0.00999676
0.00999948
0.0100037
0.00999656
0.00999455
0.00998808
0.0100006
0.010002
0.0100064
0.0100034
0.0100011
0.00999557
0.0100009
0.0100033
0.0100074
0.00999964
0.0100046
0.0100078
0.0100007
)
;

boundaryField
{
    inlet
    {
        type            fixedValue;
        value           uniform 0;
    }
    outlet
    {
        type            zeroGradient;
    }
    yzfaces
    {
        type            empty;
    }
}


// ************************************************************************* //
