/*--------------------------------*- C++ -*----------------------------------*\
| =========                 |                                                 |
| \\      /  F ield         | foam-extend: Open Source CFD                    |
|  \\    /   O peration     | Version:     5.0                                |
|   \\  /    A nd           | Web:         http://www.foam-extend.org         |
|    \\/     M anipulation  |                                                 |
\*---------------------------------------------------------------------------*/
FoamFile
{
    version     2.0;
    format      ascii;
    class       surfaceScalarField;
    location    "4";
    object      phi;
}
// * * * * * * * * * * * * * * * * * * * * * * * * * * * * * * * * * * * * * //

dimensions      [0 3 -1 0 0 0 0];

internalField   nonuniform List<scalar> 
99
(
1.22543e-06
1.22908e-06
1.22301e-06
1.22499e-06
1.23033e-06
1.22205e-06
1.21615e-06
1.21589e-06
1.21399e-06
1.22556e-06
1.22429e-06
1.22799e-06
1.22083e-06
1.21637e-06
1.21376e-06
1.21373e-06
1.21845e-06
1.22108e-06
1.22048e-06
1.22065e-06
1.2205e-06
1.22281e-06
1.22378e-06
1.22823e-06
1.22477e-06
1.2254e-06
1.23338e-06
1.23218e-06
1.23449e-06
1.23246e-06
1.23535e-06
1.23286e-06
1.23473e-06
1.23561e-06
1.23528e-06
1.23435e-06
1.22773e-06
1.23363e-06
1.23494e-06
1.23465e-06
1.23724e-06
1.23997e-06
1.24091e-06
1.24215e-06
1.23991e-06
1.24073e-06
1.2426e-06
1.24403e-06
1.24267e-06
1.24267e-06
1.24373e-06
1.24292e-06
1.24186e-06
1.24513e-06
1.24425e-06
1.24516e-06
1.24478e-06
1.24404e-06
1.2448e-06
1.24652e-06
1.24771e-06
1.24736e-06
1.24774e-06
1.2475e-06
1.24803e-06
1.24791e-06
1.24748e-06
1.24944e-06
1.24756e-06
1.2481e-06
1.24825e-06
1.2484e-06
1.24833e-06
1.24697e-06
1.2474e-06
1.24636e-06
1.24602e-06
1.24524e-06
1.24578e-06
1.24626e-06
1.24571e-06
1.24643e-06
1.247e-06
1.24697e-06
1.24658e-06
1.24479e-06
1.24605e-06
1.24696e-06
1.24713e-06
1.248e-06
1.24596e-06
1.24581e-06
1.24708e-06
1.24768e-06
1.24641e-06
1.24762e-06
1.24637e-06
1.24896e-06
1.24874e-06
)
;

boundaryField
{
    inlet
    {
        type            calculated;
        value           uniform -1.225e-06;
    }
    outlet
    {
        type            calculated;
        value           uniform 1.25011e-06;
    }
    yzfaces
    {
        type            empty;
    }
}


// ************************************************************************* //
