/*--------------------------------*- C++ -*----------------------------------*\
| =========                 |                                                 |
| \\      /  F ield         | foam-extend: Open Source CFD                    |
|  \\    /   O peration     | Version:     5.0                                |
|   \\  /    A nd           | Web:         http://www.foam-extend.org         |
|    \\/     M anipulation  |                                                 |
\*---------------------------------------------------------------------------*/
FoamFile
{
    version     2.0;
    format      ascii;
    class       volScalarField;
    location    "2";
    object      alpha.gas;
}
// * * * * * * * * * * * * * * * * * * * * * * * * * * * * * * * * * * * * * //

dimensions      [0 0 0 0 0 0 0];

internalField   nonuniform List<scalar> 
100
(
0.141746
0.12453
0.113575
0.105774
0.0983648
0.0940019
0.0891043
0.0848346
0.0812678
0.077561
0.0743161
0.0710167
0.0675104
0.0642565
0.0605513
0.0560832
0.0508942
0.0428557
0.0285227
0.0286822
0.0285606
0.0283086
0.0281298
0.0280214
0.0279364
0.0278225
0.0276276
0.0273025
0.0268411
0.026203
0.0253642
0.0243184
0.0230558
0.021584
0.0199394
0.0181802
0.0164043
0.014735
0.0132988
0.0121705
0.0113575
0.0108185
0.0104771
0.0102727
0.0101526
0.0100825
0.0100455
0.010025
0.0100123
0.0100064
0.0100012
0.010001
0.0100013
0.0100019
0.010003
0.0100017
0.0100029
0.010003
0.0100006
0.0100025
0.0100016
0.0100027
0.0100017
0.0100019
0.0100003
0.0100025
0.0100025
0.0100033
0.01
0.0100012
0.00999772
0.00999786
0.00999706
0.00999646
0.00999982
0.010001
0.0100021
0.00999972
0.00999919
0.0100001
0.0100018
0.0100019
0.0100013
0.0100006
0.0100006
0.0100003
0.00999982
0.00999853
0.00999888
0.00999793
0.00999847
0.00999905
0.0100004
0.0100025
0.0100034
0.0100041
0.0100064
0.0100053
0.0100061
0.0100041
)
;

boundaryField
{
    inlet
    {
        type            fixedValue;
        value           uniform 0.2;
    }
    outlet
    {
        type            zeroGradient;
    }
    yzfaces
    {
        type            empty;
    }
}


// ************************************************************************* //
