/*--------------------------------*- C++ -*----------------------------------*\
| =========                 |                                                 |
| \\      /  F ield         | foam-extend: Open Source CFD                    |
|  \\    /   O peration     | Version:     5.0                                |
|   \\  /    A nd           | Web:         http://www.foam-extend.org         |
|    \\/     M anipulation  |                                                 |
\*---------------------------------------------------------------------------*/
FoamFile
{
    version     2.0;
    format      ascii;
    class       volScalarField;
    location    "2";
    object      Cl.water;
}
// * * * * * * * * * * * * * * * * * * * * * * * * * * * * * * * * * * * * * //

dimensions      [0 0 0 0 0 0 0];

internalField   nonuniform List<scalar> 
100
(
0.0118551
0.0153492
0.0176751
0.0193233
0.0207301
0.0217703
0.0226706
0.0234613
0.0242337
0.0249525
0.0256535
0.0262914
0.0269925
0.0277253
0.0285432
0.0294189
0.0305458
0.0321434
0.0350673
0.0357328
0.0359724
0.0360767
0.0361718
0.0361731
0.036222
0.0362569
0.0362974
0.0363881
0.0364834
0.0366272
0.0367711
0.0369826
0.0372613
0.0375574
0.0379346
0.0382729
0.0386617
0.0389841
0.0393013
0.0395302
0.0396889
0.0398118
0.0398918
0.039918
0.0399415
0.0399743
0.0399627
0.0400004
0.0399987
0.0400091
0.0400307
0.0400344
0.0400028
0.0400278
0.0400384
0.0400243
0.0400048
0.0399949
0.0400008
0.0399711
0.0400191
0.0399783
0.0399874
0.0400194
0.0400076
0.0400114
0.0400247
0.0400367
0.0400302
0.0400198
0.0400464
0.0400411
0.0400543
0.0400462
0.0400008
0.0400178
0.0399897
0.0400092
0.0399824
0.0399937
0.0399853
0.0399777
0.0399748
0.0399646
0.0399953
0.0400001
0.0400204
0.0400181
0.0399578
0.0399847
0.0399759
0.0399975
0.0399962
0.0399798
0.0400071
0.0399935
0.039986
0.0400003
0.0400074
0.0399771
)
;

boundaryField
{
    inlet
    {
        type            fixedValue;
        value           uniform 0;
    }
    outlet
    {
        type            zeroGradient;
    }
    yzfaces
    {
        type            empty;
    }
}


// ************************************************************************* //
