/*--------------------------------*- C++ -*----------------------------------*\
| =========                 |                                                 |
| \\      /  F ield         | foam-extend: Open Source CFD                    |
|  \\    /   O peration     | Version:     5.0                                |
|   \\  /    A nd           | Web:         http://www.foam-extend.org         |
|    \\/     M anipulation  |                                                 |
\*---------------------------------------------------------------------------*/
FoamFile
{
    version     2.0;
    format      ascii;
    class       volScalarField;
    location    "2";
    object      CO2.water;
}
// * * * * * * * * * * * * * * * * * * * * * * * * * * * * * * * * * * * * * //

dimensions      [0 0 0 0 0 0 0];

internalField   nonuniform List<scalar> 
100
(
0.00153002
0.00198217
0.00226991
0.0024748
0.0026694
0.00278399
0.00291262
0.00302477
0.00311845
0.0032158
0.00330103
0.00338769
0.00347978
0.00356524
0.00366256
0.00377991
0.00391619
0.00412732
0.00450377
0.00147167
0.000499766
0.000172288
5.94027e-05
2.0285e-05
6.85788e-06
2.2842e-06
7.47422e-07
2.38848e-07
7.35813e-08
2.15571e-08
5.89535e-09
1.51446e-09
3.63253e-10
8.55793e-11
2.31166e-11
9.24931e-12
4.1061e-12
1.78324e-12
7.60848e-13
3.20334e-13
1.33599e-13
5.53088e-14
2.26796e-14
9.22344e-15
3.73368e-15
1.50102e-15
6.00469e-16
2.39411e-16
2.15253e-16
2.82569e-16
2.75519e-16
2.01025e-16
1.28043e-16
7.61388e-17
4.32227e-17
2.37296e-17
1.2672e-17
6.61478e-18
3.37847e-18
1.68933e-18
8.29752e-19
3.98737e-19
1.87801e-19
8.64922e-20
3.88054e-20
1.69241e-20
7.1549e-21
2.93266e-21
1.16432e-21
4.48624e-22
1.68395e-22
6.11952e-23
2.22136e-23
8.48674e-24
3.37483e-24
1.38494e-24
5.99066e-25
2.54195e-25
1.06367e-25
4.39692e-26
1.79788e-26
7.30472e-27
2.94439e-27
1.18184e-27
4.71859e-28
1.87285e-28
7.41344e-29
2.92303e-29
1.1519e-29
4.52716e-30
1.77404e-30
6.9196e-31
2.69502e-31
1.04999e-31
4.07479e-32
1.57998e-32
6.13487e-33
2.37392e-33
9.18241e-34
4.4008e-34
)
;

boundaryField
{
    inlet
    {
        type            fixedValue;
        value           uniform 0;
    }
    outlet
    {
        type            zeroGradient;
    }
    yzfaces
    {
        type            empty;
    }
}


// ************************************************************************* //
