/*--------------------------------*- C++ -*----------------------------------*\
| =========                 |                                                 |
| \\      /  F ield         | foam-extend: Open Source CFD                    |
|  \\    /   O peration     | Version:     5.0                                |
|   \\  /    A nd           | Web:         http://www.foam-extend.org         |
|    \\/     M anipulation  |                                                 |
\*---------------------------------------------------------------------------*/
FoamFile
{
    version     2.0;
    format      ascii;
    class       volScalarField;
    location    "2";
    object      H2O.gas;
}
// * * * * * * * * * * * * * * * * * * * * * * * * * * * * * * * * * * * * * //

dimensions      [0 0 0 0 0 0 0];

internalField   nonuniform List<scalar> 
100
(
0.000276046
0.000242519
0.000221184
0.000205992
0.000191563
0.000183066
0.000173528
0.000165213
0.000158267
0.000151048
0.000144728
0.000138303
0.000131475
0.000125138
0.000117922
0.00010922
9.9115e-05
8.34602e-05
5.55472e-05
0.00125904
0.00262208
0.00415458
0.00583857
0.00761973
0.00948261
0.0113662
0.0132085
0.0149571
0.0165103
0.0178105
0.018759
0.0193236
0.0194603
0.0191254
0.0183824
0.0172528
0.0159132
0.0144876
0.0131954
0.0121281
0.0113388
0.0108135
0.010478
0.0102729
0.0101517
0.0100875
0.010042
0.01003
0.0100137
0.010008
0.0100064
0.0100074
0.0100009
0.0100067
0.0100091
0.0100069
0.0100014
0.0100004
0.0100007
0.0099957
0.0100069
0.00999537
0.00999769
0.0100058
0.0100034
0.0100079
0.0100098
0.0100145
0.0100093
0.0100085
0.0100118
0.0100103
0.0100133
0.0100115
0.0100023
0.0100071
0.00999893
0.010002
0.00999386
0.00999635
0.00999772
0.00999807
0.00999821
0.00999532
0.0100036
0.010003
0.0100066
0.010005
0.00999189
0.00999595
0.00999277
0.00999961
0.00999977
0.00999706
0.0100028
0.0100023
0.0100019
0.0100063
0.0100097
0.0100038
)
;

boundaryField
{
    inlet
    {
        type            fixedValue;
        value           uniform 0;
    }
    outlet
    {
        type            zeroGradient;
    }
    yzfaces
    {
        type            empty;
    }
}


// ************************************************************************* //
