/*--------------------------------*- C++ -*----------------------------------*\
| =========                 |                                                 |
| \\      /  F ield         | foam-extend: Open Source CFD                    |
|  \\    /   O peration     | Version:     5.0                                |
|   \\  /    A nd           | Web:         http://www.foam-extend.org         |
|    \\/     M anipulation  |                                                 |
\*---------------------------------------------------------------------------*/
FoamFile
{
    version     2.0;
    format      ascii;
    class       volScalarField;
    location    "2";
    object      Na.water;
}
// * * * * * * * * * * * * * * * * * * * * * * * * * * * * * * * * * * * * * //

dimensions      [0 0 0 0 0 0 0];

internalField   nonuniform List<scalar> 
100
(
0.0118524
0.0153464
0.0176752
0.0193282
0.0207394
0.0217834
0.022682
0.0234768
0.0242554
0.0249647
0.0256541
0.0262833
0.0269862
0.027721
0.0285321
0.0294199
0.0305437
0.0321517
0.0350672
0.0357257
0.0359756
0.0360891
0.0361889
0.0361961
0.0362361
0.036272
0.0363072
0.0364078
0.0365062
0.0366406
0.0367915
0.037001
0.0372804
0.0375654
0.0379384
0.0382826
0.0386709
0.0389971
0.039322
0.0395476
0.0397129
0.0398474
0.0399238
0.0399506
0.039968
0.0400004
0.0399781
0.0400169
0.0400017
0.0400073
0.0400142
0.040018
0.0399907
0.040015
0.0400131
0.0400062
0.0399784
0.0399779
0.0399864
0.0399553
0.0400154
0.0399576
0.0399709
0.0400079
0.0400067
0.0400246
0.0400244
0.0400456
0.0400327
0.0400216
0.0400411
0.0400328
0.0400576
0.0400537
0.0400147
0.0400218
0.0399805
0.0399987
0.0399696
0.0399858
0.039995
0.0399987
0.0399922
0.0399862
0.0400183
0.0400131
0.0400361
0.0400368
0.0399884
0.0400106
0.040003
0.0400375
0.0400266
0.0399997
0.0400169
0.04001
0.0399941
0.0400267
0.0400307
0.0400074
)
;

boundaryField
{
    inlet
    {
        type            fixedValue;
        value           uniform 0;
    }
    outlet
    {
        type            zeroGradient;
    }
    yzfaces
    {
        type            empty;
    }
}


// ************************************************************************* //
