/*--------------------------------*- C++ -*----------------------------------*\
| =========                 |                                                 |
| \\      /  F ield         | foam-extend: Open Source CFD                    |
|  \\    /   O peration     | Version:     5.0                                |
|   \\  /    A nd           | Web:         http://www.foam-extend.org         |
|    \\/     M anipulation  |                                                 |
\*---------------------------------------------------------------------------*/
FoamFile
{
    version     2.0;
    format      ascii;
    class       surfaceScalarField;
    location    "2";
    object      phi;
}
// * * * * * * * * * * * * * * * * * * * * * * * * * * * * * * * * * * * * * //

dimensions      [0 3 -1 0 0 0 0];

internalField   nonuniform List<scalar> 
99
(
1.22772e-06
1.22409e-06
1.22994e-06
1.22883e-06
1.23016e-06
1.2261e-06
1.2313e-06
1.2325e-06
1.23238e-06
1.2321e-06
1.23008e-06
1.23123e-06
1.23195e-06
1.23328e-06
1.23372e-06
1.23605e-06
1.23364e-06
1.23276e-06
1.23356e-06
1.2334e-06
1.23199e-06
1.23259e-06
1.23322e-06
1.23301e-06
1.23346e-06
1.23305e-06
1.23263e-06
1.23405e-06
1.23133e-06
1.2304e-06
1.22962e-06
1.22896e-06
1.22952e-06
1.22955e-06
1.22882e-06
1.22856e-06
1.2258e-06
1.2276e-06
1.22803e-06
1.22812e-06
1.22877e-06
1.22754e-06
1.22675e-06
1.22493e-06
1.22369e-06
1.2239e-06
1.22271e-06
1.22213e-06
1.22192e-06
1.22102e-06
1.22151e-06
1.22058e-06
1.22229e-06
1.22181e-06
1.22085e-06
1.22141e-06
1.22088e-06
1.22186e-06
1.22115e-06
1.2213e-06
1.22108e-06
1.22072e-06
1.22313e-06
1.22291e-06
1.22156e-06
1.2231e-06
1.22576e-06
1.22465e-06
1.22372e-06
1.22353e-06
1.22266e-06
1.22297e-06
1.2217e-06
1.22114e-06
1.221e-06
1.21863e-06
1.22046e-06
1.21903e-06
1.21893e-06
1.2182e-06
1.2191e-06
1.21946e-06
1.21863e-06
1.22044e-06
1.22124e-06
1.22192e-06
1.22184e-06
1.2208e-06
1.22208e-06
1.2223e-06
1.22354e-06
1.22097e-06
1.22098e-06
1.22183e-06
1.22296e-06
1.22263e-06
1.22394e-06
1.22285e-06
1.22216e-06
)
;

boundaryField
{
    inlet
    {
        type            calculated;
        value           uniform -1.225e-06;
    }
    outlet
    {
        type            calculated;
        value           uniform 1.22265e-06;
    }
    yzfaces
    {
        type            empty;
    }
}


// ************************************************************************* //
