/*--------------------------------*- C++ -*----------------------------------*\
| =========                 |                                                 |
| \\      /  F ield         | foam-extend: Open Source CFD                    |
|  \\    /   O peration     | Version:     5.0                                |
|   \\  /    A nd           | Web:         http://www.foam-extend.org         |
|    \\/     M anipulation  |                                                 |
\*---------------------------------------------------------------------------*/
FoamFile
{
    version     2.0;
    format      ascii;
    class       surfaceScalarField;
    location    "2";
    object      phi.water;
}
// * * * * * * * * * * * * * * * * * * * * * * * * * * * * * * * * * * * * * //

dimensions      [0 3 -1 0 0 0 0];

internalField   nonuniform List<scalar> 
99
(
1.76683e-07
3.15001e-07
4.37759e-07
5.48539e-07
6.81221e-07
7.77106e-07
8.88258e-07
1.00875e-06
1.12278e-06
1.24591e-06
1.37114e-06
1.50664e-06
1.67029e-06
1.83834e-06
2.04471e-06
2.3221e-06
2.68204e-06
3.2934e-06
4.89262e-06
4.81921e-06
4.82501e-06
4.85289e-06
4.87403e-06
4.88536e-06
4.89308e-06
4.90129e-06
4.91592e-06
4.95015e-06
4.98303e-06
5.04098e-06
5.11834e-06
5.21105e-06
5.32713e-06
5.45257e-06
5.58324e-06
5.71606e-06
5.82641e-06
5.93939e-06
6.01953e-06
6.07649e-06
6.11533e-06
6.12933e-06
6.1382e-06
6.13749e-06
6.13432e-06
6.13863e-06
6.13412e-06
6.13049e-06
6.13083e-06
6.1253e-06
6.12652e-06
6.12361e-06
6.13268e-06
6.12826e-06
6.12326e-06
6.12846e-06
6.12819e-06
6.1325e-06
6.13043e-06
6.12945e-06
6.12861e-06
6.12954e-06
6.13827e-06
6.13484e-06
6.12788e-06
6.13425e-06
6.14576e-06
6.13943e-06
6.13611e-06
6.13357e-06
6.12783e-06
6.12863e-06
6.12154e-06
6.123e-06
6.12493e-06
6.11478e-06
6.12508e-06
6.11865e-06
6.11992e-06
6.11592e-06
6.1204e-06
6.12187e-06
6.11821e-06
6.12541e-06
6.12701e-06
6.12922e-06
6.12778e-06
6.12671e-06
6.13573e-06
6.13649e-06
6.14191e-06
6.12742e-06
6.12943e-06
6.13358e-06
6.1381e-06
6.13757e-06
6.14321e-06
6.13528e-06
6.13218e-06
)
;

boundaryField
{
    inlet
    {
        type            fixedValue;
        value           uniform 0;
    }
    outlet
    {
        type            calculated;
        value           uniform 6.13587e-06;
    }
    yzfaces
    {
        type            empty;
    }
}


// ************************************************************************* //
