/*--------------------------------*- C++ -*----------------------------------*\
| =========                 |                                                 |
| \\      /  F ield         | foam-extend: Open Source CFD                    |
|  \\    /   O peration     | Version:     5.0                                |
|   \\  /    A nd           | Web:         http://www.foam-extend.org         |
|    \\/     M anipulation  |                                                 |
\*---------------------------------------------------------------------------*/
FoamFile
{
    version     2.0;
    format      ascii;
    class       volScalarField;
    location    "2";
    object      S.gas;
}
// * * * * * * * * * * * * * * * * * * * * * * * * * * * * * * * * * * * * * //

dimensions      [0 0 0 0 0 0 0];

internalField   nonuniform List<scalar> 
100
(
0.706679
0.619496
0.566068
0.526645
0.490666
0.466716
0.444045
0.422286
0.403749
0.385792
0.369122
0.352887
0.335445
0.318939
0.30044
0.278447
0.251752
0.211874
0.140343
0.143411
0.142803
0.141543
0.140649
0.140107
0.139682
0.139112
0.138138
0.136513
0.134205
0.131015
0.126821
0.121592
0.115279
0.10792
0.0996972
0.090901
0.0820215
0.073675
0.0664942
0.0608525
0.0567876
0.0540925
0.0523853
0.0513636
0.0507629
0.0504124
0.0502274
0.0501252
0.0500614
0.0500318
0.0500058
0.050005
0.0500067
0.0500094
0.050015
0.0500086
0.0500143
0.0500148
0.0500032
0.0500127
0.0500082
0.0500134
0.0500085
0.0500096
0.0500017
0.0500127
0.0500127
0.0500167
0.05
0.050006
0.0499886
0.0499893
0.0499853
0.0499823
0.0499991
0.0500052
0.0500104
0.0499986
0.049996
0.0500004
0.0500092
0.0500097
0.0500063
0.0500032
0.0500029
0.0500015
0.0499991
0.0499927
0.0499944
0.0499896
0.0499923
0.0499952
0.0500019
0.0500127
0.0500171
0.0500206
0.0500318
0.0500267
0.0500306
0.0500206
)
;

boundaryField
{
    inlet
    {
        type            calculated;
        value           uniform 1;
    }
    outlet
    {
        type            calculated;
        value           uniform 0.0500206;
    }
    yzfaces
    {
        type            empty;
    }
}


// ************************************************************************* //
