/*--------------------------------*- C++ -*----------------------------------*\
| =========                 |                                                 |
| \\      /  F ield         | foam-extend: Open Source CFD                    |
|  \\    /   O peration     | Version:     5.0                                |
|   \\  /    A nd           | Web:         http://www.foam-extend.org         |
|    \\/     M anipulation  |                                                 |
\*---------------------------------------------------------------------------*/
FoamFile
{
    version     2.0;
    format      ascii;
    class       volVectorField;
    location    "2";
    object      U.gas;
}
// * * * * * * * * * * * * * * * * * * * * * * * * * * * * * * * * * * * * * //

dimensions      [0 1 -1 0 0 0 0];

internalField   nonuniform List<vector> 
100
(
(0.00704882 0 0)
(0.00795327 0 0)
(0.00861173 0 0)
(0.00916548 0 0)
(0.00970817 0 0)
(0.0100598 0 0)
(0.0104426 0 0)
(0.0108485 0 0)
(0.0111736 0 0)
(0.0114975 0 0)
(0.0117866 0 0)
(0.0120782 0 0)
(0.0124166 0 0)
(0.0127124 0 0)
(0.0130606 0 0)
(0.0134713 0 0)
(0.0139121 0 0)
(0.0145595 0 0)
(0.0157639 0 0)
(0.0114037 0 0)
(0.011601 0 0)
(0.011581 0 0)
(0.0115199 0 0)
(0.0114724 0 0)
(0.0114462 0 0)
(0.0114312 0 0)
(0.0114068 0 0)
(0.0113735 0 0)
(0.011298 0 0)
(0.0111768 0 0)
(0.0110157 0 0)
(0.0107916 0 0)
(0.0104953 0 0)
(0.010112 0 0)
(0.00962203 0 0)
(0.00902529 0 0)
(0.00833238 0 0)
(0.00759093 0 0)
(0.00686469 0 0)
(0.00621077 0 0)
(0.00568569 0 0)
(0.00530071 0 0)
(0.00504179 0 0)
(0.00487633 0 0)
(0.00477407 0 0)
(0.00471588 0 0)
(0.00468126 0 0)
(0.00465955 0 0)
(0.00464874 0 0)
(0.0046411 0 0)
(0.00463759 0 0)
(0.00463422 0 0)
(0.00463535 0 0)
(0.00463761 0 0)
(0.00463543 0 0)
(0.00463589 0 0)
(0.00463488 0 0)
(0.00463614 0 0)
(0.00463701 0 0)
(0.00463497 0 0)
(0.00463546 0 0)
(0.00463381 0 0)
(0.00463829 0 0)
(0.00464241 0 0)
(0.00463934 0 0)
(0.00463776 0 0)
(0.00464728 0 0)
(0.00465129 0 0)
(0.00464818 0 0)
(0.00464445 0 0)
(0.00464239 0 0)
(0.00463961 0 0)
(0.00463817 0 0)
(0.00463447 0 0)
(0.00463278 0 0)
(0.00462918 0 0)
(0.0046281 0 0)
(0.00462909 0 0)
(0.00462603 0 0)
(0.00462463 0 0)
(0.00462522 0 0)
(0.00462826 0 0)
(0.00462709 0 0)
(0.00462885 0 0)
(0.00463335 0 0)
(0.00463613 0 0)
(0.0046368 0 0)
(0.00463442 0 0)
(0.0046351 0 0)
(0.00463793 0 0)
(0.00464013 0 0)
(0.00463827 0 0)
(0.00463306 0 0)
(0.0046347 0 0)
(0.00463978 0 0)
(0.00464216 0 0)
(0.0046446 0 0)
(0.00464606 0 0)
(0.00464234 0 0)
(0.0046423 0 0)
)
;

boundaryField
{
    inlet
    {
        type            fixedValue;
        value           uniform (0.005 0 0);
    }
    outlet
    {
        type            zeroGradient;
    }
    yzfaces
    {
        type            empty;
    }
}


// ************************************************************************* //
