/*--------------------------------*- C++ -*----------------------------------*\
| =========                 |                                                 |
| \\      /  F ield         | foam-extend: Open Source CFD                    |
|  \\    /   O peration     | Version:     5.0                                |
|   \\  /    A nd           | Web:         http://www.foam-extend.org         |
|    \\/     M anipulation  |                                                 |
\*---------------------------------------------------------------------------*/
FoamFile
{
    version     2.0;
    format      ascii;
    class       volVectorField;
    location    "2";
    object      U.water;
}
// * * * * * * * * * * * * * * * * * * * * * * * * * * * * * * * * * * * * * //

dimensions      [0 1 -1 0 0 0 0];

internalField   nonuniform List<vector> 
100
(
(8.28652e-05 0 0)
(0.000201511 0 0)
(0.000307434 0 0)
(0.000403412 0 0)
(0.000500403 0 0)
(0.000595789 0 0)
(0.000680106 0 0)
(0.000773748 0 0)
(0.000870487 0 0)
(0.000966941 0 0)
(0.00106862 0 0)
(0.00117573 0 0)
(0.00129685 0 0)
(0.00143394 0 0)
(0.00158779 0 0)
(0.00178685 0 0)
(0.00205519 0 0)
(0.00247255 0 0)
(0.00328146 0 0)
(0.00396829 0 0)
(0.00393696 0 0)
(0.00394958 0 0)
(0.00397043 0 0)
(0.00398393 0 0)
(0.00399247 0 0)
(0.00399992 0 0)
(0.00401025 0 0)
(0.00403178 0 0)
(0.00406001 0 0)
(0.00409629 0 0)
(0.0041497 0 0)
(0.00421826 0 0)
(0.00430353 0 0)
(0.00440233 0 0)
(0.00450714 0 0)
(0.00461406 0 0)
(0.00471194 0 0)
(0.00480142 0 0)
(0.00487948 0 0)
(0.00493491 0 0)
(0.00497363 0 0)
(0.00499643 0 0)
(0.00500693 0 0)
(0.0050103 0 0)
(0.0050091 0 0)
(0.00500989 0 0)
(0.00500956 0 0)
(0.00500688 0 0)
(0.00500574 0 0)
(0.00500373 0 0)
(0.00500303 0 0)
(0.00500226 0 0)
(0.00500387 0 0)
(0.00500639 0 0)
(0.00500342 0 0)
(0.00500256 0 0)
(0.00500268 0 0)
(0.00500357 0 0)
(0.00500409 0 0)
(0.00500301 0 0)
(0.00500282 0 0)
(0.00500167 0 0)
(0.00500583 0 0)
(0.00501031 0 0)
(0.0050071 0 0)
(0.0050076 0 0)
(0.00501613 0 0)
(0.00501925 0 0)
(0.00501502 0 0)
(0.00501281 0 0)
(0.00501062 0 0)
(0.00500956 0 0)
(0.00500758 0 0)
(0.00500386 0 0)
(0.00500245 0 0)
(0.00499725 0 0)
(0.00499615 0 0)
(0.00499695 0 0)
(0.00499382 0 0)
(0.0049921 0 0)
(0.00499245 0 0)
(0.00499499 0 0)
(0.00499404 0 0)
(0.00499605 0 0)
(0.00500141 0 0)
(0.00500445 0 0)
(0.00500572 0 0)
(0.00500343 0 0)
(0.0050039 0 0)
(0.00500697 0 0)
(0.00500999 0 0)
(0.00500723 0 0)
(0.00500202 0 0)
(0.0050038 0 0)
(0.00500778 0 0)
(0.00500936 0 0)
(0.00501134 0 0)
(0.00501173 0 0)
(0.00500812 0 0)
(0.00500769 0 0)
)
;

boundaryField
{
    inlet
    {
        type            fixedValue;
        value           uniform (0 0 0);
    }
    outlet
    {
        type            zeroGradient;
    }
    yzfaces
    {
        type            empty;
    }
}


// ************************************************************************* //
