/*--------------------------------*- C++ -*----------------------------------*\
| =========                 |                                                 |
| \\      /  F ield         | foam-extend: Open Source CFD                    |
|  \\    /   O peration     | Version:     5.0                                |
|   \\  /    A nd           | Web:         http://www.foam-extend.org         |
|    \\/     M anipulation  |                                                 |
\*---------------------------------------------------------------------------*/
FoamFile
{
    version     2.0;
    format      ascii;
    class       volScalarField;
    location    "10";
    object      alpha.gas;
}
// * * * * * * * * * * * * * * * * * * * * * * * * * * * * * * * * * * * * * //

dimensions      [0 0 0 0 0 0 0];

internalField   nonuniform List<scalar> 
100
(
0.171175
0.15959
0.150636
0.144144
0.138425
0.133324
0.129377
0.126415
0.125709
0.12142
0.118091
0.114837
0.11167
0.109067
0.106835
0.104812
0.103317
0.102299
0.101338
0.100104
0.0987034
0.0973624
0.0962985
0.0956933
0.0946214
0.0933188
0.0918233
0.0902734
0.0880564
0.0864122
0.085472
0.0847317
0.084138
0.0834915
0.0829846
0.0829557
0.0828076
0.0815417
0.0804607
0.0797053
0.079051
0.0781222
0.077094
0.0762866
0.0755977
0.0749852
0.0747615
0.0743448
0.0738161
0.0731168
0.0724767
0.0717873
0.0712431
0.0706932
0.0701471
0.0696963
0.0692619
0.0688133
0.0681395
0.0673773
0.0668119
0.0661388
0.0655712
0.0650772
0.0645992
0.0640341
0.0635135
0.0629413
0.0622704
0.0614804
0.0608127
0.0600508
0.0593089
0.0583966
0.0575374
0.0564731
0.0552111
0.0534468
0.051354
0.0480719
0.0429558
0.0333657
0.0129778
0.0295104
0.0293415
0.029455
0.0296409
0.0298105
0.0299189
0.0300155
0.0300663
0.0300966
0.0301493
0.0301818
0.030197
0.0302018
0.0302102
0.0302119
0.0302327
0.0302646
)
;

boundaryField
{
    inlet
    {
        type            fixedValue;
        value           uniform 0.2;
    }
    outlet
    {
        type            zeroGradient;
    }
    yzfaces
    {
        type            empty;
    }
}


// ************************************************************************* //
