/*--------------------------------*- C++ -*----------------------------------*\
| =========                 |                                                 |
| \\      /  F ield         | foam-extend: Open Source CFD                    |
|  \\    /   O peration     | Version:     5.0                                |
|   \\  /    A nd           | Web:         http://www.foam-extend.org         |
|    \\/     M anipulation  |                                                 |
\*---------------------------------------------------------------------------*/
FoamFile
{
    version     2.0;
    format      ascii;
    class       volScalarField;
    location    "10";
    object      Cl.water;
}
// * * * * * * * * * * * * * * * * * * * * * * * * * * * * * * * * * * * * * //

dimensions      [0 0 0 0 0 0 0];

internalField   nonuniform List<scalar> 
100
(
0.00328885
0.00459518
0.00565595
0.00636515
0.0069709
0.0075446
0.00801378
0.00844671
0.00849888
0.00901989
0.00937366
0.00974185
0.0100682
0.0103584
0.0106093
0.0108335
0.0110445
0.0111869
0.0113132
0.0114444
0.0115954
0.0117582
0.0118961
0.0119745
0.0120753
0.012183
0.0123324
0.0124772
0.0126758
0.0129264
0.0130769
0.0131794
0.0132617
0.0133481
0.0134337
0.0134223
0.0134324
0.01358
0.0136837
0.0137936
0.0138723
0.0139415
0.0140607
0.0141573
0.0142662
0.0143524
0.0143755
0.0144187
0.0144807
0.0145429
0.0146139
0.0146842
0.0147854
0.0148282
0.0148921
0.0149476
0.0149963
0.0150453
0.0150981
0.0151819
0.0152794
0.0153557
0.0154316
0.0154896
0.0155384
0.01558
0.0156357
0.0156982
0.0157688
0.0158542
0.0159576
0.0160436
0.0161327
0.0162528
0.0163402
0.0164747
0.0166166
0.0168266
0.0170598
0.0174298
0.017995
0.0190204
0.0210849
0.0195845
0.0196063
0.0195924
0.0195694
0.019543
0.019534
0.0195251
0.0195165
0.0195109
0.0195063
0.0194997
0.0194941
0.0194975
0.0194927
0.0194983
0.0194849
0.0194736
)
;

boundaryField
{
    inlet
    {
        type            fixedValue;
        value           uniform 0;
    }
    outlet
    {
        type            zeroGradient;
    }
    yzfaces
    {
        type            empty;
    }
}


// ************************************************************************* //
