/*--------------------------------*- C++ -*----------------------------------*\
| =========                 |                                                 |
| \\      /  F ield         | foam-extend: Open Source CFD                    |
|  \\    /   O peration     | Version:     5.0                                |
|   \\  /    A nd           | Web:         http://www.foam-extend.org         |
|    \\/     M anipulation  |                                                 |
\*---------------------------------------------------------------------------*/
FoamFile
{
    version     2.0;
    format      ascii;
    class       volScalarField;
    location    "10";
    object      CO2.water;
}
// * * * * * * * * * * * * * * * * * * * * * * * * * * * * * * * * * * * * * //

dimensions      [0 0 0 0 0 0 0];

internalField   nonuniform List<scalar> 
100
(
0.000752378
0.00105034
0.00129341
0.00145568
0.00159483
0.001726
0.001833
0.00193206
0.00194427
0.00206305
0.00214409
0.00222821
0.00230379
0.00236948
0.00242605
0.00247787
0.00252612
0.00255963
0.0025875
0.00261693
0.00265061
0.00268812
0.00271983
0.00273792
0.0027622
0.00278564
0.00281935
0.00285276
0.00289874
0.00295624
0.0029896
0.00301414
0.00303401
0.0030532
0.00307296
0.00307103
0.00307336
0.00310538
0.00312995
0.00315605
0.00317374
0.00318842
0.00321575
0.00323839
0.00326314
0.00328295
0.00328821
0.00329659
0.00331032
0.00332515
0.00334232
0.00335963
0.00338151
0.00339258
0.00340686
0.00342085
0.00342918
0.00344317
0.0034557
0.00347383
0.0034957
0.00351255
0.00352945
0.0035435
0.00355516
0.00356678
0.00357897
0.00359177
0.00360683
0.00362688
0.0036507
0.00367023
0.0036922
0.00371855
0.00373861
0.0037682
0.00380064
0.00384791
0.00390168
0.00398628
0.00411537
0.00434993
0.00482168
0.000704255
0.000235713
7.61743e-05
2.43418e-05
7.78523e-06
2.5002e-06
8.07056e-07
2.61611e-07
8.5116e-08
2.77635e-08
9.06901e-09
2.96684e-09
9.7204e-10
3.18764e-10
1.04643e-10
3.43903e-11
1.13045e-11
)
;

boundaryField
{
    inlet
    {
        type            fixedValue;
        value           uniform 0;
    }
    outlet
    {
        type            zeroGradient;
    }
    yzfaces
    {
        type            empty;
    }
}


// ************************************************************************* //
