/*--------------------------------*- C++ -*----------------------------------*\
| =========                 |                                                 |
| \\      /  F ield         | foam-extend: Open Source CFD                    |
|  \\    /   O peration     | Version:     5.0                                |
|   \\  /    A nd           | Web:         http://www.foam-extend.org         |
|    \\/     M anipulation  |                                                 |
\*---------------------------------------------------------------------------*/
FoamFile
{
    version     2.0;
    format      ascii;
    class       volScalarField;
    location    "10";
    object      CO2.gas;
}
// * * * * * * * * * * * * * * * * * * * * * * * * * * * * * * * * * * * * * //

dimensions      [0 0 0 0 0 0 0];

internalField   nonuniform List<scalar> 
100
(
0.170121
0.157865
0.150143
0.142862
0.136305
0.131235
0.12771
0.126148
0.125464
0.121183
0.117407
0.114129
0.110658
0.107986
0.105751
0.103718
0.102618
0.101836
0.101019
0.0996453
0.098129
0.096912
0.0959803
0.0955069
0.0942698
0.0926784
0.0910412
0.0892261
0.0866898
0.0855194
0.0848504
0.0842298
0.083747
0.0831791
0.082823
0.0827942
0.0826463
0.0812528
0.0800811
0.0794702
0.0788324
0.0776795
0.076682
0.0758941
0.0753667
0.0748391
0.0746159
0.0741417
0.0736001
0.0728458
0.0721778
0.0714694
0.0711043
0.0704713
0.0699429
0.0695285
0.0690604
0.0686386
0.067849
0.0670538
0.0666212
0.0659516
0.0654297
0.0649505
0.0644538
0.0638185
0.0632707
0.0626799
0.0619864
0.0611614
0.0606011
0.059845
0.0591473
0.0582828
0.0573789
0.0563412
0.0550672
0.0533427
0.051254
0.0479783
0.0428721
0.0333007
0.0129526
0.0294475
0.0292758
0.0293811
0.0295597
0.0297311
0.0298226
0.0299029
0.0299381
0.0299485
0.0299715
0.029969
0.0299463
0.0298895
0.0298379
0.0297574
0.0297029
0.029633
)
;

boundaryField
{
    inlet
    {
        type            fixedValue;
        value           uniform 0.2;
    }
    outlet
    {
        type            zeroGradient;
    }
    yzfaces
    {
        type            empty;
    }
}


// ************************************************************************* //
