/*--------------------------------*- C++ -*----------------------------------*\
| =========                 |                                                 |
| \\      /  F ield         | foam-extend: Open Source CFD                    |
|  \\    /   O peration     | Version:     5.0                                |
|   \\  /    A nd           | Web:         http://www.foam-extend.org         |
|    \\/     M anipulation  |                                                 |
\*---------------------------------------------------------------------------*/
FoamFile
{
    version     2.0;
    format      ascii;
    class       volScalarField;
    location    "10";
    object      H2O.gas;
}
// * * * * * * * * * * * * * * * * * * * * * * * * * * * * * * * * * * * * * //

dimensions      [0 0 0 0 0 0 0];

internalField   nonuniform List<scalar> 
100
(
4.36574e-08
8.34285e-05
0.000131796
0.000148495
0.000152783
0.000156131
0.000159617
0.00022543
0.000244814
0.000236461
0.000221766
0.000207514
0.000192776
0.000179577
0.000167349
0.000155727
0.000154876
0.000160167
0.000175265
0.000179158
0.000177851
0.00017501
0.000178345
0.00018636
0.000173555
0.000161978
0.000152968
0.000145398
0.000138177
0.000134267
0.000131945
0.000130378
0.000129954
0.000133557
0.00016161
0.000161554
0.000161265
0.000157046
0.000154734
0.00015359
0.00015238
0.000150168
0.000148398
0.000147104
0.000146179
0.000146031
0.000145596
0.00014446
0.000143365
0.000141818
0.000140726
0.000139433
0.000138744
0.000137399
0.000136426
0.000135551
0.000134659
0.000133882
0.000132403
0.000130919
0.000130052
0.000128712
0.000127624
0.000126736
0.000125738
0.000124775
0.00012368
0.00012249
0.000121054
0.000119607
0.000118406
0.000117022
0.000115716
0.000113726
0.000112038
0.000110047
0.00010751
0.000104086
0.00010001
9.36186e-05
8.36551e-05
6.49787e-05
2.5274e-05
6.05e-05
6.31187e-05
6.76078e-05
7.38183e-05
8.21814e-05
9.29996e-05
0.000107031
0.000125004
0.000147814
0.000176494
0.000211983
0.00025551
0.000308292
0.000372075
0.000447961
0.000538562
0.000645368
)
;

boundaryField
{
    inlet
    {
        type            fixedValue;
        value           uniform 0;
    }
    outlet
    {
        type            zeroGradient;
    }
    yzfaces
    {
        type            empty;
    }
}


// ************************************************************************* //
