/*--------------------------------*- C++ -*----------------------------------*\
| =========                 |                                                 |
| \\      /  F ield         | foam-extend: Open Source CFD                    |
|  \\    /   O peration     | Version:     5.0                                |
|   \\  /    A nd           | Web:         http://www.foam-extend.org         |
|    \\/     M anipulation  |                                                 |
\*---------------------------------------------------------------------------*/
FoamFile
{
    version     2.0;
    format      ascii;
    class       volScalarField;
    location    "10";
    object      H2O.water;
}
// * * * * * * * * * * * * * * * * * * * * * * * * * * * * * * * * * * * * * //

dimensions      [0 0 0 0 0 0 0];

internalField   nonuniform List<scalar> 
100
(
0.0213161
0.029759
0.0366432
0.0412329
0.0451648
0.048897
0.0519391
0.054734
0.0550807
0.0584456
0.0607022
0.0630856
0.0652462
0.0671043
0.0687258
0.0701905
0.0715579
0.0724777
0.0733071
0.0741215
0.0750639
0.0761539
0.0770497
0.0775646
0.0782652
0.0789806
0.0799535
0.0808274
0.0821316
0.0837773
0.0847322
0.0853917
0.0859447
0.0865077
0.0870563
0.0870015
0.0870677
0.0879996
0.0887018
0.0894191
0.0899235
0.0903522
0.0911492
0.0917569
0.0924597
0.0930051
0.0931542
0.0934221
0.0937892
0.094247
0.0946736
0.0951627
0.0957973
0.0961026
0.0965301
0.0969187
0.097187
0.0975583
0.097885
0.098396
0.0990089
0.0995123
0.100003
0.100387
0.100725
0.101033
0.101369
0.101758
0.102219
0.102726
0.103393
0.103967
0.104606
0.105346
0.105918
0.106754
0.107658
0.10901
0.110534
0.11293
0.116587
0.123232
0.136597
0.130613
0.131233
0.1313
0.131209
0.131102
0.131016
0.130954
0.1309
0.130879
0.130848
0.130817
0.130803
0.130801
0.130806
0.130795
0.130776
0.130759
)
;

boundaryField
{
    inlet
    {
        type            fixedValue;
        value           uniform 0;
    }
    outlet
    {
        type            zeroGradient;
    }
    yzfaces
    {
        type            empty;
    }
}


// ************************************************************************* //
