/*--------------------------------*- C++ -*----------------------------------*\
| =========                 |                                                 |
| \\      /  F ield         | foam-extend: Open Source CFD                    |
|  \\    /   O peration     | Version:     5.0                                |
|   \\  /    A nd           | Web:         http://www.foam-extend.org         |
|    \\/     M anipulation  |                                                 |
\*---------------------------------------------------------------------------*/
FoamFile
{
    version     2.0;
    format      ascii;
    class       volScalarField;
    location    "10";
    object      Na.water;
}
// * * * * * * * * * * * * * * * * * * * * * * * * * * * * * * * * * * * * * //

dimensions      [0 0 0 0 0 0 0];

internalField   nonuniform List<scalar> 
100
(
0.00329043
0.00459025
0.00565364
0.00636354
0.00696931
0.00754229
0.00801391
0.00844745
0.00850259
0.00902022
0.00936945
0.00973652
0.010064
0.0103493
0.0106049
0.0108334
0.0110449
0.0111881
0.0113142
0.0114347
0.0115798
0.0117471
0.0118853
0.011967
0.0120776
0.012185
0.0123302
0.012473
0.0126759
0.0129307
0.0130731
0.0131776
0.0132621
0.0133498
0.0134375
0.013432
0.0134423
0.0135819
0.0136898
0.0138029
0.0138781
0.0139391
0.0140602
0.0141627
0.0142736
0.014355
0.0143779
0.0144187
0.0144796
0.0145442
0.0146151
0.0146875
0.0147839
0.0148289
0.0148985
0.0149563
0.0149994
0.015062
0.0151158
0.0151919
0.0152833
0.0153624
0.0154362
0.0154962
0.0155414
0.0155936
0.0156467
0.0157082
0.0157741
0.0158633
0.0159733
0.0160615
0.0161518
0.0162637
0.0163512
0.0164746
0.0166187
0.0168211
0.017058
0.0174278
0.0179915
0.0190171
0.0210778
0.0195735
0.0195926
0.0195854
0.0195671
0.0195407
0.0195329
0.0195236
0.0195158
0.0195106
0.0195053
0.0195032
0.0194973
0.0195053
0.0195038
0.0195059
0.0194928
0.0194906
)
;

boundaryField
{
    inlet
    {
        type            fixedValue;
        value           uniform 0;
    }
    outlet
    {
        type            zeroGradient;
    }
    yzfaces
    {
        type            empty;
    }
}


// ************************************************************************* //
