/*--------------------------------*- C++ -*----------------------------------*\
| =========                 |                                                 |
| \\      /  F ield         | foam-extend: Open Source CFD                    |
|  \\    /   O peration     | Version:     5.0                                |
|   \\  /    A nd           | Web:         http://www.foam-extend.org         |
|    \\/     M anipulation  |                                                 |
\*---------------------------------------------------------------------------*/
FoamFile
{
    version     2.0;
    format      ascii;
    class       volScalarField;
    location    "10";
    object      Ns;
}
// * * * * * * * * * * * * * * * * * * * * * * * * * * * * * * * * * * * * * //

dimensions      [0 -3 0 0 1 0 0];

internalField   nonuniform List<scalar> 
100
(
0.260716
1.87562
0.278442
0.154055
2.17047
1.68219
0.722852
0.339794
9.79501
1.17034
1.40942
0.398535
1.36421
0.276006
0.234983
0.225254
1.06058
0.173415
1.28684
0.442416
0.961287
0.32451
0.983217
2.31993
1.22207
0.0771632
1.00305
0.403425
0.0493225
0.0985293
0.524786
0.56154
3.5793
1.13182
0.552634
4.34283
6.52979
0.0626415
0.829043
0.0282702
0.208388
0.255264
0.0677303
0.588563
0.22193
0.714068
1.57627
0.275229
0.495834
0.0249084
0.259695
0.424771
0.329141
1.77495
0.134714
0.281429
0.381054
0.226668
0.160611
0.117908
0.485458
1.03082
0.267067
0.257333
0.0227352
0.105295
0.384329
0.100313
0.360991
0.265641
0.133139
0.0378635
0.659068
0.839047
0.177368
1.00332
0.154693
1.75072
3.43566
5.69194
13.1235
37.497
127.171
176.02
179.45
172.98
170.904
172.169
172.611
174.639
169.591
167.519
172.836
172.222
170.912
172.632
173.476
170.988
171.213
171.96
)
;

boundaryField
{
    inlet
    {
        type            fixedValue;
        value           uniform 0;
    }
    outlet
    {
        type            zeroGradient;
    }
    yzfaces
    {
        type            empty;
    }
}


// ************************************************************************* //
