/*--------------------------------*- C++ -*----------------------------------*\
| =========                 |                                                 |
| \\      /  F ield         | foam-extend: Open Source CFD                    |
|  \\    /   O peration     | Version:     5.0                                |
|   \\  /    A nd           | Web:         http://www.foam-extend.org         |
|    \\/     M anipulation  |                                                 |
\*---------------------------------------------------------------------------*/
FoamFile
{
    version     2.0;
    format      ascii;
    class       surfaceScalarField;
    location    "10";
    object      phi;
}
// * * * * * * * * * * * * * * * * * * * * * * * * * * * * * * * * * * * * * //

dimensions      [0 3 -1 0 0 0 0];

internalField   nonuniform List<scalar> 
99
(
1.23334e-06
1.22663e-06
1.22194e-06
1.22458e-06
1.23766e-06
1.22102e-06
1.22115e-06
1.22785e-06
1.2155e-06
1.20742e-06
1.20797e-06
1.1874e-06
1.18236e-06
1.17384e-06
1.1705e-06
1.17396e-06
1.17115e-06
1.17229e-06
1.17596e-06
1.18016e-06
1.18018e-06
1.17314e-06
1.17887e-06
1.17486e-06
1.17588e-06
1.17945e-06
1.17001e-06
1.16609e-06
1.17334e-06
1.17516e-06
1.18378e-06
1.18891e-06
1.18622e-06
1.18987e-06
1.18775e-06
1.18058e-06
1.17584e-06
1.17496e-06
1.17405e-06
1.16998e-06
1.16829e-06
1.16898e-06
1.16155e-06
1.15853e-06
1.15864e-06
1.15847e-06
1.15486e-06
1.15516e-06
1.15161e-06
1.15231e-06
1.15366e-06
1.15237e-06
1.15456e-06
1.15216e-06
1.15184e-06
1.15031e-06
1.15046e-06
1.15327e-06
1.15429e-06
1.15484e-06
1.15436e-06
1.15597e-06
1.15728e-06
1.1595e-06
1.15627e-06
1.15953e-06
1.15929e-06
1.1538e-06
1.15299e-06
1.15527e-06
1.15631e-06
1.15913e-06
1.16027e-06
1.15842e-06
1.15993e-06
1.15847e-06
1.15581e-06
1.15276e-06
1.14619e-06
1.14312e-06
1.13863e-06
1.13331e-06
1.13912e-06
1.13831e-06
1.13838e-06
1.13822e-06
1.13988e-06
1.13878e-06
1.13878e-06
1.14007e-06
1.14094e-06
1.14162e-06
1.14163e-06
1.14298e-06
1.14154e-06
1.1416e-06
1.14206e-06
1.14273e-06
1.14216e-06
)
;

boundaryField
{
    inlet
    {
        type            calculated;
        value           uniform -1.225e-06;
    }
    outlet
    {
        type            calculated;
        value           uniform 1.13926e-06;
    }
    yzfaces
    {
        type            empty;
    }
}


// ************************************************************************* //
