/*--------------------------------*- C++ -*----------------------------------*\
| =========                 |                                                 |
| \\      /  F ield         | foam-extend: Open Source CFD                    |
|  \\    /   O peration     | Version:     5.0                                |
|   \\  /    A nd           | Web:         http://www.foam-extend.org         |
|    \\/     M anipulation  |                                                 |
\*---------------------------------------------------------------------------*/
FoamFile
{
    version     2.0;
    format      ascii;
    class       volVectorField;
    location    "10";
    object      U.gas;
}
// * * * * * * * * * * * * * * * * * * * * * * * * * * * * * * * * * * * * * //

dimensions      [0 1 -1 0 0 0 0];

internalField   nonuniform List<vector> 
100
(
(0.00585716 0 0)
(0.00627517 0 0)
(0.00660256 0 0)
(0.00687744 0 0)
(0.00718916 0 0)
(0.0074326 0 0)
(0.00758661 0 0)
(0.00776664 0 0)
(0.00779747 0 0)
(0.00796885 0 0)
(0.00814029 0 0)
(0.00827186 0 0)
(0.00838171 0 0)
(0.00849873 0 0)
(0.00860107 0 0)
(0.00873671 0 0)
(0.00883765 0 0)
(0.00889812 0 0)
(0.00898372 0 0)
(0.00910448 0 0)
(0.00922363 0 0)
(0.00929389 0 0)
(0.00936529 0 0)
(0.00940902 0 0)
(0.00948621 0 0)
(0.00960638 0 0)
(0.00970082 0 0)
(0.00976721 0 0)
(0.0099679 0 0)
(0.0101313 0 0)
(0.01024 0 0)
(0.0103568 0 0)
(0.0104131 0 0)
(0.0104722 0 0)
(0.0105143 0 0)
(0.0104734 0 0)
(0.0104235 0 0)
(0.0105384 0 0)
(0.0106145 0 0)
(0.0106476 0 0)
(0.0106731 0 0)
(0.010753 0 0)
(0.0108106 0 0)
(0.0108232 0 0)
(0.0108633 0 0)
(0.0109092 0 0)
(0.0108991 0 0)
(0.0109256 0 0)
(0.0109565 0 0)
(0.0110059 0 0)
(0.0110669 0 0)
(0.0111251 0 0)
(0.0111612 0 0)
(0.0112145 0 0)
(0.0112432 0 0)
(0.0112666 0 0)
(0.011294 0 0)
(0.0113452 0 0)
(0.0114267 0 0)
(0.0114982 0 0)
(0.0115349 0 0)
(0.0115991 0 0)
(0.0116528 0 0)
(0.0116993 0 0)
(0.0117379 0 0)
(0.0117823 0 0)
(0.0118332 0 0)
(0.0118486 0 0)
(0.0118706 0 0)
(0.0119415 0 0)
(0.0119989 0 0)
(0.0120783 0 0)
(0.0121474 0 0)
(0.0122105 0 0)
(0.0122646 0 0)
(0.012342 0 0)
(0.0124098 0 0)
(0.0125159 0 0)
(0.0126042 0 0)
(0.0127586 0 0)
(0.0130576 0 0)
(0.0135591 0 0)
(0.0120014 0 0)
(0.011194 0 0)
(0.0108821 0 0)
(0.0108256 0 0)
(0.0108523 0 0)
(0.0108942 0 0)
(0.0109244 0 0)
(0.0109509 0 0)
(0.0109847 0 0)
(0.0110037 0 0)
(0.0110097 0 0)
(0.01103 0 0)
(0.0110389 0 0)
(0.0110352 0 0)
(0.0110367 0 0)
(0.0110453 0 0)
(0.0110445 0 0)
(0.0110256 0 0)
)
;

boundaryField
{
    inlet
    {
        type            fixedValue;
        value           uniform (0.005 0 0);
    }
    outlet
    {
        type            zeroGradient;
    }
    yzfaces
    {
        type            empty;
    }
}


// ************************************************************************* //
