/*--------------------------------*- C++ -*----------------------------------*\
| =========                 |                                                 |
| \\      /  F ield         | foam-extend: Open Source CFD                    |
|  \\    /   O peration     | Version:     5.0                                |
|   \\  /    A nd           | Web:         http://www.foam-extend.org         |
|    \\/     M anipulation  |                                                 |
\*---------------------------------------------------------------------------*/
FoamFile
{
    version     2.0;
    format      ascii;
    class       volVectorField;
    location    "10";
    object      U.water;
}
// * * * * * * * * * * * * * * * * * * * * * * * * * * * * * * * * * * * * * //

dimensions      [0 1 -1 0 0 0 0];

internalField   nonuniform List<vector> 
100
(
(2.79702e-05 0 0)
(6.48281e-05 0 0)
(9.80419e-05 0 0)
(0.000129666 0 0)
(0.000159759 0 0)
(0.000189019 0 0)
(0.000216225 0 0)
(0.00024146 0 0)
(0.000258177 0 0)
(0.000270596 0 0)
(0.000300132 0 0)
(0.000326321 0 0)
(0.000353991 0 0)
(0.000382488 0 0)
(0.000407668 0 0)
(0.000432935 0 0)
(0.000456223 0 0)
(0.00047328 0 0)
(0.000487299 0 0)
(0.000503422 0 0)
(0.0005232 0 0)
(0.00054232 0 0)
(0.000560654 0 0)
(0.000575343 0 0)
(0.000587261 0 0)
(0.000608375 0 0)
(0.000630471 0 0)
(0.000654277 0 0)
(0.000689041 0 0)
(0.000731566 0 0)
(0.000764854 0 0)
(0.000788618 0 0)
(0.000805325 0 0)
(0.00081963 0 0)
(0.000833161 0 0)
(0.000837983 0 0)
(0.000835631 0 0)
(0.000845804 0 0)
(0.000876092 0 0)
(0.000898436 0 0)
(0.000915058 0 0)
(0.000934883 0 0)
(0.000958487 0 0)
(0.000980577 0 0)
(0.00100113 0 0)
(0.0010204 0 0)
(0.00103203 0 0)
(0.00103936 0 0)
(0.00105219 0 0)
(0.00106916 0 0)
(0.00109097 0 0)
(0.00111216 0 0)
(0.00113285 0 0)
(0.00115021 0 0)
(0.00116846 0 0)
(0.00118501 0 0)
(0.00119969 0 0)
(0.00121657 0 0)
(0.00123807 0 0)
(0.00126513 0 0)
(0.00129038 0 0)
(0.00131363 0 0)
(0.0013397 0 0)
(0.0013623 0 0)
(0.00138075 0 0)
(0.00140295 0 0)
(0.00142789 0 0)
(0.00144723 0 0)
(0.00146923 0 0)
(0.00150146 0 0)
(0.00153618 0 0)
(0.00157032 0 0)
(0.00160808 0 0)
(0.00164564 0 0)
(0.0016888 0 0)
(0.00173693 0 0)
(0.0017919 0 0)
(0.00186482 0 0)
(0.00196409 0 0)
(0.00210476 0 0)
(0.00234211 0 0)
(0.00279673 0 0)
(0.00330466 0 0)
(0.00351471 0 0)
(0.00357418 0 0)
(0.00357886 0 0)
(0.00356989 0 0)
(0.00355664 0 0)
(0.00354399 0 0)
(0.00353823 0 0)
(0.00353522 0 0)
(0.00353426 0 0)
(0.00353253 0 0)
(0.00353078 0 0)
(0.00352831 0 0)
(0.00352544 0 0)
(0.00352603 0 0)
(0.00352715 0 0)
(0.00352662 0 0)
(0.00352023 0 0)
)
;

boundaryField
{
    inlet
    {
        type            fixedValue;
        value           uniform (0 0 0);
    }
    outlet
    {
        type            zeroGradient;
    }
    yzfaces
    {
        type            empty;
    }
}


// ************************************************************************* //
