/*--------------------------------*- C++ -*----------------------------------*\
| =========                 |                                                 |
| \\      /  F ield         | foam-extend: Open Source CFD                    |
|  \\    /   O peration     | Version:     5.0                                |
|   \\  /    A nd           | Web:         http://www.foam-extend.org         |
|    \\/     M anipulation  |                                                 |
\*---------------------------------------------------------------------------*/
FoamFile
{
    version     2.0;
    format      ascii;
    class       volScalarField;
    location    "10";
    object      alpha.gas;
}
// * * * * * * * * * * * * * * * * * * * * * * * * * * * * * * * * * * * * * //

dimensions      [0 0 0 0 0 0 0];

internalField   nonuniform List<scalar> 
100
(
0.169651
0.15748
0.149815
0.141762
0.136983
0.135157
0.13468
0.133834
0.130608
0.126926
0.121901
0.117283
0.114309
0.112328
0.11072
0.108411
0.105925
0.104027
0.10201
0.0997832
0.0979376
0.096916
0.0959792
0.0944617
0.0929027
0.091529
0.0900879
0.0884954
0.0875825
0.086966
0.087024
0.086625
0.0865682
0.086299
0.085555
0.0848361
0.0839744
0.0832299
0.082344
0.0811751
0.0803063
0.0794805
0.0786291
0.0777237
0.076955
0.0761848
0.0756698
0.0751462
0.0747696
0.0742216
0.0736205
0.0730892
0.0725656
0.0718885
0.071377
0.0710009
0.070688
0.070322
0.0699548
0.0694002
0.0689232
0.0684771
0.067976
0.0674779
0.067008
0.0665894
0.0660643
0.065758
0.065394
0.0649525
0.064594
0.0641564
0.0637504
0.0633531
0.06296
0.0625919
0.0622008
0.0618601
0.0615088
0.0611539
0.0608194
0.060505
0.0600781
0.0597141
0.0593085
0.0589131
0.0586173
0.0582535
0.0579578
0.0576769
0.0573091
0.0570414
0.0567172
0.0564435
0.0561611
0.055881
0.0556538
0.0553729
0.0551001
0.0548699
)
;

boundaryField
{
    inlet
    {
        type            fixedValue;
        value           uniform 0.2;
    }
    outlet
    {
        type            zeroGradient;
    }
    yzfaces
    {
        type            empty;
    }
}


// ************************************************************************* //
