/*--------------------------------*- C++ -*----------------------------------*\
| =========                 |                                                 |
| \\      /  F ield         | foam-extend: Open Source CFD                    |
|  \\    /   O peration     | Version:     5.0                                |
|   \\  /    A nd           | Web:         http://www.foam-extend.org         |
|    \\/     M anipulation  |                                                 |
\*---------------------------------------------------------------------------*/
FoamFile
{
    version     2.0;
    format      ascii;
    class       volScalarField;
    location    "10";
    object      CO2.gas;
}
// * * * * * * * * * * * * * * * * * * * * * * * * * * * * * * * * * * * * * //

dimensions      [0 0 0 0 0 0 0];

internalField   nonuniform List<scalar> 
100
(
0.16943
0.156878
0.149875
0.141469
0.136408
0.134769
0.134719
0.133735
0.130589
0.127203
0.122293
0.11763
0.114489
0.112107
0.110117
0.108047
0.105389
0.103526
0.101735
0.0995756
0.0975411
0.0964066
0.0954909
0.0937626
0.0922476
0.090892
0.089649
0.0882171
0.0872372
0.0866777
0.0865483
0.0862465
0.0862869
0.086047
0.0852928
0.084525
0.0835198
0.0826243
0.0816137
0.0805666
0.0796135
0.0788492
0.0782649
0.0775117
0.0768504
0.0761871
0.075605
0.0751346
0.0746427
0.0742805
0.0736203
0.0729892
0.0723642
0.0718503
0.0712372
0.0708132
0.0704218
0.0700059
0.069708
0.0692586
0.0688496
0.0683993
0.0678671
0.0673983
0.0669685
0.0664442
0.0660082
0.0656516
0.0652683
0.0649246
0.0645851
0.0641763
0.063691
0.0632904
0.0629338
0.0625509
0.0620485
0.0615622
0.0612416
0.0609265
0.0605309
0.0602877
0.0599672
0.0595937
0.0591654
0.0588907
0.0584754
0.0581572
0.0578538
0.0574629
0.0571489
0.0568674
0.0566015
0.0563104
0.0560181
0.0557792
0.0555267
0.0553142
0.05504
0.0548006
)
;

boundaryField
{
    inlet
    {
        type            fixedValue;
        value           uniform 0.2;
    }
    outlet
    {
        type            zeroGradient;
    }
    yzfaces
    {
        type            empty;
    }
}


// ************************************************************************* //
