/*--------------------------------*- C++ -*----------------------------------*\
| =========                 |                                                 |
| \\      /  F ield         | foam-extend: Open Source CFD                    |
|  \\    /   O peration     | Version:     5.0                                |
|   \\  /    A nd           | Web:         http://www.foam-extend.org         |
|    \\/     M anipulation  |                                                 |
\*---------------------------------------------------------------------------*/
FoamFile
{
    version     2.0;
    format      ascii;
    class       volScalarField;
    location    "10";
    object      CO2.water;
}
// * * * * * * * * * * * * * * * * * * * * * * * * * * * * * * * * * * * * * //

dimensions      [0 0 0 0 0 0 0];

internalField   nonuniform List<scalar> 
100
(
0.000797104
0.00111677
0.00131809
0.00152959
0.00165511
0.00170308
0.00171559
0.00173782
0.00182256
0.00191925
0.00205124
0.00217253
0.00225063
0.00230265
0.00234491
0.00240554
0.00247083
0.00252069
0.00257366
0.00263215
0.00268062
0.00270745
0.00273206
0.00277192
0.00281286
0.00284894
0.00288679
0.00292862
0.00295259
0.00296878
0.00296726
0.00297774
0.00297923
0.0029863
0.00300585
0.00302473
0.00304736
0.00306691
0.00309018
0.00312088
0.0031437
0.00316539
0.00318775
0.00321153
0.00323172
0.00325195
0.00326548
0.00327923
0.00328912
0.00330351
0.0033193
0.00333325
0.00334701
0.00336479
0.00337822
0.0033881
0.00339632
0.00340593
0.00341558
0.00343014
0.00344267
0.00345439
0.00346755
0.00348063
0.00349297
0.00350397
0.00351776
0.0035258
0.00353536
0.00354696
0.00355638
0.00356787
0.00357853
0.00358897
0.00359929
0.00360896
0.00361923
0.00362818
0.00363741
0.00364673
0.00365551
0.00366377
0.00367498
0.00368454
0.0036952
0.00370558
0.00371335
0.00372291
0.00373067
0.00373805
0.00374771
0.00375474
0.00376326
0.00377044
0.00377786
0.00378522
0.00379119
0.00379857
0.00380573
0.00381178
)
;

boundaryField
{
    inlet
    {
        type            fixedValue;
        value           uniform 0;
    }
    outlet
    {
        type            zeroGradient;
    }
    yzfaces
    {
        type            empty;
    }
}


// ************************************************************************* //
