/*--------------------------------*- C++ -*----------------------------------*\
| =========                 |                                                 |
| \\      /  F ield         | foam-extend: Open Source CFD                    |
|  \\    /   O peration     | Version:     5.0                                |
|   \\  /    A nd           | Web:         http://www.foam-extend.org         |
|    \\/     M anipulation  |                                                 |
\*---------------------------------------------------------------------------*/
FoamFile
{
    version     2.0;
    format      ascii;
    class       volScalarField;
    location    "10";
    object      CO2.gas;
}
// * * * * * * * * * * * * * * * * * * * * * * * * * * * * * * * * * * * * * //

dimensions      [0 0 0 0 0 0 0];

internalField   nonuniform List<scalar> 
100
(
0.169321
0.157173
0.149523
0.141486
0.136716
0.134894
0.134418
0.133573
0.130353
0.126679
0.121663
0.117054
0.114086
0.11211
0.110504
0.1082
0.105719
0.103824
0.101811
0.0995889
0.0977469
0.0967273
0.0957922
0.0942777
0.0927217
0.0913507
0.0899125
0.0883231
0.0874119
0.0867967
0.0868545
0.0864563
0.0863996
0.086131
0.0853884
0.0846709
0.0838109
0.0830678
0.0821836
0.0810171
0.0801499
0.0793257
0.078476
0.0775723
0.0768052
0.0760364
0.0755224
0.0749998
0.074624
0.074077
0.0734771
0.0729469
0.0724242
0.0717485
0.071238
0.0708626
0.0705504
0.0701851
0.0698186
0.0692651
0.068789
0.0683437
0.0678436
0.0673465
0.0668775
0.0664598
0.0659356
0.06563
0.0652667
0.064826
0.0644682
0.0640315
0.0636263
0.0632297
0.0628374
0.06247
0.0620797
0.0617396
0.061389
0.0610348
0.060701
0.0603872
0.0599611
0.0595978
0.059193
0.0587983
0.0585032
0.05814
0.057845
0.0575646
0.0571975
0.0569303
0.0566067
0.0563336
0.0560518
0.0557722
0.0555454
0.055265
0.0549928
0.054763
)
;

boundaryField
{
    inlet
    {
        type            fixedValue;
        value           uniform 0.2;
    }
    outlet
    {
        type            zeroGradient;
    }
    yzfaces
    {
        type            empty;
    }
}


// ************************************************************************* //
