/*--------------------------------*- C++ -*----------------------------------*\
| =========                 |                                                 |
| \\      /  F ield         | foam-extend: Open Source CFD                    |
|  \\    /   O peration     | Version:     5.0                                |
|   \\  /    A nd           | Web:         http://www.foam-extend.org         |
|    \\/     M anipulation  |                                                 |
\*---------------------------------------------------------------------------*/
FoamFile
{
    version     2.0;
    format      ascii;
    class       volScalarField;
    location    "10";
    object      H2O.water;
}
// * * * * * * * * * * * * * * * * * * * * * * * * * * * * * * * * * * * * * //

dimensions      [0 0 0 0 0 0 0];

internalField   nonuniform List<scalar> 
100
(
0.0225818
0.0316379
0.0373413
0.0433329
0.0468889
0.0482477
0.0486023
0.0492319
0.0516327
0.0543719
0.0581112
0.0615472
0.0637598
0.0652336
0.0664307
0.0681484
0.069998
0.0714107
0.0729111
0.0745681
0.0759413
0.0767015
0.0773986
0.0785277
0.0796877
0.0807098
0.0817821
0.082967
0.0836463
0.0841049
0.0840618
0.0843587
0.084401
0.0846012
0.0851549
0.0856897
0.0863309
0.0868849
0.0875441
0.0884138
0.0890602
0.0896747
0.0903082
0.0909819
0.0915538
0.0921269
0.0925101
0.0928997
0.0931799
0.0935877
0.0940349
0.0944302
0.0948199
0.0953236
0.0957042
0.0959841
0.0962169
0.0964892
0.0967624
0.0971751
0.09753
0.097862
0.0982348
0.0986054
0.0989551
0.0992665
0.0996573
0.0998851
0.100156
0.100484
0.100751
0.101077
0.101379
0.101675
0.101967
0.102241
0.102532
0.102785
0.103047
0.103311
0.10356
0.103794
0.104111
0.104382
0.104684
0.104978
0.105198
0.105469
0.105689
0.105898
0.106172
0.106371
0.106612
0.106816
0.107026
0.107234
0.107403
0.107612
0.107815
0.107987
)
;

boundaryField
{
    inlet
    {
        type            fixedValue;
        value           uniform 0;
    }
    outlet
    {
        type            zeroGradient;
    }
    yzfaces
    {
        type            empty;
    }
}


// ************************************************************************* //
