/*--------------------------------*- C++ -*----------------------------------*\
| =========                 |                                                 |
| \\      /  F ield         | foam-extend: Open Source CFD                    |
|  \\    /   O peration     | Version:     5.0                                |
|   \\  /    A nd           | Web:         http://www.foam-extend.org         |
|    \\/     M anipulation  |                                                 |
\*---------------------------------------------------------------------------*/
FoamFile
{
    version     2.0;
    format      ascii;
    class       volScalarField;
    location    "10";
    object      H2O.gas;
}
// * * * * * * * * * * * * * * * * * * * * * * * * * * * * * * * * * * * * * //

dimensions      [0 0 0 0 0 0 0];

internalField   nonuniform List<scalar> 
100
(
0.00033039
0.000306687
0.00029176
0.000276078
0.00026677
0.000263214
0.000262286
0.000260638
0.000254354
0.000247185
0.000237398
0.000228405
0.000222614
0.000218756
0.000215623
0.000211127
0.000206286
0.000202589
0.000198662
0.000194325
0.000190731
0.000188741
0.000186917
0.000183961
0.000180925
0.00017825
0.000175444
0.000172342
0.000170564
0.000169364
0.000169477
0.0001687
0.000168589
0.000168065
0.000166616
0.000165216
0.000163538
0.000162088
0.000160362
0.000158086
0.000156394
0.000154786
0.000153128
0.000151365
0.000149868
0.000148368
0.000147365
0.000146345
0.000145612
0.000144544
0.000143374
0.000142339
0.000141319
0.000140001
0.000139005
0.000138272
0.000137663
0.00013695
0.000136235
0.000135155
0.000134226
0.000133357
0.000132381
0.000131411
0.000130496
0.000129681
0.000128658
0.000128062
0.000127353
0.000126493
0.000125795
0.000124943
0.000124152
0.000123378
0.000122613
0.000121896
0.000121134
0.000120471
0.000119787
0.000119095
0.000118444
0.000117832
0.000117
0.000116291
0.000115502
0.000114731
0.000114156
0.000113447
0.000112871
0.000112324
0.000111608
0.000111086
0.000110455
0.000109922
0.000109372
0.000108827
0.000108384
0.000107837
0.000107306
0.000106857
)
;

boundaryField
{
    inlet
    {
        type            fixedValue;
        value           uniform 0;
    }
    outlet
    {
        type            zeroGradient;
    }
    yzfaces
    {
        type            empty;
    }
}


// ************************************************************************* //
