/*--------------------------------*- C++ -*----------------------------------*\
| =========                 |                                                 |
| \\      /  F ield         | foam-extend: Open Source CFD                    |
|  \\    /   O peration     | Version:     5.0                                |
|   \\  /    A nd           | Web:         http://www.foam-extend.org         |
|    \\/     M anipulation  |                                                 |
\*---------------------------------------------------------------------------*/
FoamFile
{
    version     2.0;
    format      ascii;
    class       volScalarField;
    location    "10";
    object      Na.water;
}
// * * * * * * * * * * * * * * * * * * * * * * * * * * * * * * * * * * * * * //

dimensions      [0 0 0 0 0 0 0];

internalField   nonuniform List<scalar> 
100
(
0.00348538
0.00488329
0.00576449
0.00668781
0.00723573
0.0074434
0.00750071
0.00759754
0.00796806
0.00839048
0.00896801
0.00949961
0.00984292
0.0100685
0.0102548
0.0105163
0.0108001
0.0110191
0.0112523
0.0115048
0.0117173
0.0118325
0.0119409
0.0121153
0.0122955
0.0124545
0.0126214
0.0128076
0.012912
0.0129844
0.0129783
0.0130237
0.0130282
0.0130562
0.0131434
0.0132275
0.0133279
0.013413
0.0135133
0.0136469
0.0137425
0.0138363
0.0139363
0.0140387
0.0141273
0.0142174
0.0142758
0.0143348
0.0143751
0.014441
0.0145072
0.0145674
0.014628
0.0147083
0.0147708
0.0148126
0.0148439
0.014885
0.0149291
0.0149912
0.0150484
0.0151018
0.0151593
0.0152185
0.0152695
0.0153174
0.0153761
0.0154126
0.0154602
0.015514
0.0155521
0.0156003
0.015646
0.0156903
0.0157377
0.01578
0.0158288
0.0158659
0.0159071
0.0159459
0.0159822
0.0160193
0.0160679
0.0161087
0.0161551
0.016201
0.0162373
0.0162763
0.0163089
0.0163413
0.0163876
0.0164165
0.0164531
0.0164868
0.0165202
0.0165531
0.0165789
0.0166125
0.016643
0.0166709
)
;

boundaryField
{
    inlet
    {
        type            fixedValue;
        value           uniform 0;
    }
    outlet
    {
        type            zeroGradient;
    }
    yzfaces
    {
        type            empty;
    }
}


// ************************************************************************* //
