/*--------------------------------*- C++ -*----------------------------------*\
| =========                 |                                                 |
| \\      /  F ield         | foam-extend: Open Source CFD                    |
|  \\    /   O peration     | Version:     5.0                                |
|   \\  /    A nd           | Web:         http://www.foam-extend.org         |
|    \\/     M anipulation  |                                                 |
\*---------------------------------------------------------------------------*/
FoamFile
{
    version     2.0;
    format      ascii;
    class       volScalarField;
    location    "10";
    object      Na.water;
}
// * * * * * * * * * * * * * * * * * * * * * * * * * * * * * * * * * * * * * //

dimensions      [0 0 0 0 0 0 0];

internalField   nonuniform List<scalar> 
100
(
0.00347275
0.00491479
0.00571979
0.00668577
0.00726879
0.00745721
0.00746313
0.00757599
0.00794005
0.00832907
0.0088948
0.00943001
0.00978978
0.0100624
0.0102903
0.0105311
0.0108404
0.0110565
0.0112664
0.0115121
0.0117431
0.011873
0.0119751
0.0121718
0.0123453
0.0125002
0.0126455
0.0128114
0.0129248
0.012987
0.0130061
0.0130393
0.0130366
0.0130625
0.0131493
0.0132374
0.0133546
0.0134598
0.0135741
0.013694
0.0138019
0.0138914
0.013959
0.0140462
0.01412
0.0141958
0.0142625
0.0143201
0.01438
0.014421
0.0144967
0.0145681
0.0146412
0.0147002
0.0147717
0.014817
0.0148612
0.0149084
0.014938
0.0149891
0.0150339
0.0150891
0.0151523
0.0152124
0.0152577
0.0153201
0.015371
0.0154142
0.0154557
0.0154961
0.0155356
0.0155833
0.0156378
0.0156861
0.0157284
0.0157736
0.0158318
0.0158851
0.0159239
0.0159609
0.0160099
0.0160378
0.0160729
0.0161131
0.0161589
0.0161932
0.0162401
0.0162776
0.0163069
0.0163567
0.0163955
0.0164244
0.0164513
0.0164861
0.0165156
0.0165408
0.0165728
0.0165959
0.0166318
0.0166591
)
;

boundaryField
{
    inlet
    {
        type            fixedValue;
        value           uniform 0;
    }
    outlet
    {
        type            zeroGradient;
    }
    yzfaces
    {
        type            empty;
    }
}


// ************************************************************************* //
