/*--------------------------------*- C++ -*----------------------------------*\
| =========                 |                                                 |
| \\      /  F ield         | foam-extend: Open Source CFD                    |
|  \\    /   O peration     | Version:     5.0                                |
|   \\  /    A nd           | Web:         http://www.foam-extend.org         |
|    \\/     M anipulation  |                                                 |
\*---------------------------------------------------------------------------*/
FoamFile
{
    version     2.0;
    format      ascii;
    class       volScalarField;
    location    "10";
    object      Ns;
}
// * * * * * * * * * * * * * * * * * * * * * * * * * * * * * * * * * * * * * //

dimensions      [0 -3 0 0 1 0 0];

internalField   nonuniform List<scalar> 
100
(
43.2883
61.338
106.688
109.565
246.607
260.551
293.415
323.167
179.574
218.835
177.07
79.3962
100.313
131.687
105.281
115.344
52.418
95.1128
87.3286
89.7899
97.6882
80.2668
80.665
98.0115
61.6927
122.865
40.7354
77.4231
98.9979
146.024
120.619
125.032
146.431
150.906
107.286
117.189
104.071
94.9717
113.843
96.4861
135.018
95.3552
133.814
109.957
90.4495
115.277
105.025
117.766
111.018
139.951
106.116
105.91
103.732
109.701
116.61
136.214
111.136
139.401
104.386
111.555
93.0102
112.945
109.771
122.216
101.473
138.935
105.967
138.893
121.493
130.547
119.784
115.112
134.075
116.833
115.737
112.16
110.999
128.037
113.568
119.872
128.166
135.889
110.323
121.574
104.775
127.125
123.042
127.905
134.354
129.184
116.104
113.404
125.47
125.563
130.347
133.28
132.645
130.136
121.782
133.67
)
;

boundaryField
{
    inlet
    {
        type            fixedValue;
        value           uniform 0;
    }
    outlet
    {
        type            zeroGradient;
    }
    yzfaces
    {
        type            empty;
    }
}


// ************************************************************************* //
