/*--------------------------------*- C++ -*----------------------------------*\
| =========                 |                                                 |
| \\      /  F ield         | foam-extend: Open Source CFD                    |
|  \\    /   O peration     | Version:     5.0                                |
|   \\  /    A nd           | Web:         http://www.foam-extend.org         |
|    \\/     M anipulation  |                                                 |
\*---------------------------------------------------------------------------*/
FoamFile
{
    version     2.0;
    format      ascii;
    class       volScalarField;
    location    "10";
    object      Ns;
}
// * * * * * * * * * * * * * * * * * * * * * * * * * * * * * * * * * * * * * //

dimensions      [0 -3 0 0 1 0 0];

internalField   nonuniform List<scalar> 
100
(
28.2938
67.902
42.0104
129.099
116.926
209.604
245.497
260.995
165.807
125.47
116.579
66.8042
82.0198
66.5781
73.9959
38.2969
19.8797
77.8615
2.49338
21.7717
26.1798
38.3742
62.7894
41.6904
28.264
46.7275
31.7398
52.8778
66.612
54.8068
91.9588
37.653
77.1367
59.7267
38.916
44.7653
76.4272
48.4626
38.2926
35.5157
78.4374
50.1038
53.0878
45.0634
61.3426
43.7338
40.7969
56.9475
54.9749
72.8286
39.2449
40.6704
70.6816
51.2638
41.34
77.2032
38.6616
56.3988
44.3908
67.509
43.5937
51.1367
34.1038
48.3901
50.2518
61.8814
48.1983
63.4534
60.2237
70.3783
64.4107
56.9597
62.7198
60.0827
68.0504
60.088
53.707
65.3147
60.525
59.7295
63.8786
47.2655
53.3101
55.1274
54.316
64.4176
59.7109
62.0011
65.2591
75.2289
65.7776
55.7573
60.5767
73.772
74.2843
59.9318
67.3427
53.9911
56.5715
88.2856
)
;

boundaryField
{
    inlet
    {
        type            fixedValue;
        value           uniform 0;
    }
    outlet
    {
        type            zeroGradient;
    }
    yzfaces
    {
        type            empty;
    }
}


// ************************************************************************* //
