/*--------------------------------*- C++ -*----------------------------------*\
| =========                 |                                                 |
| \\      /  F ield         | foam-extend: Open Source CFD                    |
|  \\    /   O peration     | Version:     5.0                                |
|   \\  /    A nd           | Web:         http://www.foam-extend.org         |
|    \\/     M anipulation  |                                                 |
\*---------------------------------------------------------------------------*/
FoamFile
{
    version     2.0;
    format      ascii;
    class       surfaceScalarField;
    location    "10";
    object      phi;
}
// * * * * * * * * * * * * * * * * * * * * * * * * * * * * * * * * * * * * * //

dimensions      [0 3 -1 0 0 0 0];

internalField   nonuniform List<scalar> 
99
(
1.22715e-06
1.2169e-06
1.21909e-06
1.2222e-06
1.22492e-06
1.22965e-06
1.22467e-06
1.22179e-06
1.21371e-06
1.19184e-06
1.18299e-06
1.18123e-06
1.18281e-06
1.18797e-06
1.18365e-06
1.17838e-06
1.17754e-06
1.17676e-06
1.17403e-06
1.17787e-06
1.17946e-06
1.17604e-06
1.17017e-06
1.16917e-06
1.17263e-06
1.16759e-06
1.17062e-06
1.17796e-06
1.18193e-06
1.17755e-06
1.17364e-06
1.17602e-06
1.17433e-06
1.17557e-06
1.18073e-06
1.17804e-06
1.17559e-06
1.17169e-06
1.17362e-06
1.17615e-06
1.1767e-06
1.17743e-06
1.18074e-06
1.17674e-06
1.1785e-06
1.17563e-06
1.17553e-06
1.17331e-06
1.17612e-06
1.17433e-06
1.17793e-06
1.18003e-06
1.17813e-06
1.18086e-06
1.17738e-06
1.18078e-06
1.17737e-06
1.17898e-06
1.17663e-06
1.17747e-06
1.17938e-06
1.17825e-06
1.17654e-06
1.1771e-06
1.17516e-06
1.17567e-06
1.17789e-06
1.17608e-06
1.17462e-06
1.1748e-06
1.17413e-06
1.17433e-06
1.17688e-06
1.17422e-06
1.17319e-06
1.17312e-06
1.17377e-06
1.17506e-06
1.1721e-06
1.17411e-06
1.17004e-06
1.16757e-06
1.16738e-06
1.16509e-06
1.16526e-06
1.16471e-06
1.1643e-06
1.1666e-06
1.16531e-06
1.16462e-06
1.16461e-06
1.16422e-06
1.16303e-06
1.1602e-06
1.16058e-06
1.1618e-06
1.16066e-06
1.16029e-06
1.16228e-06
)
;

boundaryField
{
    inlet
    {
        type            calculated;
        value           uniform -1.225e-06;
    }
    outlet
    {
        type            calculated;
        value           uniform 1.16247e-06;
    }
    yzfaces
    {
        type            empty;
    }
}


// ************************************************************************* //
