/*--------------------------------*- C++ -*----------------------------------*\
| =========                 |                                                 |
| \\      /  F ield         | foam-extend: Open Source CFD                    |
|  \\    /   O peration     | Version:     5.0                                |
|   \\  /    A nd           | Web:         http://www.foam-extend.org         |
|    \\/     M anipulation  |                                                 |
\*---------------------------------------------------------------------------*/
FoamFile
{
    version     2.0;
    format      ascii;
    class       surfaceScalarField;
    location    "10";
    object      phi.water;
}
// * * * * * * * * * * * * * * * * * * * * * * * * * * * * * * * * * * * * * //

dimensions      [0 3 -1 0 0 0 0];

internalField   nonuniform List<scalar> 
99
(
6.01805e-08
1.11071e-07
1.40827e-07
1.91264e-07
2.30503e-07
2.41285e-07
2.37732e-07
2.42101e-07
2.63626e-07
2.85566e-07
3.2763e-07
3.77876e-07
4.18865e-07
4.46449e-07
4.70763e-07
4.94295e-07
5.38488e-07
5.68237e-07
5.96917e-07
6.36905e-07
6.78688e-07
7.00305e-07
7.12566e-07
7.53998e-07
7.87145e-07
8.2013e-07
8.52528e-07
8.92213e-07
9.14995e-07
9.25875e-07
9.23152e-07
9.32917e-07
9.28759e-07
9.29957e-07
9.52481e-07
9.70889e-07
9.9436e-07
1.01917e-06
1.05415e-06
1.089e-06
1.12221e-06
1.15686e-06
1.17535e-06
1.19821e-06
1.21921e-06
1.24209e-06
1.26454e-06
1.28299e-06
1.30505e-06
1.31499e-06
1.34079e-06
1.3678e-06
1.39675e-06
1.41789e-06
1.44641e-06
1.45965e-06
1.47272e-06
1.49527e-06
1.50704e-06
1.53118e-06
1.54503e-06
1.56502e-06
1.58758e-06
1.60973e-06
1.62361e-06
1.6532e-06
1.67832e-06
1.6929e-06
1.70725e-06
1.72033e-06
1.73533e-06
1.75753e-06
1.781e-06
1.80027e-06
1.81231e-06
1.82793e-06
1.85407e-06
1.88514e-06
1.90144e-06
1.91742e-06
1.94791e-06
1.95998e-06
1.97547e-06
1.99812e-06
2.03157e-06
2.04531e-06
2.06992e-06
2.08841e-06
2.10536e-06
2.13329e-06
2.15627e-06
2.16998e-06
2.17961e-06
2.19848e-06
2.21956e-06
2.23502e-06
2.24952e-06
2.26168e-06
2.27785e-06
)
;

boundaryField
{
    inlet
    {
        type            fixedValue;
        value           uniform 0;
    }
    outlet
    {
        type            calculated;
        value           uniform 2.29886e-06;
    }
    yzfaces
    {
        type            empty;
    }
}


// ************************************************************************* //
