/*--------------------------------*- C++ -*----------------------------------*\
| =========                 |                                                 |
| \\      /  F ield         | foam-extend: Open Source CFD                    |
|  \\    /   O peration     | Version:     5.0                                |
|   \\  /    A nd           | Web:         http://www.foam-extend.org         |
|    \\/     M anipulation  |                                                 |
\*---------------------------------------------------------------------------*/
FoamFile
{
    version     2.0;
    format      ascii;
    class       volVectorField;
    location    "10";
    object      U.gas;
}
// * * * * * * * * * * * * * * * * * * * * * * * * * * * * * * * * * * * * * //

dimensions      [0 1 -1 0 0 0 0];

internalField   nonuniform List<vector> 
100
(
(0.00586566 0 0)
(0.00631981 0 0)
(0.00662054 0 0)
(0.00698792 0 0)
(0.00724108 0 0)
(0.00727198 0 0)
(0.00718658 0 0)
(0.00722322 0 0)
(0.00737531 0 0)
(0.00750193 0 0)
(0.00771625 0 0)
(0.00795756 0 0)
(0.00817751 0 0)
(0.0083454 0 0)
(0.00845227 0 0)
(0.00855637 0 0)
(0.00873157 0 0)
(0.00888514 0 0)
(0.00901784 0 0)
(0.00919278 0 0)
(0.00937852 0 0)
(0.00946979 0 0)
(0.00950994 0 0)
(0.00965048 0 0)
(0.00978676 0 0)
(0.00990512 0 0)
(0.0100315 0 0)
(0.0101998 0 0)
(0.0102825 0 0)
(0.0102697 0 0)
(0.0102084 0 0)
(0.0102046 0 0)
(0.0101808 0 0)
(0.0101749 0 0)
(0.010241 0 0)
(0.0103066 0 0)
(0.0103685 0 0)
(0.0104141 0 0)
(0.0105171 0 0)
(0.010636 0 0)
(0.0107357 0 0)
(0.0108471 0 0)
(0.0109337 0 0)
(0.0110003 0 0)
(0.0110352 0 0)
(0.0110691 0 0)
(0.0111095 0 0)
(0.0111566 0 0)
(0.0112139 0 0)
(0.011247 0 0)
(0.0113126 0 0)
(0.0113677 0 0)
(0.0114399 0 0)
(0.0114981 0 0)
(0.0115624 0 0)
(0.0115837 0 0)
(0.0115881 0 0)
(0.0116258 0 0)
(0.0116539 0 0)
(0.0117076 0 0)
(0.0117412 0 0)
(0.011768 0 0)
(0.0118066 0 0)
(0.0118285 0 0)
(0.0118372 0 0)
(0.0118759 0 0)
(0.0119354 0 0)
(0.0119728 0 0)
(0.0119843 0 0)
(0.0119703 0 0)
(0.0119721 0 0)
(0.0120104 0 0)
(0.0120527 0 0)
(0.0120621 0 0)
(0.0120545 0 0)
(0.0120532 0 0)
(0.0120721 0 0)
(0.0121064 0 0)
(0.0121281 0 0)
(0.0121401 0 0)
(0.0121872 0 0)
(0.0122163 0 0)
(0.01224 0 0)
(0.0122597 0 0)
(0.0123118 0 0)
(0.0123434 0 0)
(0.0123678 0 0)
(0.0123711 0 0)
(0.01239 0 0)
(0.0124239 0 0)
(0.0124514 0 0)
(0.0124661 0 0)
(0.0124534 0 0)
(0.0124525 0 0)
(0.0124722 0 0)
(0.0124864 0 0)
(0.0125001 0 0)
(0.0124917 0 0)
(0.0124934 0 0)
(0.0125081 0 0)
)
;

boundaryField
{
    inlet
    {
        type            fixedValue;
        value           uniform (0.005 0 0);
    }
    outlet
    {
        type            zeroGradient;
    }
    yzfaces
    {
        type            empty;
    }
}


// ************************************************************************* //
