/*--------------------------------*- C++ -*----------------------------------*\
| =========                 |                                                 |
| \\      /  F ield         | foam-extend: Open Source CFD                    |
|  \\    /   O peration     | Version:     5.0                                |
|   \\  /    A nd           | Web:         http://www.foam-extend.org         |
|    \\/     M anipulation  |                                                 |
\*---------------------------------------------------------------------------*/
FoamFile
{
    version     2.0;
    format      ascii;
    class       volVectorField;
    location    "10";
    object      U.water;
}
// * * * * * * * * * * * * * * * * * * * * * * * * * * * * * * * * * * * * * //

dimensions      [0 1 -1 0 0 0 0];

internalField   nonuniform List<vector> 
100
(
(3.00965e-05 0 0)
(6.97376e-05 0 0)
(0.000103699 0 0)
(0.000135319 0 0)
(0.000169252 0 0)
(0.000191576 0 0)
(0.000200245 0 0)
(0.000202636 0 0)
(0.000210854 0 0)
(0.000230258 0 0)
(0.000256401 0 0)
(0.00029306 0 0)
(0.000328307 0 0)
(0.000355341 0 0)
(0.000374734 0 0)
(0.000392593 0 0)
(0.000418469 0 0)
(0.000445467 0 0)
(0.00046931 0 0)
(0.000498355 0 0)
(0.000529765 0 0)
(0.000552676 0 0)
(0.000566113 0 0)
(0.000582815 0 0)
(0.000608979 0 0)
(0.000634323 0 0)
(0.000658736 0 0)
(0.00069038 0 0)
(0.000721404 0 0)
(0.000738124 0 0)
(0.000743335 0 0)
(0.000745396 0 0)
(0.00075104 0 0)
(0.000753383 0 0)
(0.000765703 0 0)
(0.000782133 0 0)
(0.000796756 0 0)
(0.000813808 0 0)
(0.000832103 0 0)
(0.000857566 0 0)
(0.000885581 0 0)
(0.000907347 0 0)
(0.000930823 0 0)
(0.000954785 0 0)
(0.00097739 0 0)
(0.000998226 0 0)
(0.00101632 0 0)
(0.00103033 0 0)
(0.00104527 0 0)
(0.00105943 0 0)
(0.00107737 0 0)
(0.00109807 0 0)
(0.00111529 0 0)
(0.00113431 0 0)
(0.00115459 0 0)
(0.00117043 0 0)
(0.00118229 0 0)
(0.00119298 0 0)
(0.00120509 0 0)
(0.0012196 0 0)
(0.00124029 0 0)
(0.00125798 0 0)
(0.00127358 0 0)
(0.00129157 0 0)
(0.00130929 0 0)
(0.00132559 0 0)
(0.00134536 0 0)
(0.00136298 0 0)
(0.00137332 0 0)
(0.00138896 0 0)
(0.00140582 0 0)
(0.00142118 0 0)
(0.00144034 0 0)
(0.00145722 0 0)
(0.00147249 0 0)
(0.00148843 0 0)
(0.00150464 0 0)
(0.00152235 0 0)
(0.00153632 0 0)
(0.0015517 0 0)
(0.00156667 0 0)
(0.00157737 0 0)
(0.00159211 0 0)
(0.00160939 0 0)
(0.00162562 0 0)
(0.00164424 0 0)
(0.0016612 0 0)
(0.0016789 0 0)
(0.00169606 0 0)
(0.00170875 0 0)
(0.00172462 0 0)
(0.00174098 0 0)
(0.00175407 0 0)
(0.00176651 0 0)
(0.001779 0 0)
(0.00179456 0 0)
(0.00180801 0 0)
(0.00181999 0 0)
(0.00183605 0 0)
(0.00185171 0 0)
)
;

boundaryField
{
    inlet
    {
        type            fixedValue;
        value           uniform (0 0 0);
    }
    outlet
    {
        type            zeroGradient;
    }
    yzfaces
    {
        type            empty;
    }
}


// ************************************************************************* //
