/*--------------------------------*- C++ -*----------------------------------*\
| =========                 |                                                 |
| \\      /  F ield         | foam-extend: Open Source CFD                    |
|  \\    /   O peration     | Version:     5.0                                |
|   \\  /    A nd           | Web:         http://www.foam-extend.org         |
|    \\/     M anipulation  |                                                 |
\*---------------------------------------------------------------------------*/
FoamFile
{
    version     2.0;
    format      ascii;
    class       volVectorField;
    location    "10";
    object      U.water;
}
// * * * * * * * * * * * * * * * * * * * * * * * * * * * * * * * * * * * * * //

dimensions      [0 1 -1 0 0 0 0];

internalField   nonuniform List<vector> 
100
(
(2.96763e-05 0 0)
(6.99903e-05 0 0)
(0.000104427 0 0)
(0.000134664 0 0)
(0.000170158 0 0)
(0.000191528 0 0)
(0.000196329 0 0)
(0.000197565 0 0)
(0.000207032 0 0)
(0.000225791 0 0)
(0.000250642 0 0)
(0.000286989 0 0)
(0.000324516 0 0)
(0.000352818 0 0)
(0.000374719 0 0)
(0.000394824 0 0)
(0.00042075 0 0)
(0.000451541 0 0)
(0.000476009 0 0)
(0.000503373 0 0)
(0.000535705 0 0)
(0.00056279 0 0)
(0.000578063 0 0)
(0.00059823 0 0)
(0.000628577 0 0)
(0.000655615 0 0)
(0.000682612 0 0)
(0.000711179 0 0)
(0.000737215 0 0)
(0.00075135 0 0)
(0.000755575 0 0)
(0.000757238 0 0)
(0.000760686 0 0)
(0.000759858 0 0)
(0.000768281 0 0)
(0.00078552 0 0)
(0.000802351 0 0)
(0.000822147 0 0)
(0.000846018 0 0)
(0.000874186 0 0)
(0.000901649 0 0)
(0.000929284 0 0)
(0.000952074 0 0)
(0.000968891 0 0)
(0.000987064 0 0)
(0.00100471 0 0)
(0.00102296 0 0)
(0.0010397 0 0)
(0.00105583 0 0)
(0.00107002 0 0)
(0.00108401 0 0)
(0.0011054 0 0)
(0.00112799 0 0)
(0.00114886 0 0)
(0.00116843 0 0)
(0.00118626 0 0)
(0.00119743 0 0)
(0.00121146 0 0)
(0.00122575 0 0)
(0.00123981 0 0)
(0.00125589 0 0)
(0.00127008 0 0)
(0.001287 0 0)
(0.00130529 0 0)
(0.00132024 0 0)
(0.00133705 0 0)
(0.0013592 0 0)
(0.00137614 0 0)
(0.00138815 0 0)
(0.00139965 0 0)
(0.00141123 0 0)
(0.00142597 0 0)
(0.00144416 0 0)
(0.00146219 0 0)
(0.00147549 0 0)
(0.00148673 0 0)
(0.00150284 0 0)
(0.00152556 0 0)
(0.00154541 0 0)
(0.00155873 0 0)
(0.00157696 0 0)
(0.00159547 0 0)
(0.00160688 0 0)
(0.00162191 0 0)
(0.00164402 0 0)
(0.00166449 0 0)
(0.00167941 0 0)
(0.00169726 0 0)
(0.00171214 0 0)
(0.00172956 0 0)
(0.00175034 0 0)
(0.00176586 0 0)
(0.00177583 0 0)
(0.00178717 0 0)
(0.00180317 0 0)
(0.00181848 0 0)
(0.00183069 0 0)
(0.00184184 0 0)
(0.00185286 0 0)
(0.00186707 0 0)
)
;

boundaryField
{
    inlet
    {
        type            fixedValue;
        value           uniform (0 0 0);
    }
    outlet
    {
        type            zeroGradient;
    }
    yzfaces
    {
        type            empty;
    }
}


// ************************************************************************* //
