/*--------------------------------*- C++ -*----------------------------------*\
| =========                 |                                                 |
| \\      /  F ield         | foam-extend: Open Source CFD                    |
|  \\    /   O peration     | Version:     5.0                                |
|   \\  /    A nd           | Web:         http://www.foam-extend.org         |
|    \\/     M anipulation  |                                                 |
\*---------------------------------------------------------------------------*/
FoamFile
{
    version     2.0;
    format      ascii;
    class       volScalarField;
    location    "9";
    object      alpha.water;
}
// * * * * * * * * * * * * * * * * * * * * * * * * * * * * * * * * * * * * * //

dimensions      [0 0 0 0 0 0 0];

internalField   nonuniform List<scalar> 
100
(
0.00227677
0.00359928
0.00481301
0.00594551
0.00702101
0.00805075
0.00904153
0.00999798
0.0109222
0.011821
0.0126942
0.0135428
0.0143698
0.0151752
0.0159591
0.016729
0.0174788
0.0182111
0.018928
0.0196297
0.0203159
0.0209871
0.0216482
0.0222921
0.0229238
0.0235426
0.0241531
0.0247491
0.0253389
0.0259211
0.0264872
0.0270428
0.0275919
0.0281324
0.0286633
0.0291898
0.0297057
0.0302127
0.0307112
0.0311978
0.0316839
0.0321607
0.0326293
0.0330965
0.0335515
0.0340041
0.0344437
0.0348791
0.0353162
0.0357452
0.0361646
0.0365831
0.0369961
0.0373943
0.0377969
0.0381854
0.0385738
0.0389593
0.0393462
0.0397182
0.0400959
0.040463
0.0408226
0.0411831
0.0415404
0.0418952
0.0422404
0.042595
0.0429183
0.0432618
0.0435949
0.0439234
0.0442454
0.0445773
0.0448989
0.045219
0.0455286
0.0458362
0.0461401
0.0464482
0.0467474
0.047054
0.0473525
0.0476488
0.0479371
0.0482299
0.0484999
0.0487859
0.049062
0.049341
0.0496148
0.0498892
0.0501605
0.0504309
0.0507004
0.0509593
0.0512247
0.0514824
0.0517372
0.0519852
)
;

boundaryField
{
    inlet
    {
        type            fixedValue;
        value           uniform 0;
    }
    outlet
    {
        type            zeroGradient;
    }
    yzfaces
    {
        type            empty;
    }
}


// ************************************************************************* //
