/*--------------------------------*- C++ -*----------------------------------*\
| =========                 |                                                 |
| \\      /  F ield         | foam-extend: Open Source CFD                    |
|  \\    /   O peration     | Version:     5.0                                |
|   \\  /    A nd           | Web:         http://www.foam-extend.org         |
|    \\/     M anipulation  |                                                 |
\*---------------------------------------------------------------------------*/
FoamFile
{
    version     2.0;
    format      ascii;
    class       volScalarField;
    location    "9";
    object      CO2.water;
}
// * * * * * * * * * * * * * * * * * * * * * * * * * * * * * * * * * * * * * //

dimensions      [0 0 0 0 0 0 0];

internalField   nonuniform List<scalar> 
100
(
5.97984e-05
1.49004e-05
3.07943e-06
5.77082e-07
1.01443e-07
1.70419e-08
2.76645e-09
4.3702e-10
6.75061e-11
1.02331e-11
1.52638e-12
2.24489e-13
3.26016e-14
4.68064e-15
6.65079e-16
9.36162e-17
1.30642e-17
1.80829e-18
2.48381e-19
3.38775e-20
4.59016e-21
6.17985e-22
8.26911e-23
1.10034e-23
1.45615e-24
1.91685e-25
2.51074e-26
3.2729e-27
4.24616e-28
5.48467e-29
7.05433e-30
9.03416e-31
1.15231e-31
1.46425e-32
1.85325e-33
2.33706e-34
2.93659e-35
3.67636e-36
4.58719e-37
5.70431e-38
7.07031e-39
8.73692e-40
1.07627e-40
1.32166e-41
1.61837e-42
1.97581e-43
2.40544e-44
2.92007e-45
3.53525e-46
4.26911e-47
5.14151e-48
6.17603e-49
7.39969e-50
8.84278e-51
1.05431e-51
1.25389e-52
1.48779e-53
1.76132e-54
2.08032e-55
2.45187e-56
2.88306e-57
3.38304e-58
3.9608e-59
4.62677e-60
5.39402e-61
6.27468e-62
7.28598e-63
8.44219e-64
9.76319e-65
1.12678e-65
1.29801e-66
1.49252e-67
1.71257e-68
1.96169e-69
2.24288e-70
2.56019e-71
2.91705e-72
3.31776e-73
3.76694e-74
4.26997e-75
4.83199e-76
5.45885e-77
6.15772e-78
6.93372e-79
7.7958e-80
8.75009e-81
9.80699e-82
1.09721e-82
1.22593e-83
1.36741e-84
1.52299e-85
1.69384e-86
1.88088e-87
2.08597e-88
2.30998e-89
2.55452e-90
2.82085e-91
3.11108e-92
3.42628e-93
3.76814e-94
)
;

boundaryField
{
    inlet
    {
        type            fixedValue;
        value           uniform 0;
    }
    outlet
    {
        type            zeroGradient;
    }
    yzfaces
    {
        type            empty;
    }
}


// ************************************************************************* //
