/*--------------------------------*- C++ -*----------------------------------*\
| =========                 |                                                 |
| \\      /  F ield         | foam-extend: Open Source CFD                    |
|  \\    /   O peration     | Version:     5.0                                |
|   \\  /    A nd           | Web:         http://www.foam-extend.org         |
|    \\/     M anipulation  |                                                 |
\*---------------------------------------------------------------------------*/
FoamFile
{
    version     2.0;
    format      ascii;
    class       surfaceScalarField;
    location    "10";
    object      phi;
}
// * * * * * * * * * * * * * * * * * * * * * * * * * * * * * * * * * * * * * //

dimensions      [0 3 -1 0 0 0 0];

internalField   nonuniform List<scalar> 
99
(
1.2168e-06
1.2243e-06
1.22421e-06
1.22174e-06
1.22935e-06
1.20692e-06
1.201e-06
1.20226e-06
1.19709e-06
1.18556e-06
1.17844e-06
1.17711e-06
1.18894e-06
1.18348e-06
1.18359e-06
1.17457e-06
1.18166e-06
1.18286e-06
1.18359e-06
1.18706e-06
1.19277e-06
1.1909e-06
1.18607e-06
1.19059e-06
1.19126e-06
1.19374e-06
1.19815e-06
1.20512e-06
1.20022e-06
1.19321e-06
1.18534e-06
1.18587e-06
1.18219e-06
1.17885e-06
1.18095e-06
1.17949e-06
1.17494e-06
1.17339e-06
1.1787e-06
1.18028e-06
1.18342e-06
1.19159e-06
1.19264e-06
1.19084e-06
1.18842e-06
1.18616e-06
1.18709e-06
1.18832e-06
1.19031e-06
1.18969e-06
1.19e-06
1.19036e-06
1.19415e-06
1.19415e-06
1.19599e-06
1.19267e-06
1.1903e-06
1.193e-06
1.19205e-06
1.19512e-06
1.19239e-06
1.19261e-06
1.19058e-06
1.19006e-06
1.18577e-06
1.18834e-06
1.1914e-06
1.19067e-06
1.18724e-06
1.18328e-06
1.18257e-06
1.18362e-06
1.18264e-06
1.18068e-06
1.17665e-06
1.17431e-06
1.17195e-06
1.17456e-06
1.17363e-06
1.17271e-06
1.17658e-06
1.17701e-06
1.17562e-06
1.17531e-06
1.17964e-06
1.17975e-06
1.17742e-06
1.17808e-06
1.17732e-06
1.1787e-06
1.1802e-06
1.17879e-06
1.17494e-06
1.17504e-06
1.17564e-06
1.17613e-06
1.17521e-06
1.17337e-06
1.17219e-06
)
;

boundaryField
{
    inlet
    {
        type            calculated;
        value           uniform -1.225e-06;
    }
    outlet
    {
        type            calculated;
        value           uniform 1.17414e-06;
    }
    yzfaces
    {
        type            empty;
    }
}


// ************************************************************************* //
