/*--------------------------------*- C++ -*----------------------------------*\
| =========                 |                                                 |
| \\      /  F ield         | foam-extend: Open Source CFD                    |
|  \\    /   O peration     | Version:     5.0                                |
|   \\  /    A nd           | Web:         http://www.foam-extend.org         |
|    \\/     M anipulation  |                                                 |
\*---------------------------------------------------------------------------*/
FoamFile
{
    version     2.0;
    format      ascii;
    class       volScalarField;
    location    "6";
    object      alpha.gas;
}
// * * * * * * * * * * * * * * * * * * * * * * * * * * * * * * * * * * * * * //

dimensions      [0 0 0 0 0 0 0];

internalField   nonuniform List<scalar> 
100
(
0.161034
0.146735
0.137868
0.1306
0.12505
0.119516
0.114874
0.111031
0.107896
0.104453
0.102017
0.099268
0.0972582
0.0952754
0.0928119
0.0907496
0.0886292
0.0865299
0.0846829
0.0835082
0.0826236
0.08156
0.0803454
0.0790468
0.0777064
0.0765605
0.0754063
0.0744195
0.0732872
0.0722274
0.071317
0.0703637
0.0694584
0.0683719
0.0673166
0.0663104
0.0652185
0.0640962
0.0629244
0.0618682
0.0605938
0.0591249
0.0574239
0.0558272
0.0534812
0.0507539
0.047147
0.041584
0.0316236
0.0313513
0.0315699
0.0320651
0.0324211
0.0326336
0.0327535
0.0328231
0.0328791
0.0329453
0.0330414
0.0331268
0.0332642
0.0333687
0.0334297
0.0335088
0.0335718
0.0336098
0.0336341
0.0336541
0.0336659
0.0336668
0.0336697
0.0336762
0.0336728
0.0336452
0.0336601
0.03366
0.0336632
0.0336741
0.0336685
0.0336509
0.03363
0.033547
0.033477
0.0333744
0.0332284
0.0330593
0.0328405
0.032562
0.0322544
0.0318844
0.0314521
0.0309577
0.0303943
0.0297345
0.0289661
0.0280713
0.0270717
0.0259415
0.0246323
0.0231781
)
;

boundaryField
{
    inlet
    {
        type            fixedValue;
        value           uniform 0.2;
    }
    outlet
    {
        type            zeroGradient;
    }
    yzfaces
    {
        type            empty;
    }
}


// ************************************************************************* //
