/*--------------------------------*- C++ -*----------------------------------*\
| =========                 |                                                 |
| \\      /  F ield         | foam-extend: Open Source CFD                    |
|  \\    /   O peration     | Version:     5.0                                |
|   \\  /    A nd           | Web:         http://www.foam-extend.org         |
|    \\/     M anipulation  |                                                 |
\*---------------------------------------------------------------------------*/
FoamFile
{
    version     2.0;
    format      ascii;
    class       volScalarField;
    location    "6";
    object      Cl.water;
}
// * * * * * * * * * * * * * * * * * * * * * * * * * * * * * * * * * * * * * //

dimensions      [0 0 0 0 0 0 0];

internalField   nonuniform List<scalar> 
100
(
0.00446822
0.00608854
0.00705182
0.00786842
0.00852495
0.00910196
0.0096546
0.0101549
0.0105552
0.0109312
0.0112524
0.0115333
0.0117751
0.0119905
0.0122111
0.0124567
0.0126536
0.0129096
0.0131371
0.0133288
0.0134569
0.0135825
0.0137337
0.013875
0.0140203
0.014165
0.0143017
0.0143947
0.0145265
0.0146479
0.0147577
0.0148709
0.0149866
0.0150769
0.0152144
0.0153266
0.0154603
0.015578
0.0157385
0.0158405
0.0159785
0.0161513
0.0163658
0.0165535
0.0168174
0.0171195
0.0175139
0.0181151
0.0191608
0.0193991
0.0193459
0.0192881
0.0192353
0.0192171
0.0192045
0.0191904
0.0191884
0.0191827
0.0191757
0.0191624
0.0191356
0.019131
0.0191271
0.0191213
0.0191131
0.0191028
0.0190999
0.0190984
0.0191073
0.019103
0.0191084
0.0191048
0.0191027
0.0191176
0.0191043
0.0191051
0.0191099
0.0191023
0.019099
0.0191149
0.0191052
0.0191173
0.0191276
0.0191365
0.0191601
0.0191746
0.0191896
0.0192227
0.0192544
0.019295
0.019352
0.0194099
0.0194587
0.0195409
0.0196349
0.0197433
0.0198611
0.0199798
0.0201385
0.0202903
)
;

boundaryField
{
    inlet
    {
        type            fixedValue;
        value           uniform 0;
    }
    outlet
    {
        type            zeroGradient;
    }
    yzfaces
    {
        type            empty;
    }
}


// ************************************************************************* //
