/*--------------------------------*- C++ -*----------------------------------*\
| =========                 |                                                 |
| \\      /  F ield         | foam-extend: Open Source CFD                    |
|  \\    /   O peration     | Version:     5.0                                |
|   \\  /    A nd           | Web:         http://www.foam-extend.org         |
|    \\/     M anipulation  |                                                 |
\*---------------------------------------------------------------------------*/
FoamFile
{
    version     2.0;
    format      ascii;
    class       volScalarField;
    location    "6";
    object      CO2.water;
}
// * * * * * * * * * * * * * * * * * * * * * * * * * * * * * * * * * * * * * //

dimensions      [0 0 0 0 0 0 0];

internalField   nonuniform List<scalar> 
100
(
0.00102212
0.0013922
0.00161297
0.00179973
0.00194943
0.00208194
0.00220842
0.00232285
0.00241469
0.00249931
0.00257478
0.00263748
0.00269213
0.00274296
0.00279427
0.00284928
0.00289244
0.00295002
0.00300131
0.00304629
0.0030774
0.00310477
0.00313965
0.00317269
0.00320559
0.00323906
0.00327062
0.00329329
0.00332234
0.00334895
0.00337544
0.00340099
0.00342725
0.00344838
0.00347966
0.00350565
0.00353576
0.00356338
0.00360006
0.00362283
0.00365468
0.00369401
0.00374373
0.00378618
0.00384591
0.00391505
0.00400537
0.00414249
0.00438196
0.001706
0.000578504
0.000191211
6.39173e-05
2.18097e-05
7.5486e-06
2.62649e-06
9.12503e-07
3.15155e-07
1.0804e-07
3.67532e-08
1.24198e-08
4.17408e-09
1.39838e-09
4.67985e-10
1.56518e-10
5.23482e-11
1.75325e-11
5.88667e-12
1.98949e-12
6.78349e-13
2.31549e-13
7.81511e-14
2.59315e-14
8.46822e-15
2.72467e-15
8.66804e-16
2.73245e-16
8.55662e-17
2.66621e-17
8.27701e-18
3.19315e-18
2.21652e-18
1.96757e-18
1.65782e-18
1.28453e-18
9.37558e-19
6.58387e-19
4.50947e-19
3.03881e-19
2.02263e-19
1.33365e-19
8.72286e-20
5.66592e-20
3.65834e-20
2.34697e-20
1.49737e-20
9.49303e-21
5.97745e-21
3.73534e-21
2.31873e-21
)
;

boundaryField
{
    inlet
    {
        type            fixedValue;
        value           uniform 0;
    }
    outlet
    {
        type            zeroGradient;
    }
    yzfaces
    {
        type            empty;
    }
}


// ************************************************************************* //
