/*--------------------------------*- C++ -*----------------------------------*\
| =========                 |                                                 |
| \\      /  F ield         | foam-extend: Open Source CFD                    |
|  \\    /   O peration     | Version:     5.0                                |
|   \\  /    A nd           | Web:         http://www.foam-extend.org         |
|    \\/     M anipulation  |                                                 |
\*---------------------------------------------------------------------------*/
FoamFile
{
    version     2.0;
    format      ascii;
    class       volScalarField;
    location    "6";
    object      CO2.gas;
}
// * * * * * * * * * * * * * * * * * * * * * * * * * * * * * * * * * * * * * //

dimensions      [0 0 0 0 0 0 0];

internalField   nonuniform List<scalar> 
100
(
0.160647
0.145864
0.136144
0.128839
0.123747
0.11768
0.11338
0.110265
0.107564
0.103891
0.101832
0.0987751
0.0968514
0.0947803
0.0918546
0.0899088
0.0874596
0.0854427
0.0837717
0.082952
0.0822928
0.0812672
0.0801423
0.0788204
0.0774022
0.0763399
0.07523
0.0741427
0.0730143
0.0719739
0.071088
0.0701337
0.0692843
0.0680667
0.0670993
0.066089
0.0650159
0.0638755
0.0627988
0.0616682
0.0603557
0.0589166
0.057312
0.0557184
0.0533771
0.050655
0.0470552
0.041503
0.031562
0.0312242
0.0314629
0.0319295
0.0322582
0.0324087
0.032453
0.0324304
0.0323534
0.0322649
0.0321664
0.0320261
0.0319028
0.0316768
0.0313527
0.0309905
0.0305512
0.0300311
0.0294183
0.0287424
0.0279746
0.0271454
0.0262462
0.0252991
0.0242816
0.0231837
0.022099
0.0209566
0.0197838
0.018598
0.0173919
0.0161569
0.0149482
0.0137157
0.0125137
0.0113361
0.0101804
0.00907403
0.00801425
0.0070098
0.00607492
0.0052044
0.00440096
0.00367271
0.00302301
0.00244366
0.00193838
0.00150307
0.00113778
0.00083673
0.000592767
0.000404312
)
;

boundaryField
{
    inlet
    {
        type            fixedValue;
        value           uniform 0.2;
    }
    outlet
    {
        type            zeroGradient;
    }
    yzfaces
    {
        type            empty;
    }
}


// ************************************************************************* //
