/*--------------------------------*- C++ -*----------------------------------*\
| =========                 |                                                 |
| \\      /  F ield         | foam-extend: Open Source CFD                    |
|  \\    /   O peration     | Version:     5.0                                |
|   \\  /    A nd           | Web:         http://www.foam-extend.org         |
|    \\/     M anipulation  |                                                 |
\*---------------------------------------------------------------------------*/
FoamFile
{
    version     2.0;
    format      ascii;
    class       volScalarField;
    location    "6";
    object      H2O.gas;
}
// * * * * * * * * * * * * * * * * * * * * * * * * * * * * * * * * * * * * * //

dimensions      [0 0 0 0 0 0 0];

internalField   nonuniform List<scalar> 
100
(
0.000187083
0.00013316
0.000110626
9.97162e-05
9.00232e-05
8.1475e-05
8.27327e-05
9.95642e-05
0.000122458
0.000152149
0.000168104
0.000173656
0.000183151
0.000180709
0.000176018
0.000172636
0.00016812
0.000164476
0.000161376
0.000159641
0.000157795
0.000155102
0.000152171
0.000149077
0.000148332
0.000145904
0.000145028
0.000143247
0.000141036
0.000139051
0.000137276
0.000135704
0.000133966
0.000131808
0.000129966
0.000128203
0.000126097
0.000124073
0.00012231
0.000120172
0.000117641
0.000114847
0.000111831
0.000108722
0.000104153
9.88417e-05
9.18174e-05
8.09835e-05
6.1586e-05
7.3602e-05
9.49964e-05
0.000126148
0.000168777
0.000225977
0.000301058
0.000398142
0.000521006
0.000674487
0.000864002
0.00109351
0.00137069
0.00169662
0.00207489
0.00251425
0.0030174
0.00358327
0.00421602
0.00491696
0.00568387
0.00652042
0.00741589
0.00837662
0.00939012
0.010443
0.0115579
0.0126988
0.0138705
0.0150756
0.0162853
0.0174793
0.0186876
0.019828
0.0209609
0.0220325
0.0230329
0.0239738
0.0248271
0.0255504
0.026179
0.0266848
0.0270479
0.0272784
0.027386
0.0272947
0.0270243
0.0265604
0.0259292
0.0251158
0.0240385
0.022785
)
;

boundaryField
{
    inlet
    {
        type            fixedValue;
        value           uniform 0;
    }
    outlet
    {
        type            zeroGradient;
    }
    yzfaces
    {
        type            empty;
    }
}


// ************************************************************************* //
