/*--------------------------------*- C++ -*----------------------------------*\
| =========                 |                                                 |
| \\      /  F ield         | foam-extend: Open Source CFD                    |
|  \\    /   O peration     | Version:     5.0                                |
|   \\  /    A nd           | Web:         http://www.foam-extend.org         |
|    \\/     M anipulation  |                                                 |
\*---------------------------------------------------------------------------*/
FoamFile
{
    version     2.0;
    format      ascii;
    class       volScalarField;
    location    "6";
    object      Na.water;
}
// * * * * * * * * * * * * * * * * * * * * * * * * * * * * * * * * * * * * * //

dimensions      [0 0 0 0 0 0 0];

internalField   nonuniform List<scalar> 
100
(
0.00446989
0.00608315
0.00705128
0.00786551
0.00852486
0.00910368
0.00965684
0.010155
0.0105531
0.0109249
0.0112464
0.0115292
0.0117671
0.0119877
0.0122068
0.012451
0.0126455
0.012894
0.0131166
0.0133066
0.0134463
0.0135677
0.013723
0.0138688
0.0140094
0.0141607
0.0143044
0.0143982
0.0145217
0.014647
0.0147548
0.0148683
0.0149812
0.0150733
0.0152151
0.0153303
0.0154597
0.0155866
0.0157425
0.0158441
0.015976
0.0161525
0.0163708
0.0165544
0.0168127
0.0171153
0.0175106
0.0181085
0.0191568
0.0193991
0.0193493
0.019294
0.0192433
0.0192196
0.0192064
0.0191975
0.0192
0.0191919
0.0191839
0.0191723
0.0191469
0.0191328
0.0191305
0.0191214
0.019115
0.0191057
0.0191082
0.0190987
0.019104
0.0190983
0.0191015
0.019095
0.019098
0.0191109
0.0191013
0.0191029
0.0191037
0.0190992
0.0190911
0.0191095
0.0190976
0.0191147
0.0191198
0.0191388
0.0191608
0.0191817
0.0192006
0.0192337
0.0192709
0.0193084
0.0193617
0.0194221
0.0194727
0.0195574
0.0196514
0.0197549
0.0198635
0.019978
0.0201393
0.0202961
)
;

boundaryField
{
    inlet
    {
        type            fixedValue;
        value           uniform 0;
    }
    outlet
    {
        type            zeroGradient;
    }
    yzfaces
    {
        type            empty;
    }
}


// ************************************************************************* //
