/*--------------------------------*- C++ -*----------------------------------*\
| =========                 |                                                 |
| \\      /  F ield         | foam-extend: Open Source CFD                    |
|  \\    /   O peration     | Version:     5.0                                |
|   \\  /    A nd           | Web:         http://www.foam-extend.org         |
|    \\/     M anipulation  |                                                 |
\*---------------------------------------------------------------------------*/
FoamFile
{
    version     2.0;
    format      ascii;
    class       volScalarField;
    location    "6";
    object      Ns;
}
// * * * * * * * * * * * * * * * * * * * * * * * * * * * * * * * * * * * * * //

dimensions      [0 -3 0 0 1 0 0];

internalField   nonuniform List<scalar> 
100
(
0.0321906
0.736055
2.40856
0.154055
2.17047
1.68219
0.722852
0.828337
0.575921
0.43987
0.0844663
1.06251
2.8632
1.05292
0.601859
1.63943
0.00476475
0.0556425
0.279965
0.442416
0.961287
0.32451
1.30666
1.27023
0.577094
1.21893
0.322224
1.67701
0.271493
0.413749
1.43031
0.268655
0.715577
1.46373
1.11762
0.601586
1.12451
1.51558
0.0692568
1.8613
2.17205
0.848074
1.35686
0.637247
3.29681
6.79344
13.0126
25.6571
56.8097
166.984
172.825
172.029
172.47
176.967
172.239
173.018
168.549
172.45
175.221
168.098
174.31
169.021
174.646
171.729
176.511
170.974
174.907
169.435
175.508
177.868
176.539
172.217
173.294
173.807
177.376
176.288
170.168
171.968
176.877
174.482
173.71
175.43
173.035
175.209
175.868
173.743
172.033
171.803
172.424
174.307
171.662
171.161
174.062
173.386
172.451
172.998
173.125
169.59
170.122
172.572
)
;

boundaryField
{
    inlet
    {
        type            fixedValue;
        value           uniform 0;
    }
    outlet
    {
        type            zeroGradient;
    }
    yzfaces
    {
        type            empty;
    }
}


// ************************************************************************* //
