/*--------------------------------*- C++ -*----------------------------------*\
| =========                 |                                                 |
| \\      /  F ield         | foam-extend: Open Source CFD                    |
|  \\    /   O peration     | Version:     5.0                                |
|   \\  /    A nd           | Web:         http://www.foam-extend.org         |
|    \\/     M anipulation  |                                                 |
\*---------------------------------------------------------------------------*/
FoamFile
{
    version     2.0;
    format      ascii;
    class       surfaceScalarField;
    location    "6";
    object      phi;
}
// * * * * * * * * * * * * * * * * * * * * * * * * * * * * * * * * * * * * * //

dimensions      [0 3 -1 0 0 0 0];

internalField   nonuniform List<scalar> 
99
(
1.22723e-06
1.23076e-06
1.22406e-06
1.22725e-06
1.22439e-06
1.22251e-06
1.22567e-06
1.2331e-06
1.23583e-06
1.23313e-06
1.24217e-06
1.23817e-06
1.24421e-06
1.24162e-06
1.23824e-06
1.2434e-06
1.24136e-06
1.24517e-06
1.25103e-06
1.25216e-06
1.2583e-06
1.25929e-06
1.25417e-06
1.25342e-06
1.26045e-06
1.26054e-06
1.26022e-06
1.25887e-06
1.26026e-06
1.2625e-06
1.26134e-06
1.26051e-06
1.26015e-06
1.25844e-06
1.25799e-06
1.25454e-06
1.25765e-06
1.25623e-06
1.25843e-06
1.25262e-06
1.25258e-06
1.25246e-06
1.25347e-06
1.2499e-06
1.25327e-06
1.25311e-06
1.25022e-06
1.24684e-06
1.23978e-06
1.25044e-06
1.25286e-06
1.2548e-06
1.25327e-06
1.2533e-06
1.25469e-06
1.25364e-06
1.25349e-06
1.25508e-06
1.25604e-06
1.25774e-06
1.25639e-06
1.2558e-06
1.25564e-06
1.25769e-06
1.2574e-06
1.25715e-06
1.25796e-06
1.25788e-06
1.25849e-06
1.25777e-06
1.25875e-06
1.25836e-06
1.25855e-06
1.26029e-06
1.261e-06
1.26227e-06
1.26311e-06
1.26379e-06
1.26266e-06
1.26454e-06
1.26389e-06
1.26356e-06
1.26405e-06
1.26403e-06
1.26585e-06
1.26729e-06
1.26675e-06
1.2671e-06
1.26686e-06
1.26575e-06
1.26583e-06
1.26712e-06
1.26484e-06
1.26376e-06
1.26456e-06
1.26663e-06
1.26686e-06
1.26563e-06
1.26532e-06
)
;

boundaryField
{
    inlet
    {
        type            calculated;
        value           uniform -1.225e-06;
    }
    outlet
    {
        type            calculated;
        value           uniform 1.26477e-06;
    }
    yzfaces
    {
        type            empty;
    }
}


// ************************************************************************* //
