/*--------------------------------*- C++ -*----------------------------------*\
| =========                 |                                                 |
| \\      /  F ield         | foam-extend: Open Source CFD                    |
|  \\    /   O peration     | Version:     5.0                                |
|   \\  /    A nd           | Web:         http://www.foam-extend.org         |
|    \\/     M anipulation  |                                                 |
\*---------------------------------------------------------------------------*/
FoamFile
{
    version     2.0;
    format      ascii;
    class       volVectorField;
    location    "6";
    object      U.gas;
}
// * * * * * * * * * * * * * * * * * * * * * * * * * * * * * * * * * * * * * //

dimensions      [0 1 -1 0 0 0 0];

internalField   nonuniform List<vector> 
100
(
(0.00620525 0 0)
(0.0068005 0 0)
(0.00719902 0 0)
(0.00755665 0 0)
(0.00785892 0 0)
(0.00816788 0 0)
(0.00845776 0 0)
(0.00874277 0 0)
(0.00898945 0 0)
(0.00923666 0 0)
(0.00943186 0 0)
(0.00966259 0 0)
(0.00981933 0 0)
(0.00999041 0 0)
(0.010172 0 0)
(0.010344 0 0)
(0.0105372 0 0)
(0.0107253 0 0)
(0.0109232 0 0)
(0.011043 0 0)
(0.0111468 0 0)
(0.011277 0 0)
(0.011371 0 0)
(0.0114633 0 0)
(0.0116145 0 0)
(0.0117466 0 0)
(0.0118512 0 0)
(0.0119276 0 0)
(0.0120351 0 0)
(0.0121454 0 0)
(0.012227 0 0)
(0.0123044 0 0)
(0.0123773 0 0)
(0.0124712 0 0)
(0.0125512 0 0)
(0.0126162 0 0)
(0.0127119 0 0)
(0.0128162 0 0)
(0.0129195 0 0)
(0.0129791 0 0)
(0.0130611 0 0)
(0.0131854 0 0)
(0.0133119 0 0)
(0.0134218 0 0)
(0.013592 0 0)
(0.0138074 0 0)
(0.0140341 0 0)
(0.0143397 0 0)
(0.0148641 0 0)
(0.012686 0 0)
(0.0123032 0 0)
(0.0123351 0 0)
(0.0124402 0 0)
(0.0125097 0 0)
(0.0125615 0 0)
(0.012588 0 0)
(0.0125939 0 0)
(0.012609 0 0)
(0.0126316 0 0)
(0.0126627 0 0)
(0.0126711 0 0)
(0.0126849 0 0)
(0.0127022 0 0)
(0.0127199 0 0)
(0.0127432 0 0)
(0.0127556 0 0)
(0.0127655 0 0)
(0.0127717 0 0)
(0.0127774 0 0)
(0.0127794 0 0)
(0.0127802 0 0)
(0.0127835 0 0)
(0.0127851 0 0)
(0.0127963 0 0)
(0.0127999 0 0)
(0.0128145 0 0)
(0.0128261 0 0)
(0.0128339 0 0)
(0.0128326 0 0)
(0.0128359 0 0)
(0.0128418 0 0)
(0.0128415 0 0)
(0.012827 0 0)
(0.0128231 0 0)
(0.0128227 0 0)
(0.0128188 0 0)
(0.0128014 0 0)
(0.0127707 0 0)
(0.0127273 0 0)
(0.0126746 0 0)
(0.01261 0 0)
(0.0125421 0 0)
(0.0124488 0 0)
(0.0123282 0 0)
(0.0121975 0 0)
(0.0120501 0 0)
(0.0118557 0 0)
(0.0116052 0 0)
(0.0112997 0 0)
(0.0109013 0 0)
)
;

boundaryField
{
    inlet
    {
        type            fixedValue;
        value           uniform (0.005 0 0);
    }
    outlet
    {
        type            zeroGradient;
    }
    yzfaces
    {
        type            empty;
    }
}


// ************************************************************************* //
