/*--------------------------------*- C++ -*----------------------------------*\
| =========                 |                                                 |
| \\      /  F ield         | foam-extend: Open Source CFD                    |
|  \\    /   O peration     | Version:     5.0                                |
|   \\  /    A nd           | Web:         http://www.foam-extend.org         |
|    \\/     M anipulation  |                                                 |
\*---------------------------------------------------------------------------*/
FoamFile
{
    version     2.0;
    format      ascii;
    class       volVectorField;
    location    "6";
    object      U.water;
}
// * * * * * * * * * * * * * * * * * * * * * * * * * * * * * * * * * * * * * //

dimensions      [0 1 -1 0 0 0 0];

internalField   nonuniform List<vector> 
100
(
(4.24596e-05 0 0)
(0.000101196 0 0)
(0.000152103 0 0)
(0.000196409 0 0)
(0.000238986 0 0)
(0.000280082 0 0)
(0.000325176 0 0)
(0.000369289 0 0)
(0.00041041 0 0)
(0.000449415 0 0)
(0.000491082 0 0)
(0.000528093 0 0)
(0.000566504 0 0)
(0.000599508 0 0)
(0.000635374 0 0)
(0.000679183 0 0)
(0.000720874 0 0)
(0.00076538 0 0)
(0.000813796 0 0)
(0.000854418 0 0)
(0.00088339 0 0)
(0.000910444 0 0)
(0.000938496 0 0)
(0.000970344 0 0)
(0.00101024 0 0)
(0.00105033 0 0)
(0.00108538 0 0)
(0.00111925 0 0)
(0.00115376 0 0)
(0.00119327 0 0)
(0.001229 0 0)
(0.00126159 0 0)
(0.00129564 0 0)
(0.00133191 0 0)
(0.00137326 0 0)
(0.00141324 0 0)
(0.0014567 0 0)
(0.00150554 0 0)
(0.00155708 0 0)
(0.00160665 0 0)
(0.00165782 0 0)
(0.00172408 0 0)
(0.00180231 0 0)
(0.00188848 0 0)
(0.00199555 0 0)
(0.00214093 0 0)
(0.00233372 0 0)
(0.00262527 0 0)
(0.00315141 0 0)
(0.00366854 0 0)
(0.00376028 0 0)
(0.00373961 0 0)
(0.00370201 0 0)
(0.00367368 0 0)
(0.00366067 0 0)
(0.00365261 0 0)
(0.00364553 0 0)
(0.0036425 0 0)
(0.0036391 0 0)
(0.00363485 0 0)
(0.00362659 0 0)
(0.0036134 0 0)
(0.00360474 0 0)
(0.00360149 0 0)
(0.00359769 0 0)
(0.00359177 0 0)
(0.0035898 0 0)
(0.00358924 0 0)
(0.00358872 0 0)
(0.00358799 0 0)
(0.00358832 0 0)
(0.00358873 0 0)
(0.00358811 0 0)
(0.0035921 0 0)
(0.00359658 0 0)
(0.0035985 0 0)
(0.00360114 0 0)
(0.00360267 0 0)
(0.00360216 0 0)
(0.00360432 0 0)
(0.00360728 0 0)
(0.00360952 0 0)
(0.00361671 0 0)
(0.00362431 0 0)
(0.00363686 0 0)
(0.00365491 0 0)
(0.00367253 0 0)
(0.00369323 0 0)
(0.00371848 0 0)
(0.00374502 0 0)
(0.00377749 0 0)
(0.00381906 0 0)
(0.00386238 0 0)
(0.00390866 0 0)
(0.00396797 0 0)
(0.00404165 0 0)
(0.0041238 0 0)
(0.00420899 0 0)
(0.00430353 0 0)
(0.00441132 0 0)
)
;

boundaryField
{
    inlet
    {
        type            fixedValue;
        value           uniform (0 0 0);
    }
    outlet
    {
        type            zeroGradient;
    }
    yzfaces
    {
        type            empty;
    }
}


// ************************************************************************* //
