/*--------------------------------*- C++ -*----------------------------------*\
| =========                 |                                                 |
| \\      /  F ield         | foam-extend: Open Source CFD                    |
|  \\    /   O peration     | Version:     5.0                                |
|   \\  /    A nd           | Web:         http://www.foam-extend.org         |
|    \\/     M anipulation  |                                                 |
\*---------------------------------------------------------------------------*/
FoamFile
{
    version     2.0;
    format      ascii;
    class       volScalarField;
    location    "0.303691";
    object      alpha.gas;
}
// * * * * * * * * * * * * * * * * * * * * * * * * * * * * * * * * * * * * * //

dimensions      [0 0 0 0 0 0 0];

internalField   nonuniform List<scalar> 
100
(
0.0706003
0.0550079
0.046124
0.0394482
0.0338499
0.0288584
0.0243628
0.0203302
0.0169356
0.0143055
0.0124724
0.0113334
0.0106864
0.010345
0.010171
0.0100842
0.0100416
0.01002
0.0100084
0.0100026
0.00999963
0.00999849
0.00999813
0.0100003
0.0099999
0.00999966
0.00999955
0.00999881
0.00999888
0.0100002
0.0100031
0.0100034
0.00999962
0.00999843
0.00999845
0.00999845
0.0099995
0.0100006
0.0100002
0.0100008
0.00999948
0.00999837
0.0099982
0.0099977
0.0099987
0.00999965
0.00999987
0.00999898
0.00999895
0.00999766
0.0099993
0.00999878
0.00999897
0.00999965
0.00999952
0.0100013
0.0100014
0.0100005
0.0100016
0.00999969
0.0100015
0.0100002
0.0100006
0.0100002
0.0100001
0.00999992
0.0100003
0.00999952
0.00999881
0.0100003
0.0100008
0.0099996
0.0100001
0.00999943
0.00999921
0.00999951
0.0100015
0.0100011
0.00999946
0.00999974
0.010001
0.0100012
0.0100017
0.0100009
0.010001
0.00999877
0.00999901
0.00999753
0.00999773
0.00999734
0.00999585
0.00999731
0.0100002
0.0100002
0.00999963
0.00999987
0.0100001
0.00999967
0.00999985
0.0100017
)
;

boundaryField
{
    inlet
    {
        type            fixedValue;
        value           uniform 0.2;
    }
    outlet
    {
        type            zeroGradient;
    }
    yzfaces
    {
        type            empty;
    }
}


// ************************************************************************* //
