/*--------------------------------*- C++ -*----------------------------------*\
| =========                 |                                                 |
| \\      /  F ield         | foam-extend: Open Source CFD                    |
|  \\    /   O peration     | Version:     5.0                                |
|   \\  /    A nd           | Web:         http://www.foam-extend.org         |
|    \\/     M anipulation  |                                                 |
\*---------------------------------------------------------------------------*/
FoamFile
{
    version     2.0;
    format      ascii;
    class       volScalarField;
    location    "0.303691";
    object      Cl.water;
}
// * * * * * * * * * * * * * * * * * * * * * * * * * * * * * * * * * * * * * //

dimensions      [0 0 0 0 0 0 0];

internalField   nonuniform List<scalar> 
100
(
0
0.0125929
0.0171888
0.0190056
0.0199567
0.0206843
0.0212301
0.0217676
0.0221583
0.0224914
0.0226979
0.0228146
0.022925
0.0229481
0.0229778
0.0230054
0.0229976
0.0230093
0.0230022
0.0229936
0.0229907
0.0229973
0.0229952
0.0229965
0.0230052
0.0230018
0.0229775
0.0230022
0.0229962
0.0229928
0.0229779
0.0230065
0.0230049
0.0230053
0.0230005
0.0230041
0.0230062
0.0229902
0.0230064
0.0229739
0.023005
0.0229946
0.022995
0.0229959
0.0229951
0.0229983
0.0229823
0.0230163
0.0229894
0.0230178
0.0230014
0.0230053
0.0229958
0.0230114
0.023005
0.0230038
0.0230078
0.0229834
0.0230013
0.0229753
0.0229917
0.0229879
0.0230243
0.02298
0.0229915
0.0230093
0.0230093
0.0229995
0.0230299
0.0229801
0.0230002
0.0229931
0.0230083
0.0230056
0.0229975
0.0230222
0.0230029
0.02299
0.0230168
0.0229929
0.0230087
0.0229946
0.0230027
0.0229788
0.0230035
0.0229909
0.0230025
0.0230016
0.0229844
0.023003
0.022999
0.0229813
0.0229758
0.0230058
0.0230144
0.0230312
0.0230023
0.0230248
0.0229991
0.0229999
)
;

boundaryField
{
    inlet
    {
        type            fixedValue;
        value           uniform 0;
    }
    outlet
    {
        type            zeroGradient;
    }
    yzfaces
    {
        type            empty;
    }
}


// ************************************************************************* //
