/*--------------------------------*- C++ -*----------------------------------*\
| =========                 |                                                 |
| \\      /  F ield         | foam-extend: Open Source CFD                    |
|  \\    /   O peration     | Version:     5.0                                |
|   \\  /    A nd           | Web:         http://www.foam-extend.org         |
|    \\/     M anipulation  |                                                 |
\*---------------------------------------------------------------------------*/
FoamFile
{
    version     2.0;
    format      ascii;
    class       volScalarField;
    location    "0.303691";
    object      H2O.gas;
}
// * * * * * * * * * * * * * * * * * * * * * * * * * * * * * * * * * * * * * //

dimensions      [0 0 0 0 0 0 0];

internalField   nonuniform List<scalar> 
100
(
3.60249e-06
0.00106201
0.00290122
0.00522919
0.00773464
0.0101007
0.011913
0.0129378
0.0130569
0.0125543
0.0117769
0.0110786
0.0106119
0.0103159
0.0101589
0.0100838
0.0100382
0.0100248
0.0100104
0.0100024
0.0099993
0.0099997
0.00999809
0.0100006
0.0100022
0.00999928
0.00998984
0.0100026
0.00999779
0.00999826
0.00999285
0.0100065
0.0100023
0.0100032
0.00999886
0.00999939
0.0100016
0.00999553
0.0100022
0.00998845
0.00999976
0.00999594
0.00999753
0.00999827
0.00999767
0.0099972
0.00998958
0.0100024
0.00999125
0.0100046
0.0100008
0.0100025
0.00999882
0.0100042
0.0100003
0.0100017
0.0100034
0.00999458
0.010004
0.00999146
0.00999894
0.00999622
0.0100116
0.00999257
0.00999755
0.0100032
0.0100038
0.00999647
0.0100099
0.00999076
0.0100003
0.00999716
0.010006
0.0100039
0.0100006
0.0100102
0.0100028
0.00999927
0.0100069
0.00999414
0.0100018
0.00999606
0.0100023
0.00999055
0.0100011
0.00999359
0.00999991
0.00999895
0.00999173
0.00999984
0.00999618
0.00999012
0.00999172
0.0100026
0.0100036
0.0100094
0.00999753
0.0100083
0.0100019
0.00999773
)
;

boundaryField
{
    inlet
    {
        type            fixedValue;
        value           uniform 0;
    }
    outlet
    {
        type            zeroGradient;
    }
    yzfaces
    {
        type            empty;
    }
}


// ************************************************************************* //
