/*--------------------------------*- C++ -*----------------------------------*\
| =========                 |                                                 |
| \\      /  F ield         | foam-extend: Open Source CFD                    |
|  \\    /   O peration     | Version:     5.0                                |
|   \\  /    A nd           | Web:         http://www.foam-extend.org         |
|    \\/     M anipulation  |                                                 |
\*---------------------------------------------------------------------------*/
FoamFile
{
    version     2.0;
    format      ascii;
    class       volScalarField;
    location    "0.303691";
    object      Na.water;
}
// * * * * * * * * * * * * * * * * * * * * * * * * * * * * * * * * * * * * * //

dimensions      [0 0 0 0 0 0 0];

internalField   nonuniform List<scalar> 
100
(
0
0.0125938
0.0171838
0.0190104
0.0199635
0.020691
0.0212289
0.021759
0.0221536
0.022497
0.0227014
0.0228118
0.0229277
0.0229527
0.0229697
0.022994
0.0229893
0.0230095
0.0230001
0.0229981
0.0229976
0.023
0.022995
0.0229985
0.0230101
0.0230051
0.0229823
0.0230079
0.0229917
0.0229948
0.0229793
0.0230114
0.0230027
0.0230074
0.0229976
0.022998
0.0230007
0.0229823
0.0229949
0.0229678
0.022999
0.0229955
0.0229942
0.0230018
0.0229973
0.0229945
0.0229762
0.0230119
0.0229854
0.0230165
0.0230007
0.0230091
0.0230004
0.0230043
0.0229977
0.0229987
0.0230068
0.0229921
0.0230034
0.0229736
0.0229912
0.0229814
0.023024
0.0229832
0.0229912
0.0230035
0.0229955
0.0229907
0.0230297
0.02298
0.0230011
0.022992
0.0230045
0.0230034
0.0230024
0.0230244
0.0230079
0.0230067
0.0230214
0.0229974
0.0230052
0.0229884
0.022999
0.0229708
0.0230043
0.0229921
0.0230027
0.0229982
0.0229804
0.0230007
0.0229957
0.022987
0.0229786
0.0230093
0.0230147
0.0230289
0.0229913
0.0230195
0.0230059
0.0230024
)
;

boundaryField
{
    inlet
    {
        type            fixedValue;
        value           uniform 0;
    }
    outlet
    {
        type            zeroGradient;
    }
    yzfaces
    {
        type            empty;
    }
}


// ************************************************************************* //
