/*--------------------------------*- C++ -*----------------------------------*\
| =========                 |                                                 |
| \\      /  F ield         | foam-extend: Open Source CFD                    |
|  \\    /   O peration     | Version:     5.0                                |
|   \\  /    A nd           | Web:         http://www.foam-extend.org         |
|    \\/     M anipulation  |                                                 |
\*---------------------------------------------------------------------------*/
FoamFile
{
    version     2.0;
    format      ascii;
    class       surfaceScalarField;
    location    "0.303691";
    object      phi;
}
// * * * * * * * * * * * * * * * * * * * * * * * * * * * * * * * * * * * * * //

dimensions      [0 3 -1 0 0 0 0];

internalField   nonuniform List<scalar> 
99
(
1.21694e-06
1.22025e-06
1.22212e-06
1.22361e-06
1.22548e-06
1.22588e-06
1.22544e-06
1.22643e-06
1.22818e-06
1.22827e-06
1.22652e-06
1.2262e-06
1.22834e-06
1.22748e-06
1.22808e-06
1.22728e-06
1.22933e-06
1.2282e-06
1.22879e-06
1.22763e-06
1.22614e-06
1.22664e-06
1.22683e-06
1.22652e-06
1.22575e-06
1.22234e-06
1.22409e-06
1.22545e-06
1.2239e-06
1.22461e-06
1.22647e-06
1.22675e-06
1.22604e-06
1.2277e-06
1.22626e-06
1.22713e-06
1.22846e-06
1.22875e-06
1.22971e-06
1.22887e-06
1.23153e-06
1.22926e-06
1.23144e-06
1.23259e-06
1.23247e-06
1.23322e-06
1.23475e-06
1.23465e-06
1.23497e-06
1.23673e-06
1.23541e-06
1.2349e-06
1.23531e-06
1.23462e-06
1.23236e-06
1.23307e-06
1.23287e-06
1.23209e-06
1.23412e-06
1.23434e-06
1.23602e-06
1.23384e-06
1.23357e-06
1.2341e-06
1.2341e-06
1.23323e-06
1.23407e-06
1.23375e-06
1.23237e-06
1.232e-06
1.23381e-06
1.23344e-06
1.23241e-06
1.23268e-06
1.23432e-06
1.23515e-06
1.23339e-06
1.23161e-06
1.23301e-06
1.23279e-06
1.23144e-06
1.23163e-06
1.23291e-06
1.23199e-06
1.2347e-06
1.23529e-06
1.23594e-06
1.23666e-06
1.23784e-06
1.23872e-06
1.23702e-06
1.23915e-06
1.24009e-06
1.24313e-06
1.24216e-06
1.23968e-06
1.24081e-06
1.24234e-06
1.24124e-06
)
;

boundaryField
{
    inlet
    {
        type            calculated;
        value           uniform -1.225e-06;
    }
    outlet
    {
        type            calculated;
        value           uniform 1.24198e-06;
    }
    yzfaces
    {
        type            empty;
    }
}


// ************************************************************************* //
