/*--------------------------------*- C++ -*----------------------------------*\
| =========                 |                                                 |
| \\      /  F ield         | foam-extend: Open Source CFD                    |
|  \\    /   O peration     | Version:     5.0                                |
|   \\  /    A nd           | Web:         http://www.foam-extend.org         |
|    \\/     M anipulation  |                                                 |
\*---------------------------------------------------------------------------*/
FoamFile
{
    version     2.0;
    format      ascii;
    class       surfaceScalarField;
    location    "0.303691";
    object      phi.water;
}
// * * * * * * * * * * * * * * * * * * * * * * * * * * * * * * * * * * * * * //

dimensions      [0 3 -1 0 0 0 0];

internalField   nonuniform List<scalar> 
99
(
1.42803e-06
2.31767e-06
3.01578e-06
3.6367e-06
4.20109e-06
4.71372e-06
5.15326e-06
5.51627e-06
5.78714e-06
5.95758e-06
6.05328e-06
6.10294e-06
6.13899e-06
6.15051e-06
6.15809e-06
6.15652e-06
6.16721e-06
6.16082e-06
6.16578e-06
6.16089e-06
6.15314e-06
6.15548e-06
6.15688e-06
6.15445e-06
6.15084e-06
6.13746e-06
6.14494e-06
6.14912e-06
6.14308e-06
6.14948e-06
6.15715e-06
6.15452e-06
6.15062e-06
6.15968e-06
6.15361e-06
6.15745e-06
6.16596e-06
6.16744e-06
6.17451e-06
6.17072e-06
6.18104e-06
6.17008e-06
6.18009e-06
6.18599e-06
6.18625e-06
6.19286e-06
6.19872e-06
6.19746e-06
6.19792e-06
6.20406e-06
6.19837e-06
6.19626e-06
6.19807e-06
6.19432e-06
6.18433e-06
6.18734e-06
6.18832e-06
6.1843e-06
6.19512e-06
6.19794e-06
6.20485e-06
6.18985e-06
6.18962e-06
6.19651e-06
6.19309e-06
6.18689e-06
6.19299e-06
6.18908e-06
6.18427e-06
6.18591e-06
6.1927e-06
6.18905e-06
6.18161e-06
6.18435e-06
6.19073e-06
6.19488e-06
6.18986e-06
6.17908e-06
6.18726e-06
6.18822e-06
6.18133e-06
6.18236e-06
6.19036e-06
6.18582e-06
6.19786e-06
6.20065e-06
6.2019e-06
6.20759e-06
6.21329e-06
6.21572e-06
6.21026e-06
6.22365e-06
6.22527e-06
6.23664e-06
6.22952e-06
6.21904e-06
6.22504e-06
6.23128e-06
6.2298e-06
)
;

boundaryField
{
    inlet
    {
        type            fixedValue;
        value           uniform 0;
    }
    outlet
    {
        type            calculated;
        value           uniform 6.23543e-06;
    }
    yzfaces
    {
        type            empty;
    }
}


// ************************************************************************* //
