/*--------------------------------*- C++ -*----------------------------------*\
| =========                 |                                                 |
| \\      /  F ield         | foam-extend: Open Source CFD                    |
|  \\    /   O peration     | Version:     5.0                                |
|   \\  /    A nd           | Web:         http://www.foam-extend.org         |
|    \\/     M anipulation  |                                                 |
\*---------------------------------------------------------------------------*/
FoamFile
{
    version     2.0;
    format      ascii;
    class       volScalarField;
    location    "0.303691";
    object      S.gas;
}
// * * * * * * * * * * * * * * * * * * * * * * * * * * * * * * * * * * * * * //

dimensions      [0 0 0 0 0 0 0];

internalField   nonuniform List<scalar> 
100
(
0.353002
0.275039
0.23062
0.197241
0.169249
0.144292
0.121814
0.101651
0.0846778
0.0715275
0.0623618
0.056667
0.0534321
0.0517248
0.0508548
0.050421
0.0502081
0.0500998
0.0500422
0.0500132
0.0499982
0.0499924
0.0499907
0.0500016
0.0499995
0.0499983
0.0499978
0.0499941
0.0499944
0.0500009
0.0500154
0.050017
0.0499981
0.0499922
0.0499922
0.0499922
0.0499975
0.0500029
0.0500011
0.0500042
0.0499974
0.0499918
0.049991
0.0499885
0.0499935
0.0499982
0.0499994
0.0499949
0.0499947
0.0499883
0.0499965
0.0499939
0.0499949
0.0499982
0.0499976
0.0500067
0.0500068
0.0500026
0.0500078
0.0499985
0.0500074
0.050001
0.0500029
0.0500011
0.0500005
0.0499996
0.0500016
0.0499976
0.0499941
0.0500015
0.0500038
0.049998
0.0500005
0.0499971
0.049996
0.0499976
0.0500075
0.0500056
0.0499973
0.0499987
0.0500051
0.0500062
0.0500086
0.0500046
0.0500049
0.0499938
0.049995
0.0499877
0.0499886
0.0499867
0.0499792
0.0499865
0.0500009
0.0500008
0.0499981
0.0499993
0.0500005
0.0499984
0.0499992
0.0500087
)
;

boundaryField
{
    inlet
    {
        type            calculated;
        value           uniform 1;
    }
    outlet
    {
        type            calculated;
        value           uniform 0.0500087;
    }
    yzfaces
    {
        type            empty;
    }
}


// ************************************************************************* //
