/*--------------------------------*- C++ -*----------------------------------*\
| =========                 |                                                 |
| \\      /  F ield         | foam-extend: Open Source CFD                    |
|  \\    /   O peration     | Version:     5.0                                |
|   \\  /    A nd           | Web:         http://www.foam-extend.org         |
|    \\/     M anipulation  |                                                 |
\*---------------------------------------------------------------------------*/
FoamFile
{
    version     2.0;
    format      ascii;
    class       volVectorField;
    location    "0.303691";
    object      U.gas;
}
// * * * * * * * * * * * * * * * * * * * * * * * * * * * * * * * * * * * * * //

dimensions      [0 1 -1 0 0 0 0];

internalField   nonuniform List<vector> 
100
(
(0.0129909 0 0)
(0.0140762 0 0)
(0.0143683 0 0)
(0.0142687 0 0)
(0.0138401 0 0)
(0.0131007 0 0)
(0.0120421 0 0)
(0.0107512 0 0)
(0.00931101 0 0)
(0.00790182 0 0)
(0.00670047 0 0)
(0.00582681 0 0)
(0.00528713 0 0)
(0.00498275 0 0)
(0.00482081 0 0)
(0.00473872 0 0)
(0.00470083 0 0)
(0.00468239 0 0)
(0.00467126 0 0)
(0.00466489 0 0)
(0.00465654 0 0)
(0.00465361 0 0)
(0.00465478 0 0)
(0.00465419 0 0)
(0.00465312 0 0)
(0.00464447 0 0)
(0.00464103 0 0)
(0.00464712 0 0)
(0.00464688 0 0)
(0.00464528 0 0)
(0.00465061 0 0)
(0.00465615 0 0)
(0.00465516 0 0)
(0.00465481 0 0)
(0.00465497 0 0)
(0.00465417 0 0)
(0.00465836 0 0)
(0.0046619 0 0)
(0.00466471 0 0)
(0.00466544 0 0)
(0.0046696 0 0)
(0.0046686 0 0)
(0.00466723 0 0)
(0.0046737 0 0)
(0.00467592 0 0)
(0.00467807 0 0)
(0.00468242 0 0)
(0.00468491 0 0)
(0.00468539 0 0)
(0.00468931 0 0)
(0.00468866 0 0)
(0.00468602 0 0)
(0.00468609 0 0)
(0.00468539 0 0)
(0.00468023 0 0)
(0.00467789 0 0)
(0.00467967 0 0)
(0.0046778 0 0)
(0.00468016 0 0)
(0.00468428 0 0)
(0.00468701 0 0)
(0.00468715 0 0)
(0.00468133 0 0)
(0.00468182 0 0)
(0.00468285 0 0)
(0.00468119 0 0)
(0.00468143 0 0)
(0.00468299 0 0)
(0.00467899 0 0)
(0.00467515 0 0)
(0.00467893 0 0)
(0.00468155 0 0)
(0.00467826 0 0)
(0.00467773 0 0)
(0.00468088 0 0)
(0.00468532 0 0)
(0.00468376 0 0)
(0.00467759 0 0)
(0.00467716 0 0)
(0.00467908 0 0)
(0.00467542 0 0)
(0.00467356 0 0)
(0.00467663 0 0)
(0.00467799 0 0)
(0.00468118 0 0)
(0.00468707 0 0)
(0.00468808 0 0)
(0.00469149 0 0)
(0.00469445 0 0)
(0.00469743 0 0)
(0.00469584 0 0)
(0.00469634 0 0)
(0.00470281 0 0)
(0.00471158 0 0)
(0.00471621 0 0)
(0.00471037 0 0)
(0.00470781 0 0)
(0.00471269 0 0)
(0.00471289 0 0)
(0.00471096 0 0)
)
;

boundaryField
{
    inlet
    {
        type            fixedValue;
        value           uniform (0.005 0 0);
    }
    outlet
    {
        type            zeroGradient;
    }
    yzfaces
    {
        type            empty;
    }
}


// ************************************************************************* //
