/*--------------------------------*- C++ -*----------------------------------*\
| =========                 |                                                 |
| \\      /  F ield         | foam-extend: Open Source CFD                    |
|  \\    /   O peration     | Version:     5.0                                |
|   \\  /    A nd           | Web:         http://www.foam-extend.org         |
|    \\/     M anipulation  |                                                 |
\*---------------------------------------------------------------------------*/
FoamFile
{
    version     2.0;
    format      ascii;
    class       volVectorField;
    location    "0.303691";
    object      U.water;
}
// * * * * * * * * * * * * * * * * * * * * * * * * * * * * * * * * * * * * * //

dimensions      [0 1 -1 0 0 0 0];

internalField   nonuniform List<vector> 
100
(
(0.000614739 0 0)
(0.00152055 0 0)
(0.00217162 0 0)
(0.00271179 0 0)
(0.00319678 0 0)
(0.00363728 0 0)
(0.00402626 0 0)
(0.00435349 0 0)
(0.00461145 0 0)
(0.00479062 0 0)
(0.00489734 0 0)
(0.00495623 0 0)
(0.00499359 0 0)
(0.00501347 0 0)
(0.00502155 0 0)
(0.0050254 0 0)
(0.00503002 0 0)
(0.00503293 0 0)
(0.00503234 0 0)
(0.00503143 0 0)
(0.00502617 0 0)
(0.00502419 0 0)
(0.00502562 0 0)
(0.00502541 0 0)
(0.00502313 0 0)
(0.0050146 0 0)
(0.00501122 0 0)
(0.00501757 0 0)
(0.00501717 0 0)
(0.00501546 0 0)
(0.00502072 0 0)
(0.00502503 0 0)
(0.00502415 0 0)
(0.00502619 0 0)
(0.00502666 0 0)
(0.00502547 0 0)
(0.00502998 0 0)
(0.00503328 0 0)
(0.00503581 0 0)
(0.00503604 0 0)
(0.00503974 0 0)
(0.0050406 0 0)
(0.00504049 0 0)
(0.0050473 0 0)
(0.0050494 0 0)
(0.00505065 0 0)
(0.00505532 0 0)
(0.00505825 0 0)
(0.00505871 0 0)
(0.00506297 0 0)
(0.00506395 0 0)
(0.00506014 0 0)
(0.00505992 0 0)
(0.00505936 0 0)
(0.00505331 0 0)
(0.00505011 0 0)
(0.0050511 0 0)
(0.00504911 0 0)
(0.00505168 0 0)
(0.00505628 0 0)
(0.0050602 0 0)
(0.00505911 0 0)
(0.00505416 0 0)
(0.0050547 0 0)
(0.00505579 0 0)
(0.005054 0 0)
(0.00505393 0 0)
(0.00505496 0 0)
(0.00505153 0 0)
(0.00504798 0 0)
(0.00505087 0 0)
(0.00505383 0 0)
(0.005051 0 0)
(0.00504938 0 0)
(0.00505332 0 0)
(0.0050584 0 0)
(0.00505648 0 0)
(0.0050492 0 0)
(0.0050484 0 0)
(0.00505084 0 0)
(0.00504765 0 0)
(0.00504526 0 0)
(0.00504827 0 0)
(0.00504895 0 0)
(0.00505263 0 0)
(0.00505941 0 0)
(0.00506203 0 0)
(0.0050648 0 0)
(0.00506873 0 0)
(0.00507299 0 0)
(0.0050713 0 0)
(0.0050722 0 0)
(0.00507846 0 0)
(0.00508654 0 0)
(0.00509075 0 0)
(0.00508365 0 0)
(0.00508088 0 0)
(0.00508635 0 0)
(0.00508726 0 0)
(0.00508659 0 0)
)
;

boundaryField
{
    inlet
    {
        type            fixedValue;
        value           uniform (0 0 0);
    }
    outlet
    {
        type            zeroGradient;
    }
    yzfaces
    {
        type            empty;
    }
}


// ************************************************************************* //
