/*--------------------------------*- C++ -*----------------------------------*\
| =========                 |                                                 |
| \\      /  F ield         | foam-extend: Open Source CFD                    |
|  \\    /   O peration     | Version:     5.0                                |
|   \\  /    A nd           | Web:         http://www.foam-extend.org         |
|    \\/     M anipulation  |                                                 |
\*---------------------------------------------------------------------------*/
FoamFile
{
    version     2.0;
    format      ascii;
    class       volScalarField;
    location    "10";
    object      alpha.gas;
}
// * * * * * * * * * * * * * * * * * * * * * * * * * * * * * * * * * * * * * //

dimensions      [0 0 0 0 0 0 0];

internalField   nonuniform List<scalar> 
100
(
0.170018
0.157999
0.149242
0.142536
0.137107
0.132494
0.128104
0.124402
0.121303
0.119108
0.11707
0.11452
0.11234
0.110302
0.108365
0.106682
0.104957
0.103379
0.101878
0.100345
0.0992301
0.0977585
0.0965041
0.0952613
0.0939578
0.0929633
0.0920018
0.0908682
0.0896085
0.0885105
0.0875246
0.0864418
0.0856008
0.084494
0.0835423
0.0824484
0.0817963
0.0809702
0.0802769
0.0796818
0.0790692
0.0785705
0.0781188
0.0776038
0.0769261
0.076374
0.0757824
0.0753858
0.075087
0.0746925
0.0741341
0.0736251
0.0731016
0.0725188
0.0720199
0.0715614
0.0709937
0.0706071
0.0701823
0.0698737
0.0695079
0.0690625
0.0686016
0.0681652
0.0677059
0.0672267
0.0667679
0.0663073
0.0657736
0.0652608
0.06491
0.0645626
0.0640809
0.0638106
0.0635496
0.0633053
0.06298
0.0626105
0.0622588
0.0619688
0.0615431
0.0611127
0.060696
0.0601974
0.0597055
0.0592254
0.0588236
0.058456
0.0581764
0.0579605
0.0577205
0.0574675
0.0571013
0.0566767
0.0563267
0.0559703
0.0556087
0.0553056
0.0550386
0.054697
)
;

boundaryField
{
    inlet
    {
        type            fixedValue;
        value           uniform 0.2;
    }
    outlet
    {
        type            zeroGradient;
    }
    yzfaces
    {
        type            empty;
    }
}


// ************************************************************************* //
