/*--------------------------------*- C++ -*----------------------------------*\
| =========                 |                                                 |
| \\      /  F ield         | foam-extend: Open Source CFD                    |
|  \\    /   O peration     | Version:     5.0                                |
|   \\  /    A nd           | Web:         http://www.foam-extend.org         |
|    \\/     M anipulation  |                                                 |
\*---------------------------------------------------------------------------*/
FoamFile
{
    version     2.0;
    format      ascii;
    class       volScalarField;
    location    "10";
    object      Cl.water;
}
// * * * * * * * * * * * * * * * * * * * * * * * * * * * * * * * * * * * * * //

dimensions      [0 0 0 0 0 0 0];

internalField   nonuniform List<scalar> 
100
(
0.00627945
0.00878345
0.0105734
0.0120057
0.0131639
0.0140934
0.0149472
0.0157319
0.0165004
0.0171031
0.0175785
0.0180646
0.0185243
0.0189313
0.019355
0.0197069
0.0200206
0.0203453
0.0206602
0.0209955
0.0212885
0.0215703
0.0218614
0.0220899
0.0223445
0.0225802
0.02277
0.0229848
0.0231797
0.0234191
0.0236317
0.023847
0.0240168
0.0241726
0.0244111
0.0246042
0.0247836
0.0249211
0.0251172
0.0252578
0.0254152
0.0255438
0.02567
0.0257838
0.0259266
0.0260519
0.0261756
0.0262974
0.0263827
0.0264723
0.0265296
0.026658
0.0267691
0.0268722
0.0269726
0.0270713
0.0271668
0.0272609
0.0273556
0.0274524
0.0275072
0.0276179
0.0276747
0.0277441
0.0278604
0.0279689
0.028073
0.0281465
0.0282538
0.0284047
0.0285064
0.0285739
0.028618
0.0287169
0.0287532
0.0288042
0.0288561
0.0289035
0.0289889
0.0290705
0.029131
0.029226
0.0293189
0.0293933
0.029497
0.0296269
0.0297111
0.0298223
0.0298797
0.0299483
0.0299908
0.0300458
0.0300836
0.0301563
0.0302976
0.0303581
0.0304434
0.0304994
0.0305381
0.0305604
)
;

boundaryField
{
    inlet
    {
        type            fixedValue;
        value           uniform 0;
    }
    outlet
    {
        type            zeroGradient;
    }
    yzfaces
    {
        type            empty;
    }
}


// ************************************************************************* //
