/*--------------------------------*- C++ -*----------------------------------*\
| =========                 |                                                 |
| \\      /  F ield         | foam-extend: Open Source CFD                    |
|  \\    /   O peration     | Version:     5.0                                |
|   \\  /    A nd           | Web:         http://www.foam-extend.org         |
|    \\/     M anipulation  |                                                 |
\*---------------------------------------------------------------------------*/
FoamFile
{
    version     2.0;
    format      ascii;
    class       volScalarField;
    location    "10";
    object      CO2.gas;
}
// * * * * * * * * * * * * * * * * * * * * * * * * * * * * * * * * * * * * * //

dimensions      [0 0 0 0 0 0 0];

internalField   nonuniform List<scalar> 
100
(
0.169133
0.15697
0.147743
0.141542
0.136303
0.131395
0.126447
0.122959
0.12088
0.119731
0.117968
0.114976
0.112795
0.110592
0.108758
0.107042
0.105058
0.10346
0.101956
0.100427
0.0995087
0.0979244
0.0967869
0.0953514
0.0939693
0.0930755
0.0920921
0.0908718
0.0893449
0.0883302
0.0873887
0.0862674
0.0854344
0.0840518
0.0832341
0.0820196
0.081516
0.080573
0.0800752
0.0795097
0.0789503
0.0785145
0.0781672
0.0776838
0.0769807
0.0764472
0.0758485
0.0755468
0.0753306
0.0749763
0.0742151
0.0737712
0.0732432
0.0726172
0.0720996
0.0716421
0.0710337
0.0706748
0.0702663
0.0700448
0.0696088
0.0691968
0.0686271
0.0681648
0.0677443
0.0672733
0.0668221
0.0663301
0.0657728
0.0653388
0.0650315
0.0646728
0.0640861
0.0638994
0.0635801
0.0633584
0.0629875
0.0625637
0.0622276
0.0619712
0.0614978
0.0610788
0.0606862
0.0601132
0.0596103
0.059172
0.0587736
0.0584784
0.0582096
0.0580362
0.0577676
0.0574935
0.0570408
0.0565669
0.0563293
0.0559499
0.0555824
0.055241
0.0549079
0.0544375
)
;

boundaryField
{
    inlet
    {
        type            fixedValue;
        value           uniform 0.2;
    }
    outlet
    {
        type            zeroGradient;
    }
    yzfaces
    {
        type            empty;
    }
}


// ************************************************************************* //
