/*--------------------------------*- C++ -*----------------------------------*\
| =========                 |                                                 |
| \\      /  F ield         | foam-extend: Open Source CFD                    |
|  \\    /   O peration     | Version:     5.0                                |
|   \\  /    A nd           | Web:         http://www.foam-extend.org         |
|    \\/     M anipulation  |                                                 |
\*---------------------------------------------------------------------------*/
FoamFile
{
    version     2.0;
    format      ascii;
    class       volScalarField;
    location    "10";
    object      H2O.water;
}
// * * * * * * * * * * * * * * * * * * * * * * * * * * * * * * * * * * * * * //

dimensions      [0 0 0 0 0 0 0];

internalField   nonuniform List<scalar> 
100
(
0.0172679
0.0241585
0.0290932
0.0330446
0.0361931
0.0387581
0.0410757
0.0432522
0.0454068
0.0470787
0.0483835
0.049682
0.0509523
0.0520653
0.0532537
0.0542186
0.0550973
0.0559968
0.0568621
0.0577445
0.0584993
0.0592879
0.0600922
0.0606821
0.0613816
0.0620211
0.0625653
0.0631675
0.0637008
0.0644058
0.0650152
0.0656242
0.0661307
0.0665549
0.0672006
0.0677215
0.0682197
0.0685912
0.0691528
0.0695114
0.0698958
0.0702453
0.0706165
0.0709478
0.0713079
0.0716422
0.071978
0.0722946
0.0725663
0.0728532
0.0729659
0.073321
0.0736187
0.0739198
0.0741979
0.0744565
0.07475
0.0750012
0.0752589
0.0755303
0.0756592
0.0759603
0.0761004
0.0763377
0.0766384
0.0769256
0.0772003
0.0774334
0.077713
0.0781022
0.0783466
0.078537
0.0786984
0.0789447
0.0790244
0.0792014
0.0793234
0.0794842
0.0797059
0.0799155
0.0801134
0.0803774
0.0806675
0.0808546
0.0811212
0.0814463
0.0816913
0.0820191
0.082215
0.0824103
0.0825166
0.0826383
0.0827364
0.0829266
0.0833148
0.0835408
0.0837734
0.083935
0.0840409
0.0840989
)
;

boundaryField
{
    inlet
    {
        type            fixedValue;
        value           uniform 0;
    }
    outlet
    {
        type            zeroGradient;
    }
    yzfaces
    {
        type            empty;
    }
}


// ************************************************************************* //
