/*--------------------------------*- C++ -*----------------------------------*\
| =========                 |                                                 |
| \\      /  F ield         | foam-extend: Open Source CFD                    |
|  \\    /   O peration     | Version:     5.0                                |
|   \\  /    A nd           | Web:         http://www.foam-extend.org         |
|    \\/     M anipulation  |                                                 |
\*---------------------------------------------------------------------------*/
FoamFile
{
    version     2.0;
    format      ascii;
    class       volScalarField;
    location    "10";
    object      Na.water;
}
// * * * * * * * * * * * * * * * * * * * * * * * * * * * * * * * * * * * * * //

dimensions      [0 0 0 0 0 0 0];

internalField   nonuniform List<scalar> 
100
(
0.0062783
0.00878567
0.0105813
0.0120132
0.0131664
0.014094
0.0149439
0.0157367
0.0165161
0.0171324
0.0176042
0.0180741
0.0185375
0.0189367
0.0193587
0.0197084
0.0200167
0.0203551
0.0206752
0.0209971
0.0212651
0.0215568
0.0218456
0.0220657
0.0223291
0.0225647
0.022769
0.0229838
0.0231865
0.0234374
0.0236538
0.0238581
0.0240294
0.0241741
0.0244165
0.0246145
0.0247954
0.0249336
0.0251523
0.0252892
0.0254379
0.0255538
0.0256703
0.0257909
0.0259268
0.0260504
0.0261723
0.0262883
0.0263692
0.0264581
0.026508
0.0266466
0.0267565
0.026862
0.0269513
0.0270555
0.0271621
0.027255
0.0273585
0.0274622
0.0275151
0.0276138
0.0276722
0.0277521
0.0278703
0.0279711
0.0280671
0.0281589
0.0282581
0.0283938
0.0284902
0.0285583
0.0286144
0.0287184
0.0287395
0.0288055
0.0288591
0.0289023
0.0289818
0.0290565
0.0291181
0.0292171
0.0293085
0.0293764
0.0294745
0.029603
0.0296907
0.0298035
0.029869
0.0299416
0.0299828
0.0300314
0.0300751
0.0301469
0.0302962
0.0303609
0.0304542
0.0305178
0.0305589
0.0305867
)
;

boundaryField
{
    inlet
    {
        type            fixedValue;
        value           uniform 0;
    }
    outlet
    {
        type            zeroGradient;
    }
    yzfaces
    {
        type            empty;
    }
}


// ************************************************************************* //
