/*--------------------------------*- C++ -*----------------------------------*\
| =========                 |                                                 |
| \\      /  F ield         | foam-extend: Open Source CFD                    |
|  \\    /   O peration     | Version:     5.0                                |
|   \\  /    A nd           | Web:         http://www.foam-extend.org         |
|    \\/     M anipulation  |                                                 |
\*---------------------------------------------------------------------------*/
FoamFile
{
    version     2.0;
    format      ascii;
    class       surfaceScalarField;
    location    "10";
    object      phi;
}
// * * * * * * * * * * * * * * * * * * * * * * * * * * * * * * * * * * * * * //

dimensions      [0 3 -1 0 0 0 0];

internalField   nonuniform List<scalar> 
99
(
1.22394e-06
1.21628e-06
1.2181e-06
1.22115e-06
1.20334e-06
1.21924e-06
1.21631e-06
1.22989e-06
1.2378e-06
1.24174e-06
1.24101e-06
1.2415e-06
1.2421e-06
1.24727e-06
1.24278e-06
1.24046e-06
1.23885e-06
1.23637e-06
1.2341e-06
1.23216e-06
1.23339e-06
1.23853e-06
1.23685e-06
1.23831e-06
1.23369e-06
1.24296e-06
1.23701e-06
1.23622e-06
1.23959e-06
1.24271e-06
1.23319e-06
1.23756e-06
1.23312e-06
1.23505e-06
1.22622e-06
1.23024e-06
1.22961e-06
1.23594e-06
1.23658e-06
1.24001e-06
1.24395e-06
1.2457e-06
1.2505e-06
1.2473e-06
1.24727e-06
1.24936e-06
1.25057e-06
1.25174e-06
1.24806e-06
1.25011e-06
1.24751e-06
1.24718e-06
1.24564e-06
1.24633e-06
1.24759e-06
1.25207e-06
1.25186e-06
1.2525e-06
1.25259e-06
1.2525e-06
1.25016e-06
1.24821e-06
1.24725e-06
1.24645e-06
1.24615e-06
1.24781e-06
1.24804e-06
1.24494e-06
1.24492e-06
1.24465e-06
1.2452e-06
1.24082e-06
1.24196e-06
1.24234e-06
1.24524e-06
1.24499e-06
1.24233e-06
1.2429e-06
1.24233e-06
1.24242e-06
1.24116e-06
1.24266e-06
1.2441e-06
1.24419e-06
1.24557e-06
1.24668e-06
1.24839e-06
1.25109e-06
1.25201e-06
1.25478e-06
1.25366e-06
1.25357e-06
1.25271e-06
1.25283e-06
1.25153e-06
1.24873e-06
1.25198e-06
1.25265e-06
1.25257e-06
)
;

boundaryField
{
    inlet
    {
        type            calculated;
        value           uniform -1.225e-06;
    }
    outlet
    {
        type            calculated;
        value           uniform 1.25442e-06;
    }
    yzfaces
    {
        type            empty;
    }
}


// ************************************************************************* //
