/*--------------------------------*- C++ -*----------------------------------*\
| =========                 |                                                 |
| \\      /  F ield         | foam-extend: Open Source CFD                    |
|  \\    /   O peration     | Version:     5.0                                |
|   \\  /    A nd           | Web:         http://www.foam-extend.org         |
|    \\/     M anipulation  |                                                 |
\*---------------------------------------------------------------------------*/
FoamFile
{
    version     2.0;
    format      ascii;
    class       surfaceScalarField;
    location    "10";
    object      phi.water;
}
// * * * * * * * * * * * * * * * * * * * * * * * * * * * * * * * * * * * * * //

dimensions      [0 3 -1 0 0 0 0];

internalField   nonuniform List<scalar> 
99
(
6.01474e-08
1.05688e-07
1.48097e-07
1.87146e-07
2.2038e-07
2.56618e-07
2.94001e-07
3.29534e-07
3.61764e-07
3.84975e-07
4.05964e-07
4.3829e-07
4.66013e-07
4.97116e-07
5.22504e-07
5.4741e-07
5.75314e-07
6.00316e-07
6.24586e-07
6.52398e-07
6.71111e-07
7.0204e-07
7.26735e-07
7.55304e-07
7.79508e-07
8.08608e-07
8.257e-07
8.53214e-07
8.90003e-07
9.19313e-07
9.38439e-07
9.71688e-07
9.91964e-07
1.02791e-06
1.04811e-06
1.0851e-06
1.10381e-06
1.13682e-06
1.15849e-06
1.18089e-06
1.20584e-06
1.22326e-06
1.24278e-06
1.25794e-06
1.28228e-06
1.30528e-06
1.32948e-06
1.34424e-06
1.35059e-06
1.36886e-06
1.38931e-06
1.41025e-06
1.42996e-06
1.45434e-06
1.47806e-06
1.50284e-06
1.52948e-06
1.5464e-06
1.56668e-06
1.58002e-06
1.59317e-06
1.61242e-06
1.63423e-06
1.65508e-06
1.67584e-06
1.7011e-06
1.72431e-06
1.7439e-06
1.76964e-06
1.79498e-06
1.81411e-06
1.82743e-06
1.8576e-06
1.87346e-06
1.89109e-06
1.90375e-06
1.91965e-06
1.94277e-06
1.95975e-06
1.97754e-06
1.99996e-06
2.02692e-06
2.05356e-06
2.08651e-06
2.11928e-06
2.15065e-06
2.17695e-06
2.20408e-06
2.22452e-06
2.24238e-06
2.25669e-06
2.27274e-06
2.29812e-06
2.32563e-06
2.34453e-06
2.36286e-06
2.39458e-06
2.41828e-06
2.43822e-06
)
;

boundaryField
{
    inlet
    {
        type            fixedValue;
        value           uniform 0;
    }
    outlet
    {
        type            calculated;
        value           uniform 2.4758e-06;
    }
    yzfaces
    {
        type            empty;
    }
}


// ************************************************************************* //
