/*--------------------------------*- C++ -*----------------------------------*\
| =========                 |                                                 |
| \\      /  F ield         | foam-extend: Open Source CFD                    |
|  \\    /   O peration     | Version:     5.0                                |
|   \\  /    A nd           | Web:         http://www.foam-extend.org         |
|    \\/     M anipulation  |                                                 |
\*---------------------------------------------------------------------------*/
FoamFile
{
    version     2.0;
    format      ascii;
    class       volVectorField;
    location    "10";
    object      U.gas;
}
// * * * * * * * * * * * * * * * * * * * * * * * * * * * * * * * * * * * * * //

dimensions      [0 1 -1 0 0 0 0];

internalField   nonuniform List<vector> 
100
(
(0.005874 0 0)
(0.00628578 0 0)
(0.00662278 0 0)
(0.00693021 0 0)
(0.00714185 0 0)
(0.00736457 0 0)
(0.00763552 0 0)
(0.00787289 0 0)
(0.00812122 0 0)
(0.00828919 0 0)
(0.00842556 0 0)
(0.0085897 0 0)
(0.00873457 0 0)
(0.00889095 0 0)
(0.00902599 0 0)
(0.00911765 0 0)
(0.00922616 0 0)
(0.00932388 0 0)
(0.00941569 0 0)
(0.00951396 0 0)
(0.0095913 0 0)
(0.00973353 0 0)
(0.00984281 0 0)
(0.00993916 0 0)
(0.0100316 0 0)
(0.010127 0 0)
(0.0102183 0 0)
(0.0102864 0 0)
(0.0104026 0 0)
(0.0105189 0 0)
(0.0105732 0 0)
(0.0106446 0 0)
(0.0107119 0 0)
(0.0108007 0 0)
(0.0108487 0 0)
(0.0109259 0 0)
(0.0109885 0 0)
(0.0110898 0 0)
(0.0111786 0 0)
(0.0112472 0 0)
(0.011335 0 0)
(0.0114021 0 0)
(0.0114711 0 0)
(0.0115256 0 0)
(0.0115762 0 0)
(0.0116314 0 0)
(0.0117004 0 0)
(0.0117409 0 0)
(0.0117527 0 0)
(0.0117831 0 0)
(0.0118363 0 0)
(0.0118652 0 0)
(0.0119024 0 0)
(0.0119535 0 0)
(0.0120047 0 0)
(0.0120709 0 0)
(0.0121457 0 0)
(0.0121741 0 0)
(0.0122157 0 0)
(0.0122367 0 0)
(0.0122597 0 0)
(0.0122812 0 0)
(0.0123076 0 0)
(0.0123346 0 0)
(0.0123687 0 0)
(0.0124179 0 0)
(0.0124657 0 0)
(0.0124902 0 0)
(0.0125234 0 0)
(0.0125643 0 0)
(0.0125856 0 0)
(0.0125936 0 0)
(0.0126224 0 0)
(0.0126378 0 0)
(0.0126753 0 0)
(0.0127088 0 0)
(0.0127241 0 0)
(0.0127436 0 0)
(0.0127707 0 0)
(0.0127864 0 0)
(0.0128206 0 0)
(0.0128554 0 0)
(0.0129015 0 0)
(0.0129512 0 0)
(0.0129919 0 0)
(0.0130373 0 0)
(0.0130749 0 0)
(0.0131212 0 0)
(0.0131506 0 0)
(0.013178 0 0)
(0.0132046 0 0)
(0.0132168 0 0)
(0.013245 0 0)
(0.0132717 0 0)
(0.0132801 0 0)
(0.0132804 0 0)
(0.0133043 0 0)
(0.0133368 0 0)
(0.0133521 0 0)
(0.0133827 0 0)
)
;

boundaryField
{
    inlet
    {
        type            fixedValue;
        value           uniform (0.005 0 0);
    }
    outlet
    {
        type            zeroGradient;
    }
    yzfaces
    {
        type            empty;
    }
}


// ************************************************************************* //
