/*--------------------------------*- C++ -*----------------------------------*\
| =========                 |                                                 |
| \\      /  F ield         | foam-extend: Open Source CFD                    |
|  \\    /   O peration     | Version:     5.0                                |
|   \\  /    A nd           | Web:         http://www.foam-extend.org         |
|    \\/     M anipulation  |                                                 |
\*---------------------------------------------------------------------------*/
FoamFile
{
    version     2.0;
    format      ascii;
    class       volVectorField;
    location    "10";
    object      U.water;
}
// * * * * * * * * * * * * * * * * * * * * * * * * * * * * * * * * * * * * * //

dimensions      [0 1 -1 0 0 0 0];

internalField   nonuniform List<vector> 
100
(
(2.9295e-05 0 0)
(6.81443e-05 0 0)
(0.000102983 0 0)
(0.000135924 0 0)
(0.000165207 0 0)
(0.000193251 0 0)
(0.00022204 0 0)
(0.000251866 0 0)
(0.000280728 0 0)
(0.000305932 0 0)
(0.000325429 0 0)
(0.000346075 0 0)
(0.00037044 0 0)
(0.000394413 0 0)
(0.000417368 0 0)
(0.000438068 0 0)
(0.000458863 0 0)
(0.00048023 0 0)
(0.00050047 0 0)
(0.000521434 0 0)
(0.000541838 0 0)
(0.000561536 0 0)
(0.000584454 0 0)
(0.000605807 0 0)
(0.000626427 0 0)
(0.000648789 0 0)
(0.000667896 0 0)
(0.00068519 0 0)
(0.000709923 0 0)
(0.000736792 0 0)
(0.000757108 0 0)
(0.000777817 0 0)
(0.000799746 0 0)
(0.000820899 0 0)
(0.000843873 0 0)
(0.000866125 0 0)
(0.000889994 0 0)
(0.000910735 0 0)
(0.000933873 0 0)
(0.00095292 0 0)
(0.000972541 0 0)
(0.000990821 0 0)
(0.00100709 0 0)
(0.00102192 0 0)
(0.00103747 0 0)
(0.00105718 0 0)
(0.00107631 0 0)
(0.0010934 0 0)
(0.00110356 0 0)
(0.00111366 0 0)
(0.00112793 0 0)
(0.00114473 0 0)
(0.00116151 0 0)
(0.00117878 0 0)
(0.00119823 0 0)
(0.00121817 0 0)
(0.00123826 0 0)
(0.00125672 0 0)
(0.00127222 0 0)
(0.00128694 0 0)
(0.00129775 0 0)
(0.00131032 0 0)
(0.001326 0 0)
(0.00134296 0 0)
(0.00136025 0 0)
(0.00137926 0 0)
(0.00139908 0 0)
(0.00141633 0 0)
(0.00143461 0 0)
(0.00145608 0 0)
(0.00147555 0 0)
(0.00148872 0 0)
(0.00150476 0 0)
(0.00152415 0 0)
(0.00153775 0 0)
(0.00155005 0 0)
(0.00156086 0 0)
(0.00157576 0 0)
(0.00159207 0 0)
(0.00160706 0 0)
(0.00162278 0 0)
(0.0016429 0 0)
(0.00166498 0 0)
(0.00168811 0 0)
(0.00171456 0 0)
(0.00174112 0 0)
(0.00176576 0 0)
(0.00178873 0 0)
(0.00180945 0 0)
(0.00182611 0 0)
(0.00183919 0 0)
(0.00185098 0 0)
(0.00186612 0 0)
(0.00188716 0 0)
(0.00190824 0 0)
(0.00192466 0 0)
(0.00194515 0 0)
(0.00196762 0 0)
(0.0019844 0 0)
(0.00200457 0 0)
)
;

boundaryField
{
    inlet
    {
        type            fixedValue;
        value           uniform (0 0 0);
    }
    outlet
    {
        type            zeroGradient;
    }
    yzfaces
    {
        type            empty;
    }
}


// ************************************************************************* //
