/*--------------------------------*- C++ -*----------------------------------*\
| =========                 |                                                 |
| \\      /  F ield         | foam-extend: Open Source CFD                    |
|  \\    /   O peration     | Version:     5.0                                |
|   \\  /    A nd           | Web:         http://www.foam-extend.org         |
|    \\/     M anipulation  |                                                 |
\*---------------------------------------------------------------------------*/
FoamFile
{
    version     2.0;
    format      ascii;
    class       volScalarField;
    location    "7";
    object      alpha.gas;
}
// * * * * * * * * * * * * * * * * * * * * * * * * * * * * * * * * * * * * * //

dimensions      [0 0 0 0 0 0 0];

internalField   nonuniform List<scalar> 
100
(
0.162927
0.150532
0.141463
0.135643
0.132174
0.128086
0.123445
0.117544
0.113767
0.110962
0.107751
0.105059
0.102534
0.0998474
0.0976687
0.095696
0.0934181
0.0919837
0.0907367
0.0889249
0.0878783
0.0871284
0.0864806
0.0852507
0.0841131
0.0831127
0.0816046
0.0802165
0.0793529
0.0783291
0.0773122
0.0763475
0.0756538
0.0749518
0.0741831
0.0733548
0.0725021
0.0716947
0.0710636
0.0705093
0.0699805
0.0692773
0.0685973
0.0679507
0.0672473
0.0665302
0.06592
0.0653633
0.0648566
0.0641991
0.063564
0.0629539
0.0623463
0.0617973
0.0613121
0.0608052
0.060297
0.0597748
0.0592362
0.0587757
0.0583018
0.0579421
0.0575282
0.0570289
0.0565798
0.0560774
0.0556197
0.0552987
0.0548697
0.054447
0.0539951
0.0535662
0.0531872
0.052778
0.0524598
0.0521
0.0516929
0.0512785
0.0508587
0.0504264
0.0499836
0.0495195
0.0491262
0.0486463
0.0481468
0.0476393
0.0471901
0.0466958
0.0461912
0.0456926
0.0451765
0.044678
0.0441946
0.043711
0.0432428
0.0427308
0.0422534
0.0417396
0.0412278
0.0407288
)
;

boundaryField
{
    inlet
    {
        type            fixedValue;
        value           uniform 0.2;
    }
    outlet
    {
        type            zeroGradient;
    }
    yzfaces
    {
        type            empty;
    }
}


// ************************************************************************* //
