/*--------------------------------*- C++ -*----------------------------------*\
| =========                 |                                                 |
| \\      /  F ield         | foam-extend: Open Source CFD                    |
|  \\    /   O peration     | Version:     5.0                                |
|   \\  /    A nd           | Web:         http://www.foam-extend.org         |
|    \\/     M anipulation  |                                                 |
\*---------------------------------------------------------------------------*/
FoamFile
{
    version     2.0;
    format      ascii;
    class       volScalarField;
    location    "7";
    object      alpha.gas;
}
// * * * * * * * * * * * * * * * * * * * * * * * * * * * * * * * * * * * * * //

dimensions      [0 0 0 0 0 0 0];

internalField   nonuniform List<scalar> 
100
(
0.162965
0.150402
0.140421
0.135225
0.132771
0.128435
0.123093
0.117951
0.114084
0.110699
0.107649
0.104649
0.102107
0.0995592
0.0972003
0.0953472
0.0933715
0.0916226
0.0900823
0.0882118
0.0872642
0.086776
0.0861747
0.085149
0.0841112
0.0830995
0.0819759
0.0805935
0.0793972
0.0784776
0.0774592
0.0765505
0.0757353
0.0750129
0.0743519
0.073564
0.072689
0.0719058
0.0711799
0.0704851
0.0698407
0.0692665
0.0686914
0.0679491
0.0672102
0.0666491
0.0661137
0.0655813
0.0649949
0.0644534
0.0638549
0.0632261
0.0626125
0.0620066
0.0615122
0.0610288
0.0605114
0.0599603
0.0595093
0.0589166
0.0584687
0.0579907
0.0575802
0.0571102
0.0566454
0.0562195
0.0557375
0.0552951
0.0549347
0.0544827
0.0541289
0.0537323
0.0533363
0.0529805
0.0524769
0.0520993
0.0517151
0.0513147
0.0509672
0.0504682
0.0500097
0.0495815
0.0491342
0.0486925
0.0482253
0.0477599
0.0472599
0.0467422
0.0462037
0.0456947
0.0452082
0.0447086
0.0442207
0.0437692
0.0433127
0.0428425
0.0423182
0.0417957
0.0413154
0.040801
)
;

boundaryField
{
    inlet
    {
        type            fixedValue;
        value           uniform 0.2;
    }
    outlet
    {
        type            zeroGradient;
    }
    yzfaces
    {
        type            empty;
    }
}


// ************************************************************************* //
