/*--------------------------------*- C++ -*----------------------------------*\
| =========                 |                                                 |
| \\      /  F ield         | foam-extend: Open Source CFD                    |
|  \\    /   O peration     | Version:     5.0                                |
|   \\  /    A nd           | Web:         http://www.foam-extend.org         |
|    \\/     M anipulation  |                                                 |
\*---------------------------------------------------------------------------*/
FoamFile
{
    version     2.0;
    format      ascii;
    class       volScalarField;
    location    "7";
    object      alpha.gas;
}
// * * * * * * * * * * * * * * * * * * * * * * * * * * * * * * * * * * * * * //

dimensions      [0 0 0 0 0 0 0];

internalField   nonuniform List<scalar> 
100
(
0.162756
0.149747
0.140685
0.135502
0.131828
0.127878
0.123389
0.118358
0.114413
0.111088
0.107872
0.104733
0.102186
0.0997694
0.0974322
0.0956457
0.09354
0.0920453
0.0902322
0.0881753
0.0869957
0.0866747
0.0861565
0.0853852
0.0842992
0.0832326
0.0820559
0.0805197
0.0794229
0.0784541
0.0775262
0.0765927
0.0756958
0.0749454
0.0742216
0.073324
0.0725837
0.0716995
0.0711662
0.0705421
0.069942
0.0692697
0.0685692
0.0678548
0.0671927
0.0664334
0.0658752
0.065322
0.0648633
0.0643189
0.0637698
0.0631943
0.0626043
0.0620972
0.0615952
0.0610667
0.0605719
0.0599542
0.05943
0.0588431
0.0583451
0.0578731
0.0574121
0.056825
0.0564017
0.0559462
0.0554882
0.055095
0.0546595
0.0542625
0.0538749
0.0535322
0.0531695
0.0528083
0.0523453
0.0519189
0.0515005
0.0511041
0.0507189
0.0503147
0.0499163
0.0495152
0.0490961
0.048601
0.0481685
0.047639
0.0471787
0.0466717
0.0461373
0.0456513
0.0451771
0.0446865
0.0441877
0.0437313
0.0432592
0.0427909
0.0423015
0.0418185
0.0413185
0.0408281
)
;

boundaryField
{
    inlet
    {
        type            fixedValue;
        value           uniform 0.2;
    }
    outlet
    {
        type            zeroGradient;
    }
    yzfaces
    {
        type            empty;
    }
}


// ************************************************************************* //
