/*--------------------------------*- C++ -*----------------------------------*\
| =========                 |                                                 |
| \\      /  F ield         | foam-extend: Open Source CFD                    |
|  \\    /   O peration     | Version:     5.0                                |
|   \\  /    A nd           | Web:         http://www.foam-extend.org         |
|    \\/     M anipulation  |                                                 |
\*---------------------------------------------------------------------------*/
FoamFile
{
    version     2.0;
    format      ascii;
    class       volScalarField;
    location    "7";
    object      Cl.water;
}
// * * * * * * * * * * * * * * * * * * * * * * * * * * * * * * * * * * * * * //

dimensions      [0 0 0 0 0 0 0];

internalField   nonuniform List<scalar> 
100
(
0.00425099
0.00569083
0.00683377
0.00742715
0.00772285
0.00822279
0.00884223
0.00942001
0.00985908
0.0102559
0.0106099
0.0109505
0.011246
0.0115391
0.011798
0.0120197
0.0122452
0.0124424
0.0126165
0.0128284
0.0129411
0.0130052
0.013073
0.0131861
0.0133036
0.0134187
0.0135497
0.0137089
0.0138413
0.0139539
0.0140664
0.0141742
0.0142721
0.0143549
0.0144323
0.0145221
0.0146224
0.0147125
0.0148003
0.0148794
0.0149561
0.0150233
0.0150885
0.0151704
0.0152537
0.0153227
0.0153842
0.0154388
0.0155045
0.0155638
0.0156326
0.0157064
0.0157777
0.0158481
0.0159061
0.015962
0.0160232
0.0160831
0.0161368
0.0161993
0.0162581
0.0163075
0.0163577
0.0164092
0.0164575
0.016511
0.016567
0.0166225
0.0166647
0.0167127
0.0167473
0.0167913
0.0168398
0.0168838
0.0169397
0.0169874
0.0170283
0.0170723
0.0171167
0.0171664
0.0172196
0.0172716
0.0173202
0.0173734
0.0174249
0.0174791
0.0175335
0.0175922
0.0176557
0.0177161
0.0177705
0.0178272
0.0178841
0.0179411
0.0179937
0.018048
0.0181076
0.0181659
0.0182217
0.0182846
)
;

boundaryField
{
    inlet
    {
        type            fixedValue;
        value           uniform 0;
    }
    outlet
    {
        type            zeroGradient;
    }
    yzfaces
    {
        type            empty;
    }
}


// ************************************************************************* //
