/*--------------------------------*- C++ -*----------------------------------*\
| =========                 |                                                 |
| \\      /  F ield         | foam-extend: Open Source CFD                    |
|  \\    /   O peration     | Version:     5.0                                |
|   \\  /    A nd           | Web:         http://www.foam-extend.org         |
|    \\/     M anipulation  |                                                 |
\*---------------------------------------------------------------------------*/
FoamFile
{
    version     2.0;
    format      ascii;
    class       volScalarField;
    location    "7";
    object      Cl.water;
}
// * * * * * * * * * * * * * * * * * * * * * * * * * * * * * * * * * * * * * //

dimensions      [0 0 0 0 0 0 0];

internalField   nonuniform List<scalar> 
100
(
0.00427239
0.00577173
0.00680591
0.00740055
0.00782817
0.00828421
0.00880643
0.00937238
0.0098283
0.0102103
0.0105746
0.0109369
0.0112371
0.0115073
0.0117723
0.0119734
0.012224
0.0123952
0.012605
0.0128375
0.0129687
0.0130169
0.0130696
0.0131637
0.013287
0.0134127
0.0135488
0.0137204
0.013848
0.0139581
0.0140629
0.0141699
0.0142701
0.014355
0.0144384
0.014538
0.0146259
0.0147259
0.0147908
0.0148585
0.0149299
0.0150108
0.0150948
0.0151767
0.0152542
0.0153426
0.0154076
0.015466
0.0155193
0.0155883
0.0156547
0.0157175
0.0157804
0.0158386
0.0158968
0.015961
0.0160207
0.0160875
0.0161505
0.0162193
0.0162755
0.0163265
0.0163815
0.0164455
0.0164971
0.016549
0.0166007
0.0166467
0.0166941
0.0167368
0.0167803
0.0168227
0.0168643
0.0169064
0.0169547
0.0170001
0.0170474
0.0170944
0.0171397
0.01719
0.0172369
0.0172833
0.017327
0.0173812
0.0174352
0.0174906
0.0175423
0.0175961
0.0176594
0.0177179
0.0177737
0.0178304
0.0178887
0.0179441
0.017996
0.0180527
0.0181122
0.018165
0.0182203
0.0182806
)
;

boundaryField
{
    inlet
    {
        type            fixedValue;
        value           uniform 0;
    }
    outlet
    {
        type            zeroGradient;
    }
    yzfaces
    {
        type            empty;
    }
}


// ************************************************************************* //
