/*--------------------------------*- C++ -*----------------------------------*\
| =========                 |                                                 |
| \\      /  F ield         | foam-extend: Open Source CFD                    |
|  \\    /   O peration     | Version:     5.0                                |
|   \\  /    A nd           | Web:         http://www.foam-extend.org         |
|    \\/     M anipulation  |                                                 |
\*---------------------------------------------------------------------------*/
FoamFile
{
    version     2.0;
    format      ascii;
    class       volScalarField;
    location    "7";
    object      Cl.water;
}
// * * * * * * * * * * * * * * * * * * * * * * * * * * * * * * * * * * * * * //

dimensions      [0 0 0 0 0 0 0];

internalField   nonuniform List<scalar> 
100
(
0.00425669
0.005677
0.00672851
0.00739038
0.00778757
0.00826062
0.00879499
0.00947323
0.00990067
0.0102164
0.0105891
0.0108975
0.0111887
0.0115021
0.0117455
0.0119757
0.0122353
0.0124035
0.0125431
0.0127515
0.0128732
0.0129625
0.0130403
0.0131763
0.0133096
0.0134246
0.0136005
0.0137578
0.0138551
0.0139691
0.014085
0.0141951
0.0142742
0.0143552
0.0144452
0.0145409
0.0146347
0.0147342
0.0148112
0.0148746
0.0149373
0.0150126
0.0150885
0.0151599
0.0152447
0.0153248
0.0153967
0.0154622
0.0155238
0.0155962
0.0156702
0.0157384
0.0158079
0.0158722
0.0159281
0.0159865
0.0160531
0.0161067
0.0161677
0.0162215
0.0162693
0.0163136
0.0163588
0.0164161
0.0164653
0.0165185
0.0165688
0.0166097
0.0166593
0.0167071
0.0167599
0.0168072
0.0168523
0.0168972
0.0169369
0.016981
0.0170295
0.0170741
0.0171259
0.0171731
0.0172229
0.0172754
0.017324
0.0173791
0.0174346
0.0174918
0.0175517
0.0176095
0.017666
0.017721
0.0177794
0.0178347
0.0178882
0.0179393
0.0179962
0.0180568
0.0181138
0.01817
0.018228
0.0182763
)
;

boundaryField
{
    inlet
    {
        type            fixedValue;
        value           uniform 0;
    }
    outlet
    {
        type            zeroGradient;
    }
    yzfaces
    {
        type            empty;
    }
}


// ************************************************************************* //
