/*--------------------------------*- C++ -*----------------------------------*\
| =========                 |                                                 |
| \\      /  F ield         | foam-extend: Open Source CFD                    |
|  \\    /   O peration     | Version:     5.0                                |
|   \\  /    A nd           | Web:         http://www.foam-extend.org         |
|    \\/     M anipulation  |                                                 |
\*---------------------------------------------------------------------------*/
FoamFile
{
    version     2.0;
    format      ascii;
    class       volScalarField;
    location    "7";
    object      CO2.water;
}
// * * * * * * * * * * * * * * * * * * * * * * * * * * * * * * * * * * * * * //

dimensions      [0 0 0 0 0 0 0];

internalField   nonuniform List<scalar> 
100
(
0.00097819
0.00131988
0.00155788
0.00169402
0.00179051
0.00189425
0.00201216
0.0021443
0.00224791
0.00233524
0.00241971
0.00250215
0.00256905
0.00263251
0.0026939
0.00274082
0.00279612
0.00283538
0.002883
0.00293702
0.00296801
0.00297644
0.00299005
0.0030103
0.00303883
0.00306684
0.00309775
0.0031381
0.0031669
0.00319235
0.00321672
0.00324124
0.00326479
0.0032845
0.00330351
0.00332709
0.00334653
0.00336975
0.00338376
0.00340015
0.00341591
0.00343357
0.00345197
0.00347073
0.00348812
0.00350806
0.00352273
0.00353726
0.0035493
0.0035636
0.00357802
0.00359314
0.00360863
0.00362195
0.00363514
0.00364902
0.00366201
0.00367824
0.00369201
0.00370742
0.0037205
0.0037329
0.00374501
0.00376043
0.00377154
0.00378351
0.00379554
0.00380586
0.0038173
0.00382773
0.00383791
0.00384691
0.00385644
0.00386592
0.00387808
0.00388928
0.00390027
0.00391068
0.0039208
0.00393142
0.00394188
0.00395241
0.00396342
0.00397643
0.00398778
0.00400169
0.00401378
0.0040271
0.00404113
0.0040539
0.00406635
0.00407924
0.00409234
0.00410432
0.00411672
0.00412902
0.00414188
0.00415457
0.0041677
0.00418058
)
;

boundaryField
{
    inlet
    {
        type            fixedValue;
        value           uniform 0;
    }
    outlet
    {
        type            zeroGradient;
    }
    yzfaces
    {
        type            empty;
    }
}


// ************************************************************************* //
