/*--------------------------------*- C++ -*----------------------------------*\
| =========                 |                                                 |
| \\      /  F ield         | foam-extend: Open Source CFD                    |
|  \\    /   O peration     | Version:     5.0                                |
|   \\  /    A nd           | Web:         http://www.foam-extend.org         |
|    \\/     M anipulation  |                                                 |
\*---------------------------------------------------------------------------*/
FoamFile
{
    version     2.0;
    format      ascii;
    class       volScalarField;
    location    "7";
    object      CO2.gas;
}
// * * * * * * * * * * * * * * * * * * * * * * * * * * * * * * * * * * * * * //

dimensions      [0 0 0 0 0 0 0];

internalField   nonuniform List<scalar> 
100
(
0.16261
0.150239
0.141187
0.135379
0.131916
0.127837
0.123205
0.117315
0.113545
0.110746
0.107541
0.104854
0.102335
0.099653
0.0974785
0.0955096
0.0932361
0.0918045
0.09056
0.0887517
0.0877072
0.0869587
0.0863122
0.0850847
0.0839493
0.0829508
0.0814457
0.0800602
0.0791984
0.0781765
0.0771616
0.0761988
0.0755065
0.0748059
0.0740386
0.0732119
0.0723609
0.0715551
0.0709252
0.070372
0.0698442
0.0691424
0.0684637
0.0678184
0.0671164
0.0664006
0.0657916
0.065236
0.0647303
0.0640741
0.0634402
0.0628313
0.0622249
0.0616769
0.0611927
0.0606868
0.0601796
0.0596584
0.0591208
0.0586612
0.0581882
0.0578293
0.0574161
0.0569179
0.0564697
0.0559682
0.0555113
0.055191
0.0547628
0.054341
0.05389
0.0534619
0.0530836
0.0526753
0.0523576
0.0519986
0.0515922
0.0511786
0.0507596
0.0503281
0.0498863
0.0494231
0.0490305
0.0485516
0.0480531
0.0475465
0.0470982
0.0466048
0.0461013
0.0456036
0.0450886
0.044591
0.0441085
0.0436259
0.0431586
0.0426475
0.0421712
0.0416583
0.0411475
0.0406495
)
;

boundaryField
{
    inlet
    {
        type            fixedValue;
        value           uniform 0.2;
    }
    outlet
    {
        type            zeroGradient;
    }
    yzfaces
    {
        type            empty;
    }
}


// ************************************************************************* //
