/*--------------------------------*- C++ -*----------------------------------*\
| =========                 |                                                 |
| \\      /  F ield         | foam-extend: Open Source CFD                    |
|  \\    /   O peration     | Version:     5.0                                |
|   \\  /    A nd           | Web:         http://www.foam-extend.org         |
|    \\/     M anipulation  |                                                 |
\*---------------------------------------------------------------------------*/
FoamFile
{
    version     2.0;
    format      ascii;
    class       volScalarField;
    location    "7";
    object      CO2.gas;
}
// * * * * * * * * * * * * * * * * * * * * * * * * * * * * * * * * * * * * * //

dimensions      [0 0 0 0 0 0 0];

internalField   nonuniform List<scalar> 
100
(
0.162647
0.150109
0.140148
0.134961
0.132513
0.128185
0.122854
0.117721
0.113862
0.110484
0.107439
0.104445
0.101908
0.0993653
0.097011
0.0951615
0.0931897
0.0914441
0.0899069
0.08804
0.0870942
0.086607
0.0860069
0.0849832
0.0839474
0.0829376
0.0818163
0.0804366
0.0792425
0.0783247
0.0773083
0.0764014
0.0755878
0.0748668
0.0742071
0.0734208
0.0725474
0.0717657
0.0710413
0.0703478
0.0697046
0.0691316
0.0685576
0.0678168
0.0670793
0.0665193
0.0659849
0.0654536
0.0648683
0.0643279
0.0637306
0.0631029
0.0624906
0.0618858
0.0613924
0.0609099
0.0603935
0.0598435
0.0593934
0.0588019
0.0583548
0.0578778
0.057468
0.056999
0.0565351
0.05611
0.055629
0.0551875
0.0548277
0.0543766
0.0540235
0.0536276
0.0532325
0.0528774
0.0523747
0.0519978
0.0516144
0.0512148
0.050868
0.0503699
0.0499123
0.0494849
0.0490385
0.0485977
0.0481314
0.0476669
0.0471679
0.0466512
0.0461137
0.0456057
0.0451201
0.0446216
0.0441345
0.0436839
0.0432283
0.0427591
0.0422358
0.0417143
0.0412349
0.0407216
)
;

boundaryField
{
    inlet
    {
        type            fixedValue;
        value           uniform 0.2;
    }
    outlet
    {
        type            zeroGradient;
    }
    yzfaces
    {
        type            empty;
    }
}


// ************************************************************************* //
