/*--------------------------------*- C++ -*----------------------------------*\
| =========                 |                                                 |
| \\      /  F ield         | foam-extend: Open Source CFD                    |
|  \\    /   O peration     | Version:     5.0                                |
|   \\  /    A nd           | Web:         http://www.foam-extend.org         |
|    \\/     M anipulation  |                                                 |
\*---------------------------------------------------------------------------*/
FoamFile
{
    version     2.0;
    format      ascii;
    class       volScalarField;
    location    "7";
    object      CO2.gas;
}
// * * * * * * * * * * * * * * * * * * * * * * * * * * * * * * * * * * * * * //

dimensions      [0 0 0 0 0 0 0];

internalField   nonuniform List<scalar> 
100
(
0.162439
0.149455
0.140411
0.135238
0.131571
0.127629
0.123148
0.118127
0.11419
0.110871
0.107661
0.104529
0.101987
0.0995751
0.0972424
0.0954594
0.0933579
0.091866
0.0900565
0.0880036
0.0868263
0.0865059
0.0859887
0.0852189
0.084135
0.0830705
0.0818961
0.0803629
0.0792682
0.0783013
0.0773752
0.0764436
0.0755484
0.0747995
0.0740771
0.0731812
0.0724424
0.0715599
0.0710276
0.0704047
0.0698058
0.0691348
0.0684357
0.0677227
0.0670619
0.0663041
0.0657469
0.0651948
0.0647369
0.0641936
0.0636456
0.0630712
0.0624824
0.0619763
0.0614752
0.0609477
0.0604539
0.0598374
0.0593143
0.0587285
0.0582315
0.0577604
0.0573003
0.0567143
0.0562919
0.0558372
0.0553802
0.0549877
0.0545531
0.0541568
0.05377
0.0534279
0.0530659
0.0527054
0.0522434
0.0518178
0.0514002
0.0510046
0.0506201
0.0502167
0.0498191
0.0494188
0.0490005
0.0485064
0.0480747
0.0475463
0.0470868
0.0465808
0.0460474
0.0455624
0.0450891
0.0445995
0.0441017
0.0436462
0.043175
0.0427076
0.0422192
0.041737
0.041238
0.0407486
)
;

boundaryField
{
    inlet
    {
        type            fixedValue;
        value           uniform 0.2;
    }
    outlet
    {
        type            zeroGradient;
    }
    yzfaces
    {
        type            empty;
    }
}


// ************************************************************************* //
