/*--------------------------------*- C++ -*----------------------------------*\
| =========                 |                                                 |
| \\      /  F ield         | foam-extend: Open Source CFD                    |
|  \\    /   O peration     | Version:     5.0                                |
|   \\  /    A nd           | Web:         http://www.foam-extend.org         |
|    \\/     M anipulation  |                                                 |
\*---------------------------------------------------------------------------*/
FoamFile
{
    version     2.0;
    format      ascii;
    class       volScalarField;
    location    "7";
    object      CO2.water;
}
// * * * * * * * * * * * * * * * * * * * * * * * * * * * * * * * * * * * * * //

dimensions      [0 0 0 0 0 0 0];

internalField   nonuniform List<scalar> 
100
(
0.000973696
0.00129925
0.00153745
0.00169031
0.00178143
0.00188878
0.00201068
0.00216568
0.00226488
0.00233855
0.00242289
0.00249359
0.00255989
0.00263046
0.00268768
0.0027395
0.00279933
0.002837
0.00286975
0.00291734
0.00294482
0.00296452
0.00298154
0.00301384
0.00304372
0.00306999
0.0031096
0.00314606
0.00316874
0.00319563
0.00322234
0.00324768
0.00326589
0.00328433
0.00330452
0.00332628
0.00334867
0.00336988
0.00338645
0.00340101
0.0034149
0.00343337
0.00345123
0.00346821
0.00348669
0.00350552
0.00352155
0.00353617
0.00354948
0.00356675
0.00358343
0.00359945
0.00361541
0.00362983
0.00364257
0.00365589
0.00366923
0.00368295
0.0036971
0.00370919
0.00372164
0.00373109
0.00374196
0.00375507
0.00376686
0.00378006
0.00379208
0.00380051
0.00381178
0.00382288
0.00383475
0.00384602
0.00385597
0.00386672
0.00387508
0.00388453
0.00389522
0.0039061
0.00391713
0.00392848
0.00394011
0.0039523
0.00396263
0.00397524
0.00398835
0.00400168
0.00401348
0.00402647
0.00403972
0.00405281
0.00406637
0.00407946
0.00409216
0.00410486
0.00411715
0.0041306
0.00414314
0.00415664
0.00417008
0.00418319
)
;

boundaryField
{
    inlet
    {
        type            fixedValue;
        value           uniform 0;
    }
    outlet
    {
        type            zeroGradient;
    }
    yzfaces
    {
        type            empty;
    }
}


// ************************************************************************* //
