/*--------------------------------*- C++ -*----------------------------------*\
| =========                 |                                                 |
| \\      /  F ield         | foam-extend: Open Source CFD                    |
|  \\    /   O peration     | Version:     5.0                                |
|   \\  /    A nd           | Web:         http://www.foam-extend.org         |
|    \\/     M anipulation  |                                                 |
\*---------------------------------------------------------------------------*/
FoamFile
{
    version     2.0;
    format      ascii;
    class       volScalarField;
    location    "7";
    object      CO2.water;
}
// * * * * * * * * * * * * * * * * * * * * * * * * * * * * * * * * * * * * * //

dimensions      [0 0 0 0 0 0 0];

internalField   nonuniform List<scalar> 
100
(
0.000972713
0.00130267
0.00156481
0.00170129
0.00176574
0.00187962
0.00201991
0.00215499
0.00225655
0.00234544
0.00242555
0.00250435
0.00257111
0.00263803
0.00269999
0.00274866
0.00280055
0.00284648
0.00288694
0.00293607
0.00296095
0.00297378
0.00298957
0.00301651
0.00304377
0.00307034
0.00309985
0.00313616
0.00316758
0.00319173
0.00321848
0.00324235
0.00326376
0.00328273
0.00330009
0.00332078
0.00334377
0.00336434
0.0033834
0.00340165
0.00341858
0.00343366
0.00344876
0.00346826
0.00348766
0.0035024
0.00351646
0.00353045
0.00354585
0.00356007
0.00357579
0.0035923
0.00360842
0.00362433
0.00363732
0.00365002
0.0036636
0.00367808
0.00368992
0.00370549
0.00371726
0.00372981
0.00374059
0.00375293
0.00376514
0.00377633
0.00378899
0.00380061
0.00381007
0.00382194
0.00383124
0.00384165
0.00385205
0.0038614
0.00387463
0.00388454
0.00389463
0.00390515
0.00391428
0.00392738
0.00393943
0.00395067
0.00396242
0.00397402
0.00398629
0.00399852
0.00401165
0.00402525
0.00403939
0.00405276
0.00406554
0.00407866
0.00409147
0.00410333
0.00411532
0.00412767
0.00414144
0.00415516
0.00416778
0.00418129
)
;

boundaryField
{
    inlet
    {
        type            fixedValue;
        value           uniform 0;
    }
    outlet
    {
        type            zeroGradient;
    }
    yzfaces
    {
        type            empty;
    }
}


// ************************************************************************* //
