/*--------------------------------*- C++ -*----------------------------------*\
| =========                 |                                                 |
| \\      /  F ield         | foam-extend: Open Source CFD                    |
|  \\    /   O peration     | Version:     5.0                                |
|   \\  /    A nd           | Web:         http://www.foam-extend.org         |
|    \\/     M anipulation  |                                                 |
\*---------------------------------------------------------------------------*/
FoamFile
{
    version     2.0;
    format      ascii;
    class       volScalarField;
    location    "7";
    object      H2O.water;
}
// * * * * * * * * * * * * * * * * * * * * * * * * * * * * * * * * * * * * * //

dimensions      [0 0 0 0 0 0 0];

internalField   nonuniform List<scalar> 
100
(
0.0275865
0.0368177
0.0435498
0.0478908
0.0504685
0.0535067
0.0569591
0.0613461
0.0641606
0.0662528
0.0686387
0.0706491
0.0725288
0.0745242
0.0761531
0.0776085
0.0793093
0.0803719
0.0813037
0.0826519
0.0834258
0.0839835
0.0844565
0.0853816
0.0862299
0.0869716
0.0880964
0.0891321
0.0897731
0.0905349
0.0912945
0.0920123
0.0925247
0.0930439
0.0936169
0.0942319
0.0948715
0.095471
0.0959434
0.0963504
0.0967396
0.0972694
0.0977738
0.0982581
0.0987749
0.0993096
0.0997703
0.100182
0.100556
0.101047
0.101517
0.101977
0.102427
0.102831
0.103196
0.103572
0.103946
0.104339
0.10474
0.105082
0.105438
0.1057
0.10601
0.106383
0.106713
0.107092
0.107432
0.107664
0.107986
0.1083
0.108638
0.10896
0.109239
0.109545
0.10978
0.110047
0.110351
0.11066
0.11097
0.11129
0.111621
0.111969
0.112258
0.112619
0.11299
0.113366
0.113696
0.114067
0.114445
0.114815
0.1152
0.11557
0.115931
0.116292
0.116638
0.117023
0.117374
0.117759
0.118139
0.118509
)
;

boundaryField
{
    inlet
    {
        type            fixedValue;
        value           uniform 0;
    }
    outlet
    {
        type            zeroGradient;
    }
    yzfaces
    {
        type            empty;
    }
}


// ************************************************************************* //
