/*--------------------------------*- C++ -*----------------------------------*\
| =========                 |                                                 |
| \\      /  F ield         | foam-extend: Open Source CFD                    |
|  \\    /   O peration     | Version:     5.0                                |
|   \\  /    A nd           | Web:         http://www.foam-extend.org         |
|    \\/     M anipulation  |                                                 |
\*---------------------------------------------------------------------------*/
FoamFile
{
    version     2.0;
    format      ascii;
    class       volScalarField;
    location    "7";
    object      H2O.gas;
}
// * * * * * * * * * * * * * * * * * * * * * * * * * * * * * * * * * * * * * //

dimensions      [0 0 0 0 0 0 0];

internalField   nonuniform List<scalar> 
100
(
0.000317296
0.000293157
0.000275495
0.00026416
0.000257404
0.000249445
0.000240405
0.000228913
0.000221558
0.000216095
0.000209841
0.000204599
0.000199683
0.00019445
0.000190207
0.000186365
0.000181929
0.000179136
0.000176707
0.000173179
0.00017114
0.00016968
0.000168418
0.000166023
0.000163808
0.00016186
0.000158923
0.000156219
0.000154537
0.000152544
0.000150563
0.000148684
0.000147334
0.000145967
0.000144469
0.000142856
0.000141196
0.000139623
0.000138394
0.000137315
0.000136285
0.000134916
0.000133591
0.000132332
0.000130962
0.000129566
0.000128377
0.000127293
0.000126306
0.000125026
0.000123789
0.000122601
0.000121418
0.000120348
0.000119404
0.000118416
0.000117427
0.00011641
0.000115361
0.000114464
0.000113541
0.000112841
0.000112034
0.000111062
0.000110188
0.000109209
0.000108318
0.000107693
0.000106857
0.000106034
0.000105154
0.000104319
0.000103581
0.000102784
0.000102164
0.000101463
0.00010067
9.98633e-05
9.90458e-05
9.82039e-05
9.73417e-05
9.64379e-05
9.56719e-05
9.47373e-05
9.37645e-05
9.27761e-05
9.19013e-05
9.09387e-05
8.99561e-05
8.8985e-05
8.798e-05
8.70092e-05
8.60677e-05
8.5126e-05
8.42142e-05
8.32169e-05
8.22874e-05
8.12866e-05
8.02899e-05
7.93181e-05
)
;

boundaryField
{
    inlet
    {
        type            fixedValue;
        value           uniform 0;
    }
    outlet
    {
        type            zeroGradient;
    }
    yzfaces
    {
        type            empty;
    }
}


// ************************************************************************* //
