/*--------------------------------*- C++ -*----------------------------------*\
| =========                 |                                                 |
| \\      /  F ield         | foam-extend: Open Source CFD                    |
|  \\    /   O peration     | Version:     5.0                                |
|   \\  /    A nd           | Web:         http://www.foam-extend.org         |
|    \\/     M anipulation  |                                                 |
\*---------------------------------------------------------------------------*/
FoamFile
{
    version     2.0;
    format      ascii;
    class       volScalarField;
    location    "7";
    object      H2O.water;
}
// * * * * * * * * * * * * * * * * * * * * * * * * * * * * * * * * * * * * * //

dimensions      [0 0 0 0 0 0 0];

internalField   nonuniform List<scalar> 
100
(
0.0275617
0.0369144
0.0443403
0.0482107
0.0500097
0.0532431
0.0572064
0.0610574
0.0639378
0.0664411
0.068705
0.0709546
0.0728407
0.074731
0.0765041
0.0778692
0.0793363
0.0806426
0.0817893
0.0831844
0.0838891
0.0842425
0.0846893
0.0854513
0.086226
0.0869856
0.0878124
0.0888455
0.0897467
0.0904219
0.0911825
0.0918576
0.0924625
0.0930003
0.0934926
0.0940762
0.0947282
0.0953134
0.095853
0.0963731
0.0968505
0.0972768
0.0977005
0.0982557
0.0988125
0.0992229
0.0996188
0.100019
0.100451
0.100857
0.1013
0.101769
0.102228
0.102681
0.103043
0.103404
0.10379
0.104202
0.104533
0.104979
0.105307
0.105669
0.10597
0.10632
0.106669
0.106981
0.107344
0.107671
0.107935
0.108278
0.108539
0.108837
0.109128
0.109389
0.109771
0.110045
0.110334
0.110634
0.110883
0.111267
0.111604
0.111921
0.112257
0.112583
0.112933
0.113275
0.113647
0.114033
0.114438
0.114815
0.115177
0.115551
0.115913
0.116245
0.116586
0.116933
0.117326
0.117717
0.118071
0.118456
)
;

boundaryField
{
    inlet
    {
        type            fixedValue;
        value           uniform 0;
    }
    outlet
    {
        type            zeroGradient;
    }
    yzfaces
    {
        type            empty;
    }
}


// ************************************************************************* //
