/*--------------------------------*- C++ -*----------------------------------*\
| =========                 |                                                 |
| \\      /  F ield         | foam-extend: Open Source CFD                    |
|  \\    /   O peration     | Version:     5.0                                |
|   \\  /    A nd           | Web:         http://www.foam-extend.org         |
|    \\/     M anipulation  |                                                 |
\*---------------------------------------------------------------------------*/
FoamFile
{
    version     2.0;
    format      ascii;
    class       volScalarField;
    location    "7";
    object      H2O.gas;
}
// * * * * * * * * * * * * * * * * * * * * * * * * * * * * * * * * * * * * * //

dimensions      [0 0 0 0 0 0 0];

internalField   nonuniform List<scalar> 
100
(
0.000316963
0.000291628
0.00027398
0.000263885
0.000256731
0.000249039
0.000240296
0.000230498
0.000222816
0.00021634
0.000210077
0.000203964
0.000199004
0.000194298
0.000189746
0.000186267
0.000182167
0.000179255
0.000175725
0.000171719
0.000169422
0.000168797
0.000167787
0.000166285
0.00016417
0.000162093
0.000159802
0.00015681
0.000154674
0.000152787
0.00015098
0.000149162
0.000147415
0.000145954
0.000144544
0.000142796
0.000141355
0.000139633
0.000138594
0.000137379
0.00013621
0.000134901
0.000133537
0.000132145
0.000130856
0.000129377
0.00012829
0.000127213
0.000126319
0.000125259
0.00012419
0.000123069
0.00012192
0.000120932
0.000119955
0.000118926
0.000117962
0.000116759
0.000115738
0.000114595
0.000113625
0.000112706
0.000111808
0.000110665
0.000109841
0.000108954
0.000108062
0.000107296
0.000106448
0.000105675
0.00010492
0.000104252
0.000103546
0.000102843
0.000101941
0.000101111
0.000100296
9.95238e-05
9.87736e-05
9.79864e-05
9.72106e-05
9.64294e-05
9.56132e-05
9.4649e-05
9.38068e-05
9.27756e-05
9.18791e-05
9.08918e-05
8.9851e-05
8.89045e-05
8.7981e-05
8.70256e-05
8.60543e-05
8.51655e-05
8.42461e-05
8.33341e-05
8.2381e-05
8.14402e-05
8.04665e-05
7.95115e-05
)
;

boundaryField
{
    inlet
    {
        type            fixedValue;
        value           uniform 0;
    }
    outlet
    {
        type            zeroGradient;
    }
    yzfaces
    {
        type            empty;
    }
}


// ************************************************************************* //
