/*--------------------------------*- C++ -*----------------------------------*\
| =========                 |                                                 |
| \\      /  F ield         | foam-extend: Open Source CFD                    |
|  \\    /   O peration     | Version:     5.0                                |
|   \\  /    A nd           | Web:         http://www.foam-extend.org         |
|    \\/     M anipulation  |                                                 |
\*---------------------------------------------------------------------------*/
FoamFile
{
    version     2.0;
    format      ascii;
    class       volScalarField;
    location    "7";
    object      H2O.water;
}
// * * * * * * * * * * * * * * * * * * * * * * * * * * * * * * * * * * * * * //

dimensions      [0 0 0 0 0 0 0];

internalField   nonuniform List<scalar> 
100
(
0.0277202
0.0373898
0.0441406
0.0480009
0.0507222
0.0536569
0.0569813
0.060746
0.0636824
0.066157
0.0685537
0.0708877
0.0727694
0.0745781
0.0763262
0.0776546
0.0792146
0.0803306
0.0816779
0.0832127
0.0840986
0.0843237
0.0847221
0.0852803
0.0860913
0.0868817
0.0877546
0.0889044
0.0897206
0.0904438
0.0911282
0.09182
0.0924924
0.093054
0.093588
0.0942592
0.0948052
0.095466
0.0958591
0.0963237
0.0967711
0.0972694
0.0977922
0.0983261
0.0988161
0.099386
0.0997993
0.100217
0.100556
0.100956
0.101363
0.101793
0.102235
0.10261
0.102985
0.103377
0.103741
0.104208
0.104593
0.105034
0.105404
0.105753
0.106094
0.106536
0.106846
0.107186
0.107529
0.107818
0.108143
0.108441
0.108729
0.108981
0.109248
0.109514
0.109864
0.110183
0.110495
0.11079
0.111076
0.111374
0.111668
0.111968
0.112284
0.112655
0.112968
0.113371
0.113711
0.114091
0.114493
0.11485
0.1152
0.115565
0.115936
0.116275
0.116627
0.116973
0.117338
0.117698
0.118072
0.118436
)
;

boundaryField
{
    inlet
    {
        type            fixedValue;
        value           uniform 0;
    }
    outlet
    {
        type            zeroGradient;
    }
    yzfaces
    {
        type            empty;
    }
}


// ************************************************************************* //
