/*--------------------------------*- C++ -*----------------------------------*\
| =========                 |                                                 |
| \\      /  F ield         | foam-extend: Open Source CFD                    |
|  \\    /   O peration     | Version:     5.0                                |
|   \\  /    A nd           | Web:         http://www.foam-extend.org         |
|    \\/     M anipulation  |                                                 |
\*---------------------------------------------------------------------------*/
FoamFile
{
    version     2.0;
    format      ascii;
    class       volScalarField;
    location    "7";
    object      H2O.gas;
}
// * * * * * * * * * * * * * * * * * * * * * * * * * * * * * * * * * * * * * //

dimensions      [0 0 0 0 0 0 0];

internalField   nonuniform List<scalar> 
100
(
0.000317369
0.000292903
0.000273466
0.000263346
0.000258568
0.000250123
0.000239721
0.000229705
0.000222175
0.000215584
0.000209643
0.000203801
0.000198851
0.000193889
0.000189295
0.000185686
0.000181838
0.000178432
0.000175433
0.00017179
0.000169944
0.000168994
0.000167823
0.000165825
0.000163804
0.000161834
0.000159646
0.000156954
0.000154624
0.000152833
0.00015085
0.00014908
0.000147492
0.000146085
0.000144798
0.000143264
0.00014156
0.000140034
0.000138621
0.000137268
0.000136013
0.000134894
0.000133775
0.000132329
0.00013089
0.000129797
0.000128755
0.000127718
0.000126576
0.000125521
0.000124356
0.000123131
0.000121936
0.000120756
0.000119793
0.000118852
0.000117844
0.000116771
0.000115893
0.000114738
0.000113866
0.000112935
0.000112136
0.000111221
0.000110315
0.000109486
0.000108547
0.000107686
0.000106984
0.000106103
0.000105415
0.000104642
0.000103871
0.000103178
0.000102197
0.000101462
0.000100714
9.99339e-05
9.92572e-05
9.82854e-05
9.73925e-05
9.65585e-05
9.56874e-05
9.48273e-05
9.39174e-05
9.3011e-05
9.20374e-05
9.10291e-05
8.99804e-05
8.8989e-05
8.80416e-05
8.70688e-05
8.61185e-05
8.52392e-05
8.43502e-05
8.34346e-05
8.24135e-05
8.13959e-05
8.04605e-05
7.94588e-05
)
;

boundaryField
{
    inlet
    {
        type            fixedValue;
        value           uniform 0;
    }
    outlet
    {
        type            zeroGradient;
    }
    yzfaces
    {
        type            empty;
    }
}


// ************************************************************************* //
