/*--------------------------------*- C++ -*----------------------------------*\
| =========                 |                                                 |
| \\      /  F ield         | foam-extend: Open Source CFD                    |
|  \\    /   O peration     | Version:     5.0                                |
|   \\  /    A nd           | Web:         http://www.foam-extend.org         |
|    \\/     M anipulation  |                                                 |
\*---------------------------------------------------------------------------*/
FoamFile
{
    version     2.0;
    format      ascii;
    class       volScalarField;
    location    "7";
    object      Na.water;
}
// * * * * * * * * * * * * * * * * * * * * * * * * * * * * * * * * * * * * * //

dimensions      [0 0 0 0 0 0 0];

internalField   nonuniform List<scalar> 
100
(
0.00427301
0.00577172
0.00681046
0.00740299
0.00783114
0.00828662
0.00881147
0.00937974
0.00982864
0.0102097
0.0105804
0.0109404
0.0112386
0.0115127
0.0117755
0.0119855
0.0122252
0.0123936
0.0126019
0.0128375
0.012969
0.0130082
0.0130618
0.0131605
0.0132836
0.0134063
0.0135429
0.0137175
0.0138416
0.0139517
0.0140659
0.0141762
0.0142769
0.0143611
0.0144485
0.0145517
0.0146386
0.0147388
0.0148001
0.0148756
0.014941
0.0150166
0.0150918
0.0151716
0.0152488
0.0153298
0.0153952
0.0154573
0.0155123
0.0155729
0.0156345
0.0157017
0.0157721
0.0158327
0.0158876
0.0159463
0.0160044
0.0160719
0.0161349
0.0161964
0.0162551
0.0163144
0.0163672
0.0164329
0.0164832
0.0165352
0.0165862
0.0166348
0.0166859
0.0167322
0.016778
0.0168175
0.0168616
0.0169056
0.0169582
0.0170082
0.0170563
0.0171007
0.0171445
0.01719
0.0172374
0.0172813
0.0173299
0.0173868
0.0174399
0.0174975
0.0175546
0.0176138
0.0176691
0.0177265
0.0177832
0.0178387
0.0178948
0.0179457
0.0180007
0.0180543
0.018106
0.0181644
0.0182217
0.018275
)
;

boundaryField
{
    inlet
    {
        type            fixedValue;
        value           uniform 0;
    }
    outlet
    {
        type            zeroGradient;
    }
    yzfaces
    {
        type            empty;
    }
}


// ************************************************************************* //
