/*--------------------------------*- C++ -*----------------------------------*\
| =========                 |                                                 |
| \\      /  F ield         | foam-extend: Open Source CFD                    |
|  \\    /   O peration     | Version:     5.0                                |
|   \\  /    A nd           | Web:         http://www.foam-extend.org         |
|    \\/     M anipulation  |                                                 |
\*---------------------------------------------------------------------------*/
FoamFile
{
    version     2.0;
    format      ascii;
    class       volScalarField;
    location    "7";
    object      Na.water;
}
// * * * * * * * * * * * * * * * * * * * * * * * * * * * * * * * * * * * * * //

dimensions      [0 0 0 0 0 0 0];

internalField   nonuniform List<scalar> 
100
(
0.0042498
0.00569022
0.00683982
0.00743611
0.00773056
0.00821947
0.00883801
0.00941707
0.00986287
0.0102583
0.0106104
0.0109415
0.0112349
0.0115326
0.0117976
0.0120153
0.0122465
0.012446
0.0126249
0.0128394
0.0129447
0.0130025
0.0130735
0.0131971
0.0133155
0.013426
0.0135622
0.013716
0.0138473
0.0139549
0.0140734
0.0141754
0.0142664
0.0143492
0.0144231
0.0145168
0.0146166
0.0147039
0.0147834
0.0148608
0.0149342
0.0149997
0.0150708
0.0151566
0.0152359
0.0153029
0.0153668
0.0154309
0.0155042
0.0155656
0.0156365
0.0157058
0.0157736
0.0158397
0.0159011
0.0159555
0.0160121
0.0160769
0.0161313
0.0161994
0.0162495
0.0163028
0.0163517
0.0164081
0.0164633
0.0165122
0.0165624
0.0166111
0.016656
0.0167049
0.0167532
0.0167982
0.0168442
0.0168848
0.0169375
0.0169841
0.0170281
0.017074
0.0171191
0.0171715
0.0172275
0.0172751
0.0173259
0.0173775
0.017431
0.0174876
0.0175482
0.0176074
0.0176637
0.017722
0.0177785
0.0178341
0.0178907
0.0179413
0.0179926
0.0180489
0.0181068
0.0181662
0.0182241
0.0182767
)
;

boundaryField
{
    inlet
    {
        type            fixedValue;
        value           uniform 0;
    }
    outlet
    {
        type            zeroGradient;
    }
    yzfaces
    {
        type            empty;
    }
}


// ************************************************************************* //
