/*--------------------------------*- C++ -*----------------------------------*\
| =========                 |                                                 |
| \\      /  F ield         | foam-extend: Open Source CFD                    |
|  \\    /   O peration     | Version:     5.0                                |
|   \\  /    A nd           | Web:         http://www.foam-extend.org         |
|    \\/     M anipulation  |                                                 |
\*---------------------------------------------------------------------------*/
FoamFile
{
    version     2.0;
    format      ascii;
    class       volScalarField;
    location    "7";
    object      Na.water;
}
// * * * * * * * * * * * * * * * * * * * * * * * * * * * * * * * * * * * * * //

dimensions      [0 0 0 0 0 0 0];

internalField   nonuniform List<scalar> 
100
(
0.00425581
0.00567384
0.00672132
0.00738569
0.00778889
0.00825738
0.00879029
0.0094712
0.00990704
0.0102304
0.0105988
0.010901
0.0111882
0.0114958
0.011745
0.0119803
0.012238
0.012404
0.0125468
0.0127543
0.0128778
0.0129611
0.0130411
0.0131775
0.0133037
0.0134211
0.0135889
0.0137476
0.0138502
0.0139713
0.014086
0.0141975
0.0142814
0.0143648
0.0144504
0.0145461
0.014643
0.0147302
0.0147954
0.0148646
0.0149277
0.0150073
0.0150893
0.0151631
0.0152464
0.0153299
0.0153914
0.0154567
0.0155145
0.0155912
0.0156659
0.0157316
0.0158033
0.0158695
0.0159217
0.0159807
0.0160351
0.0160968
0.0161589
0.0162115
0.0162697
0.0163128
0.0163615
0.0164166
0.0164754
0.0165323
0.0165871
0.0166267
0.0166736
0.0167234
0.0167718
0.0168209
0.0168653
0.0169135
0.0169484
0.0169872
0.0170309
0.0170814
0.0171285
0.0171826
0.0172327
0.0172834
0.0173289
0.0173799
0.0174399
0.0175014
0.0175492
0.0176013
0.0176578
0.017719
0.0177772
0.0178378
0.0178945
0.0179532
0.0180059
0.0180587
0.0181158
0.0181752
0.0182351
0.018303
)
;

boundaryField
{
    inlet
    {
        type            fixedValue;
        value           uniform 0;
    }
    outlet
    {
        type            zeroGradient;
    }
    yzfaces
    {
        type            empty;
    }
}


// ************************************************************************* //
