/*--------------------------------*- C++ -*----------------------------------*\
| =========                 |                                                 |
| \\      /  F ield         | foam-extend: Open Source CFD                    |
|  \\    /   O peration     | Version:     5.0                                |
|   \\  /    A nd           | Web:         http://www.foam-extend.org         |
|    \\/     M anipulation  |                                                 |
\*---------------------------------------------------------------------------*/
FoamFile
{
    version     2.0;
    format      ascii;
    class       volScalarField;
    location    "7";
    object      Ns;
}
// * * * * * * * * * * * * * * * * * * * * * * * * * * * * * * * * * * * * * //

dimensions      [0 -3 0 0 1 0 0];

internalField   nonuniform List<scalar> 
100
(
56.8032
85.662
77.797
164.21
165.158
157.199
112.367
67.2205
49.0714
65.3936
59.7926
64.5886
32.5791
40.3034
33.2633
13.7854
38.1362
31.7053
18.5038
44.7311
61.3326
72.5235
78.8222
43.7274
58.814
56.7781
57.9172
50.8974
60.9933
46.3195
50.8306
40.5425
37.0086
56.0887
44.443
42.957
57.0211
50.2585
61.2551
57.1398
58.0309
52.3234
58.6646
33.7335
53.8369
71.5574
55.2258
64.1193
43.2262
68.5804
61.0181
46.6087
60.0289
46.9597
61.24
52.7803
85.3851
53.3119
59.8085
58.3629
62.976
56.5279
56.8931
65.7322
57.7049
62.1335
50.8181
57.607
70.6985
61.76
67.8911
47.0359
66.6733
61.3017
59.9632
63.3664
61.3201
59.5914
51.8739
60.0936
65.952
60.8499
61.7989
54.0447
55.3471
49.9595
48.2512
53.3466
46.3985
52.453
45.7241
51.6125
46.0156
51.3087
55.5455
50.2771
49.8898
53.0958
50.3142
51.0442
)
;

boundaryField
{
    inlet
    {
        type            fixedValue;
        value           uniform 0;
    }
    outlet
    {
        type            zeroGradient;
    }
    yzfaces
    {
        type            empty;
    }
}


// ************************************************************************* //
