/*--------------------------------*- C++ -*----------------------------------*\
| =========                 |                                                 |
| \\      /  F ield         | foam-extend: Open Source CFD                    |
|  \\    /   O peration     | Version:     5.0                                |
|   \\  /    A nd           | Web:         http://www.foam-extend.org         |
|    \\/     M anipulation  |                                                 |
\*---------------------------------------------------------------------------*/
FoamFile
{
    version     2.0;
    format      ascii;
    class       volScalarField;
    location    "7";
    object      Ns;
}
// * * * * * * * * * * * * * * * * * * * * * * * * * * * * * * * * * * * * * //

dimensions      [0 -3 0 0 1 0 0];

internalField   nonuniform List<scalar> 
100
(
40.509
63.8971
94.7663
167.727
173.302
177.014
102.758
51.2947
73.3222
32.8107
60.6453
75.289
42.8017
45.4352
41.7634
0.441124
56.0089
31.8654
65.1484
35.9629
59.6374
52.1973
38.4653
63.52
58.8789
77.5121
17.1532
31.5462
50.9663
49.9772
30.3382
60.7468
61.8828
66.0879
40.4643
58.5565
57.8818
62.4619
73.5264
52.4727
52.3609
40.1913
50.3354
66.0095
44.5076
45.088
50.5697
63.1343
56.0364
44.5764
31.176
38.1836
57.1476
59.0382
71.1977
63.3819
46.6711
46.2415
60.8776
47.4642
72.5049
42.3908
55.3925
64.2312
48.219
53.7137
58.1397
49.1818
54.3505
47.7914
69.6295
53.5698
48.7321
47.7202
56.1772
58.906
47.5436
58.8842
54.3943
69.2448
48.5003
52.3831
44.3848
44.9986
50.2393
44.7739
45.8505
51.7335
45.3799
44.652
52.9088
44.3614
48.4824
50.1364
48.8345
47.3957
51.0465
52.4415
45.0693
53.0709
)
;

boundaryField
{
    inlet
    {
        type            fixedValue;
        value           uniform 0;
    }
    outlet
    {
        type            zeroGradient;
    }
    yzfaces
    {
        type            empty;
    }
}


// ************************************************************************* //
