/*--------------------------------*- C++ -*----------------------------------*\
| =========                 |                                                 |
| \\      /  F ield         | foam-extend: Open Source CFD                    |
|  \\    /   O peration     | Version:     5.0                                |
|   \\  /    A nd           | Web:         http://www.foam-extend.org         |
|    \\/     M anipulation  |                                                 |
\*---------------------------------------------------------------------------*/
FoamFile
{
    version     2.0;
    format      ascii;
    class       volScalarField;
    location    "7";
    object      Ns;
}
// * * * * * * * * * * * * * * * * * * * * * * * * * * * * * * * * * * * * * //

dimensions      [0 -3 0 0 1 0 0];

internalField   nonuniform List<scalar> 
100
(
46.4124
120.352
67.4491
181.794
183.642
165.726
87.0043
62.5136
109.237
77.0101
17.2285
102.519
10.7831
46.8943
61.1059
43.5115
41.3368
49.9742
40.5892
25.6577
50.7613
84.5419
50.408
28.5987
58.8074
46.9105
58.7548
51.8854
62.7119
33.7067
36.3924
79.2051
52.1153
57.7021
37.4903
49.0937
22.7087
39.5214
44.7968
46.2133
54.2999
50.5209
59.5431
63.2435
47.7503
54.1498
71.9456
54.8402
79.7286
60.3458
51.8024
55.7428
50.5212
64.5965
55.3956
72.4741
43.4829
83.7609
72.4158
54.3574
58.8291
56.873
47.6118
67.0268
51.8604
53.4993
59.8637
60.3633
67.0807
66.7999
61.9789
55.5168
65.4815
65.7025
67.1603
68.3509
66.6291
67.0349
57.2369
57.3185
70.2196
58.9511
61.3695
56.7952
52.3462
57.5982
56.7665
58.8298
58.801
53.9417
58.0765
53.5476
52.6591
54.9632
54.2047
49.6016
53.4966
55.6691
51.348
55.0015
)
;

boundaryField
{
    inlet
    {
        type            fixedValue;
        value           uniform 0;
    }
    outlet
    {
        type            zeroGradient;
    }
    yzfaces
    {
        type            empty;
    }
}


// ************************************************************************* //
