/*--------------------------------*- C++ -*----------------------------------*\
| =========                 |                                                 |
| \\      /  F ield         | foam-extend: Open Source CFD                    |
|  \\    /   O peration     | Version:     5.0                                |
|   \\  /    A nd           | Web:         http://www.foam-extend.org         |
|    \\/     M anipulation  |                                                 |
\*---------------------------------------------------------------------------*/
FoamFile
{
    version     2.0;
    format      ascii;
    class       surfaceScalarField;
    location    "7";
    object      phi;
}
// * * * * * * * * * * * * * * * * * * * * * * * * * * * * * * * * * * * * * //

dimensions      [0 3 -1 0 0 0 0];

internalField   nonuniform List<scalar> 
99
(
1.22037e-06
1.24032e-06
1.23882e-06
1.24186e-06
1.23568e-06
1.22401e-06
1.212e-06
1.21329e-06
1.22663e-06
1.21871e-06
1.21594e-06
1.21465e-06
1.21927e-06
1.21374e-06
1.22388e-06
1.22299e-06
1.21848e-06
1.21936e-06
1.22155e-06
1.22254e-06
1.22845e-06
1.22356e-06
1.21611e-06
1.21276e-06
1.21136e-06
1.21354e-06
1.21005e-06
1.20989e-06
1.2138e-06
1.21124e-06
1.21305e-06
1.21235e-06
1.2128e-06
1.2124e-06
1.21277e-06
1.21183e-06
1.20884e-06
1.21201e-06
1.21058e-06
1.21257e-06
1.21265e-06
1.21099e-06
1.20951e-06
1.20781e-06
1.21154e-06
1.20948e-06
1.2084e-06
1.20746e-06
1.20516e-06
1.20388e-06
1.20329e-06
1.2021e-06
1.20229e-06
1.20709e-06
1.20863e-06
1.20646e-06
1.20693e-06
1.20669e-06
1.20577e-06
1.20814e-06
1.20618e-06
1.20818e-06
1.20872e-06
1.20781e-06
1.21122e-06
1.20752e-06
1.20699e-06
1.20764e-06
1.2055e-06
1.20515e-06
1.20637e-06
1.20716e-06
1.20687e-06
1.20422e-06
1.20581e-06
1.20124e-06
1.20038e-06
1.19994e-06
1.19659e-06
1.19893e-06
1.19947e-06
1.20018e-06
1.20001e-06
1.19894e-06
1.20021e-06
1.19765e-06
1.19581e-06
1.19467e-06
1.19444e-06
1.19361e-06
1.19212e-06
1.19316e-06
1.19242e-06
1.192e-06
1.19235e-06
1.19074e-06
1.18932e-06
1.18983e-06
1.18908e-06
)
;

boundaryField
{
    inlet
    {
        type            calculated;
        value           uniform -1.225e-06;
    }
    outlet
    {
        type            calculated;
        value           uniform 1.18898e-06;
    }
    yzfaces
    {
        type            empty;
    }
}


// ************************************************************************* //
