/*--------------------------------*- C++ -*----------------------------------*\
| =========                 |                                                 |
| \\      /  F ield         | foam-extend: Open Source CFD                    |
|  \\    /   O peration     | Version:     5.0                                |
|   \\  /    A nd           | Web:         http://www.foam-extend.org         |
|    \\/     M anipulation  |                                                 |
\*---------------------------------------------------------------------------*/
FoamFile
{
    version     2.0;
    format      ascii;
    class       surfaceScalarField;
    location    "7";
    object      phi;
}
// * * * * * * * * * * * * * * * * * * * * * * * * * * * * * * * * * * * * * //

dimensions      [0 3 -1 0 0 0 0];

internalField   nonuniform List<scalar> 
99
(
1.23744e-06
1.2174e-06
1.21912e-06
1.22497e-06
1.22491e-06
1.21906e-06
1.19999e-06
1.1992e-06
1.19589e-06
1.19299e-06
1.19337e-06
1.19236e-06
1.18522e-06
1.18237e-06
1.18976e-06
1.18955e-06
1.18877e-06
1.18645e-06
1.19027e-06
1.1905e-06
1.20162e-06
1.19833e-06
1.20882e-06
1.20602e-06
1.2044e-06
1.2014e-06
1.19941e-06
1.20252e-06
1.20237e-06
1.20724e-06
1.20589e-06
1.20386e-06
1.1995e-06
1.20434e-06
1.20159e-06
1.20574e-06
1.20117e-06
1.20173e-06
1.19831e-06
1.19745e-06
1.19693e-06
1.19738e-06
1.19579e-06
1.19519e-06
1.19418e-06
1.1946e-06
1.19203e-06
1.19661e-06
1.1987e-06
1.20078e-06
1.19582e-06
1.19521e-06
1.19564e-06
1.19722e-06
1.19625e-06
1.19561e-06
1.19525e-06
1.19736e-06
1.19579e-06
1.19637e-06
1.19737e-06
1.19762e-06
1.19732e-06
1.19726e-06
1.19775e-06
1.19516e-06
1.19532e-06
1.1923e-06
1.19015e-06
1.19082e-06
1.19094e-06
1.19121e-06
1.18548e-06
1.18168e-06
1.17874e-06
1.17851e-06
1.17963e-06
1.17949e-06
1.17855e-06
1.17665e-06
1.17295e-06
1.17268e-06
1.17346e-06
1.17492e-06
1.17205e-06
1.172e-06
1.1735e-06
1.17527e-06
1.18084e-06
1.18261e-06
1.18244e-06
1.18226e-06
1.18228e-06
1.18179e-06
1.18231e-06
1.18162e-06
1.18052e-06
1.18107e-06
1.18165e-06
)
;

boundaryField
{
    inlet
    {
        type            calculated;
        value           uniform -1.225e-06;
    }
    outlet
    {
        type            calculated;
        value           uniform 1.18314e-06;
    }
    yzfaces
    {
        type            empty;
    }
}


// ************************************************************************* //
