/*--------------------------------*- C++ -*----------------------------------*\
| =========                 |                                                 |
| \\      /  F ield         | foam-extend: Open Source CFD                    |
|  \\    /   O peration     | Version:     5.0                                |
|   \\  /    A nd           | Web:         http://www.foam-extend.org         |
|    \\/     M anipulation  |                                                 |
\*---------------------------------------------------------------------------*/
FoamFile
{
    version     2.0;
    format      ascii;
    class       surfaceScalarField;
    location    "7";
    object      phi;
}
// * * * * * * * * * * * * * * * * * * * * * * * * * * * * * * * * * * * * * //

dimensions      [0 3 -1 0 0 0 0];

internalField   nonuniform List<scalar> 
99
(
1.2292e-06
1.23979e-06
1.22972e-06
1.24403e-06
1.23569e-06
1.22581e-06
1.21807e-06
1.21295e-06
1.21288e-06
1.20764e-06
1.2088e-06
1.21283e-06
1.219e-06
1.22056e-06
1.2296e-06
1.22922e-06
1.22931e-06
1.22758e-06
1.22621e-06
1.23461e-06
1.23106e-06
1.22961e-06
1.21924e-06
1.2165e-06
1.21886e-06
1.21346e-06
1.21564e-06
1.21567e-06
1.21784e-06
1.21919e-06
1.22505e-06
1.22944e-06
1.23075e-06
1.23001e-06
1.22949e-06
1.22655e-06
1.2291e-06
1.23022e-06
1.23415e-06
1.23392e-06
1.23346e-06
1.23396e-06
1.2304e-06
1.23418e-06
1.23085e-06
1.22912e-06
1.23126e-06
1.23059e-06
1.2311e-06
1.23286e-06
1.23057e-06
1.23486e-06
1.23771e-06
1.23616e-06
1.23681e-06
1.2382e-06
1.23517e-06
1.23708e-06
1.23521e-06
1.23698e-06
1.23822e-06
1.23603e-06
1.23517e-06
1.23731e-06
1.23636e-06
1.23641e-06
1.23763e-06
1.23595e-06
1.23521e-06
1.23338e-06
1.23169e-06
1.23312e-06
1.23306e-06
1.2323e-06
1.23193e-06
1.23048e-06
1.23182e-06
1.23284e-06
1.23062e-06
1.22785e-06
1.2254e-06
1.22356e-06
1.22117e-06
1.22162e-06
1.22012e-06
1.21636e-06
1.21175e-06
1.20805e-06
1.2091e-06
1.20679e-06
1.20687e-06
1.20579e-06
1.20537e-06
1.2054e-06
1.2055e-06
1.20632e-06
1.20583e-06
1.20614e-06
1.20639e-06
)
;

boundaryField
{
    inlet
    {
        type            calculated;
        value           uniform -1.225e-06;
    }
    outlet
    {
        type            calculated;
        value           uniform 1.20425e-06;
    }
    yzfaces
    {
        type            empty;
    }
}


// ************************************************************************* //
