/*--------------------------------*- C++ -*----------------------------------*\
| =========                 |                                                 |
| \\      /  F ield         | foam-extend: Open Source CFD                    |
|  \\    /   O peration     | Version:     5.0                                |
|   \\  /    A nd           | Web:         http://www.foam-extend.org         |
|    \\/     M anipulation  |                                                 |
\*---------------------------------------------------------------------------*/
FoamFile
{
    version     2.0;
    format      ascii;
    class       surfaceScalarField;
    location    "7";
    object      phi.water;
}
// * * * * * * * * * * * * * * * * * * * * * * * * * * * * * * * * * * * * * //

dimensions      [0 3 -1 0 0 0 0];

internalField   nonuniform List<scalar> 
99
(
8.39587e-08
1.41655e-07
1.97271e-07
2.3486e-07
2.61242e-07
2.90732e-07
3.24778e-07
3.77023e-07
4.22286e-07
4.62607e-07
5.0685e-07
5.54447e-07
5.91214e-07
6.3191e-07
6.80988e-07
7.15544e-07
7.59132e-07
7.90464e-07
8.31952e-07
8.87355e-07
9.29314e-07
9.35495e-07
9.54615e-07
9.71586e-07
1.00118e-06
1.03033e-06
1.06193e-06
1.1138e-06
1.15049e-06
1.18773e-06
1.21698e-06
1.24907e-06
1.27786e-06
1.31219e-06
1.33529e-06
1.376e-06
1.40017e-06
1.43902e-06
1.4556e-06
1.48246e-06
1.50657e-06
1.53807e-06
1.56676e-06
1.59865e-06
1.62957e-06
1.66728e-06
1.69155e-06
1.72669e-06
1.75066e-06
1.78134e-06
1.80442e-06
1.83249e-06
1.86662e-06
1.89596e-06
1.92308e-06
1.95183e-06
1.97792e-06
2.01968e-06
2.04599e-06
2.08482e-06
2.11639e-06
2.14665e-06
2.17475e-06
2.2134e-06
2.24139e-06
2.26675e-06
2.29793e-06
2.31798e-06
2.34402e-06
2.37291e-06
2.39939e-06
2.4244e-06
2.43603e-06
2.45405e-06
2.48172e-06
2.51145e-06
2.54462e-06
2.57432e-06
2.60121e-06
2.62555e-06
2.64821e-06
2.67856e-06
2.71158e-06
2.75352e-06
2.7795e-06
2.82464e-06
2.8636e-06
2.91141e-06
2.9695e-06
3.01301e-06
3.05203e-06
3.09338e-06
3.13643e-06
3.17586e-06
3.21772e-06
3.2567e-06
3.29798e-06
3.34219e-06
3.39044e-06
)
;

boundaryField
{
    inlet
    {
        type            fixedValue;
        value           uniform 0;
    }
    outlet
    {
        type            calculated;
        value           uniform 3.44717e-06;
    }
    yzfaces
    {
        type            empty;
    }
}


// ************************************************************************* //
