/*--------------------------------*- C++ -*----------------------------------*\
| =========                 |                                                 |
| \\      /  F ield         | foam-extend: Open Source CFD                    |
|  \\    /   O peration     | Version:     5.0                                |
|   \\  /    A nd           | Web:         http://www.foam-extend.org         |
|    \\/     M anipulation  |                                                 |
\*---------------------------------------------------------------------------*/
FoamFile
{
    version     2.0;
    format      ascii;
    class       surfaceScalarField;
    location    "7";
    object      phi.water;
}
// * * * * * * * * * * * * * * * * * * * * * * * * * * * * * * * * * * * * * //

dimensions      [0 3 -1 0 0 0 0];

internalField   nonuniform List<scalar> 
99
(
8.26373e-08
1.39633e-07
2.02699e-07
2.42429e-07
2.5567e-07
2.85206e-07
3.30622e-07
3.8771e-07
4.37406e-07
4.78343e-07
5.19289e-07
5.66735e-07
6.1015e-07
6.5379e-07
7.0587e-07
7.41501e-07
7.82536e-07
8.22966e-07
8.59456e-07
9.10786e-07
9.41655e-07
9.49382e-07
9.5855e-07
9.85147e-07
1.01263e-06
1.04397e-06
1.07381e-06
1.11881e-06
1.1629e-06
1.19095e-06
1.22754e-06
1.2596e-06
1.29065e-06
1.31827e-06
1.34289e-06
1.3724e-06
1.4044e-06
1.44172e-06
1.47047e-06
1.50289e-06
1.53181e-06
1.55549e-06
1.57852e-06
1.61305e-06
1.65266e-06
1.67759e-06
1.703e-06
1.72718e-06
1.75389e-06
1.77965e-06
1.80912e-06
1.8422e-06
1.87714e-06
1.91672e-06
1.94797e-06
1.97191e-06
2.00187e-06
2.03492e-06
2.06083e-06
2.09981e-06
2.12473e-06
2.15896e-06
2.18471e-06
2.21419e-06
2.25062e-06
2.27145e-06
2.30246e-06
2.33401e-06
2.35443e-06
2.38564e-06
2.41354e-06
2.44226e-06
2.46987e-06
2.48917e-06
2.52951e-06
2.54714e-06
2.5749e-06
2.60283e-06
2.62034e-06
2.66379e-06
2.70096e-06
2.73589e-06
2.76979e-06
2.80258e-06
2.84375e-06
2.87381e-06
2.90989e-06
2.9506e-06
2.9958e-06
3.03602e-06
3.07479e-06
3.11974e-06
3.16129e-06
3.19846e-06
3.23909e-06
3.27743e-06
3.32135e-06
3.37117e-06
3.41123e-06
)
;

boundaryField
{
    inlet
    {
        type            fixedValue;
        value           uniform 0;
    }
    outlet
    {
        type            calculated;
        value           uniform 3.46408e-06;
    }
    yzfaces
    {
        type            empty;
    }
}


// ************************************************************************* //
