/*--------------------------------*- C++ -*----------------------------------*\
| =========                 |                                                 |
| \\      /  F ield         | foam-extend: Open Source CFD                    |
|  \\    /   O peration     | Version:     5.0                                |
|   \\  /    A nd           | Web:         http://www.foam-extend.org         |
|    \\/     M anipulation  |                                                 |
\*---------------------------------------------------------------------------*/
FoamFile
{
    version     2.0;
    format      ascii;
    class       surfaceScalarField;
    location    "7";
    object      phi.water;
}
// * * * * * * * * * * * * * * * * * * * * * * * * * * * * * * * * * * * * * //

dimensions      [0 3 -1 0 0 0 0];

internalField   nonuniform List<scalar> 
99
(
8.32135e-08
1.40167e-07
1.93468e-07
2.3792e-07
2.61268e-07
2.9083e-07
3.28228e-07
3.91053e-07
4.3713e-07
4.70283e-07
5.16397e-07
5.59673e-07
6.0206e-07
6.51922e-07
6.98425e-07
7.37525e-07
7.88764e-07
8.22313e-07
8.46983e-07
8.99979e-07
9.26129e-07
9.46247e-07
9.52566e-07
9.84868e-07
1.02023e-06
1.04287e-06
1.09051e-06
1.13796e-06
1.16716e-06
1.20293e-06
1.24554e-06
1.28564e-06
1.31251e-06
1.33842e-06
1.36712e-06
1.39866e-06
1.43678e-06
1.4737e-06
1.50492e-06
1.52994e-06
1.55181e-06
1.5835e-06
1.61197e-06
1.64666e-06
1.67577e-06
1.71078e-06
1.74362e-06
1.77305e-06
1.79897e-06
1.83474e-06
1.86749e-06
1.90828e-06
1.94583e-06
1.97589e-06
2.00464e-06
2.03675e-06
2.06232e-06
2.09698e-06
2.12808e-06
2.1604e-06
2.19274e-06
2.21166e-06
2.23561e-06
2.27355e-06
2.30222e-06
2.33595e-06
2.37049e-06
2.38806e-06
2.41675e-06
2.44304e-06
2.47263e-06
2.50689e-06
2.53304e-06
2.56278e-06
2.58658e-06
2.60948e-06
2.64355e-06
2.67686e-06
2.704e-06
2.73187e-06
2.76076e-06
2.79461e-06
2.81977e-06
2.86024e-06
2.89632e-06
2.92792e-06
2.95506e-06
2.98836e-06
3.03281e-06
3.07015e-06
3.11406e-06
3.15479e-06
3.19687e-06
3.24048e-06
3.28187e-06
3.33163e-06
3.37157e-06
3.42096e-06
3.46898e-06
)
;

boundaryField
{
    inlet
    {
        type            fixedValue;
        value           uniform 0;
    }
    outlet
    {
        type            calculated;
        value           uniform 3.51204e-06;
    }
    yzfaces
    {
        type            empty;
    }
}


// ************************************************************************* //
