/*--------------------------------*- C++ -*----------------------------------*\
| =========                 |                                                 |
| \\      /  F ield         | foam-extend: Open Source CFD                    |
|  \\    /   O peration     | Version:     5.0                                |
|   \\  /    A nd           | Web:         http://www.foam-extend.org         |
|    \\/     M anipulation  |                                                 |
\*---------------------------------------------------------------------------*/
FoamFile
{
    version     2.0;
    format      ascii;
    class       volVectorField;
    location    "7";
    object      U.gas;
}
// * * * * * * * * * * * * * * * * * * * * * * * * * * * * * * * * * * * * * //

dimensions      [0 1 -1 0 0 0 0];

internalField   nonuniform List<vector> 
100
(
(0.00616614 0 0)
(0.00665997 0 0)
(0.00701104 0 0)
(0.0072785 0 0)
(0.00748027 0 0)
(0.00767303 0 0)
(0.0078453 0 0)
(0.00807626 0 0)
(0.00830046 0 0)
(0.00848813 0 0)
(0.00869141 0 0)
(0.00890378 0 0)
(0.00904881 0 0)
(0.00918421 0 0)
(0.00937406 0 0)
(0.00953135 0 0)
(0.00969368 0 0)
(0.00979026 0 0)
(0.00994504 0 0)
(0.0101326 0 0)
(0.0102626 0 0)
(0.0103068 0 0)
(0.0103845 0 0)
(0.0104877 0 0)
(0.0105655 0 0)
(0.0106339 0 0)
(0.0107135 0 0)
(0.0108591 0 0)
(0.0109565 0 0)
(0.0110578 0 0)
(0.0111538 0 0)
(0.0112193 0 0)
(0.0112659 0 0)
(0.0113281 0 0)
(0.0113992 0 0)
(0.0114892 0 0)
(0.0115448 0 0)
(0.0116062 0 0)
(0.0116252 0 0)
(0.0116608 0 0)
(0.0117034 0 0)
(0.011762 0 0)
(0.0118159 0 0)
(0.011866 0 0)
(0.0119089 0 0)
(0.0119717 0 0)
(0.0119966 0 0)
(0.0120503 0 0)
(0.0121163 0 0)
(0.0121856 0 0)
(0.0122121 0 0)
(0.0122292 0 0)
(0.0122745 0 0)
(0.0123176 0 0)
(0.0123575 0 0)
(0.0123882 0 0)
(0.0124173 0 0)
(0.012478 0 0)
(0.0125106 0 0)
(0.0125494 0 0)
(0.0125831 0 0)
(0.0126178 0 0)
(0.0126445 0 0)
(0.0126883 0 0)
(0.012702 0 0)
(0.0127191 0 0)
(0.0127317 0 0)
(0.012732 0 0)
(0.0127308 0 0)
(0.0127393 0 0)
(0.0127619 0 0)
(0.0127746 0 0)
(0.012764 0 0)
(0.012729 0 0)
(0.0127212 0 0)
(0.0127185 0 0)
(0.0127388 0 0)
(0.0127545 0 0)
(0.0127578 0 0)
(0.0127569 0 0)
(0.0127373 0 0)
(0.0127255 0 0)
(0.0127417 0 0)
(0.0127742 0 0)
(0.0127666 0 0)
(0.0127681 0 0)
(0.0127715 0 0)
(0.0127996 0 0)
(0.0128439 0 0)
(0.0128783 0 0)
(0.0128842 0 0)
(0.0128806 0 0)
(0.0128754 0 0)
(0.012858 0 0)
(0.0128503 0 0)
(0.0128383 0 0)
(0.0128172 0 0)
(0.0127971 0 0)
(0.0127862 0 0)
(0.0127687 0 0)
)
;

boundaryField
{
    inlet
    {
        type            fixedValue;
        value           uniform (0.005 0 0);
    }
    outlet
    {
        type            zeroGradient;
    }
    yzfaces
    {
        type            empty;
    }
}


// ************************************************************************* //
