/*--------------------------------*- C++ -*----------------------------------*\
| =========                 |                                                 |
| \\      /  F ield         | foam-extend: Open Source CFD                    |
|  \\    /   O peration     | Version:     5.0                                |
|   \\  /    A nd           | Web:         http://www.foam-extend.org         |
|    \\/     M anipulation  |                                                 |
\*---------------------------------------------------------------------------*/
FoamFile
{
    version     2.0;
    format      ascii;
    class       volVectorField;
    location    "7";
    object      U.gas;
}
// * * * * * * * * * * * * * * * * * * * * * * * * * * * * * * * * * * * * * //

dimensions      [0 1 -1 0 0 0 0];

internalField   nonuniform List<vector> 
100
(
(0.00613923 0 0)
(0.00666433 0 0)
(0.00706915 0 0)
(0.00736069 0 0)
(0.00755265 0 0)
(0.00771686 0 0)
(0.00792278 0 0)
(0.00823627 0 0)
(0.00844729 0 0)
(0.00860588 0 0)
(0.00880899 0 0)
(0.00901143 0 0)
(0.0092296 0 0)
(0.00945992 0 0)
(0.00966228 0 0)
(0.00984803 0 0)
(0.0100323 0 0)
(0.0101302 0 0)
(0.0102166 0 0)
(0.0104059 0 0)
(0.0105016 0 0)
(0.0105371 0 0)
(0.0105386 0 0)
(0.0105972 0 0)
(0.0106903 0 0)
(0.0107594 0 0)
(0.0108866 0 0)
(0.0110146 0 0)
(0.0110864 0 0)
(0.0111968 0 0)
(0.011319 0 0)
(0.0114502 0 0)
(0.0115302 0 0)
(0.0115949 0 0)
(0.011659 0 0)
(0.0117167 0 0)
(0.0117896 0 0)
(0.0118763 0 0)
(0.0119494 0 0)
(0.0120122 0 0)
(0.0120528 0 0)
(0.0121226 0 0)
(0.0121652 0 0)
(0.0122191 0 0)
(0.0122841 0 0)
(0.0123191 0 0)
(0.012367 0 0)
(0.0124169 0 0)
(0.0124532 0 0)
(0.0125278 0 0)
(0.012575 0 0)
(0.0126303 0 0)
(0.0127147 0 0)
(0.0127601 0 0)
(0.0127878 0 0)
(0.0128375 0 0)
(0.0128655 0 0)
(0.0128984 0 0)
(0.0129378 0 0)
(0.0129623 0 0)
(0.0130113 0 0)
(0.0130212 0 0)
(0.0130367 0 0)
(0.0130818 0 0)
(0.0131095 0 0)
(0.0131397 0 0)
(0.0131702 0 0)
(0.0131733 0 0)
(0.013194 0 0)
(0.013202 0 0)
(0.0132085 0 0)
(0.0132253 0 0)
(0.0132467 0 0)
(0.0132647 0 0)
(0.0132608 0 0)
(0.0132695 0 0)
(0.0132906 0 0)
(0.0133195 0 0)
(0.0133285 0 0)
(0.0133164 0 0)
(0.013303 0 0)
(0.0132951 0 0)
(0.0132725 0 0)
(0.0132823 0 0)
(0.0132882 0 0)
(0.0132704 0 0)
(0.0132219 0 0)
(0.0131846 0 0)
(0.0131746 0 0)
(0.0131675 0 0)
(0.0131562 0 0)
(0.0131455 0 0)
(0.0131285 0 0)
(0.0131169 0 0)
(0.0131054 0 0)
(0.013104 0 0)
(0.0130864 0 0)
(0.013074 0 0)
(0.013054 0 0)
(0.0130228 0 0)
)
;

boundaryField
{
    inlet
    {
        type            fixedValue;
        value           uniform (0.005 0 0);
    }
    outlet
    {
        type            zeroGradient;
    }
    yzfaces
    {
        type            empty;
    }
}


// ************************************************************************* //
