/*--------------------------------*- C++ -*----------------------------------*\
| =========                 |                                                 |
| \\      /  F ield         | foam-extend: Open Source CFD                    |
|  \\    /   O peration     | Version:     5.0                                |
|   \\  /    A nd           | Web:         http://www.foam-extend.org         |
|    \\/     M anipulation  |                                                 |
\*---------------------------------------------------------------------------*/
FoamFile
{
    version     2.0;
    format      ascii;
    class       volVectorField;
    location    "7";
    object      U.gas;
}
// * * * * * * * * * * * * * * * * * * * * * * * * * * * * * * * * * * * * * //

dimensions      [0 1 -1 0 0 0 0];

internalField   nonuniform List<vector> 
100
(
(0.00611575 0 0)
(0.00664751 0 0)
(0.0071474 0 0)
(0.0074014 0 0)
(0.00751261 0 0)
(0.00769301 0 0)
(0.00792004 0 0)
(0.00818904 0 0)
(0.00847594 0 0)
(0.00871465 0 0)
(0.00888146 0 0)
(0.00907636 0 0)
(0.00926854 0 0)
(0.00945421 0 0)
(0.00964996 0 0)
(0.00982598 0 0)
(0.00996221 0 0)
(0.0100851 0 0)
(0.0102212 0 0)
(0.0103955 0 0)
(0.0104884 0 0)
(0.0105256 0 0)
(0.0105252 0 0)
(0.010572 0 0)
(0.0106396 0 0)
(0.0107291 0 0)
(0.0108216 0 0)
(0.01093 0 0)
(0.0110462 0 0)
(0.0111249 0 0)
(0.0112133 0 0)
(0.0112953 0 0)
(0.0113621 0 0)
(0.011422 0 0)
(0.0114772 0 0)
(0.0115472 0 0)
(0.0116075 0 0)
(0.0116723 0 0)
(0.0117408 0 0)
(0.0118025 0 0)
(0.0118656 0 0)
(0.0119031 0 0)
(0.0119361 0 0)
(0.011989 0 0)
(0.0120604 0 0)
(0.0121068 0 0)
(0.0121324 0 0)
(0.0121654 0 0)
(0.0121993 0 0)
(0.0122215 0 0)
(0.0122627 0 0)
(0.0123038 0 0)
(0.0123431 0 0)
(0.0124149 0 0)
(0.0124779 0 0)
(0.0125081 0 0)
(0.0125395 0 0)
(0.0125823 0 0)
(0.0125987 0 0)
(0.0126572 0 0)
(0.0126796 0 0)
(0.0127122 0 0)
(0.0127467 0 0)
(0.0127784 0 0)
(0.0128187 0 0)
(0.012839 0 0)
(0.0128492 0 0)
(0.0128711 0 0)
(0.0128743 0 0)
(0.012893 0 0)
(0.0129059 0 0)
(0.0129395 0 0)
(0.0129608 0 0)
(0.0129562 0 0)
(0.012987 0 0)
(0.0129738 0 0)
(0.012959 0 0)
(0.0129682 0 0)
(0.012955 0 0)
(0.0129839 0 0)
(0.0130083 0 0)
(0.0130215 0 0)
(0.0130386 0 0)
(0.0130412 0 0)
(0.0130521 0 0)
(0.0130514 0 0)
(0.0130386 0 0)
(0.0130288 0 0)
(0.0130261 0 0)
(0.0130172 0 0)
(0.0129992 0 0)
(0.0129951 0 0)
(0.0129887 0 0)
(0.0129686 0 0)
(0.0129616 0 0)
(0.0129441 0 0)
(0.0129193 0 0)
(0.0128949 0 0)
(0.012867 0 0)
(0.0128465 0 0)
)
;

boundaryField
{
    inlet
    {
        type            fixedValue;
        value           uniform (0.005 0 0);
    }
    outlet
    {
        type            zeroGradient;
    }
    yzfaces
    {
        type            empty;
    }
}


// ************************************************************************* //
