/*--------------------------------*- C++ -*----------------------------------*\
| =========                 |                                                 |
| \\      /  F ield         | foam-extend: Open Source CFD                    |
|  \\    /   O peration     | Version:     5.0                                |
|   \\  /    A nd           | Web:         http://www.foam-extend.org         |
|    \\/     M anipulation  |                                                 |
\*---------------------------------------------------------------------------*/
FoamFile
{
    version     2.0;
    format      ascii;
    class       volVectorField;
    location    "7";
    object      U.water;
}
// * * * * * * * * * * * * * * * * * * * * * * * * * * * * * * * * * * * * * //

dimensions      [0 1 -1 0 0 0 0];

internalField   nonuniform List<vector> 
100
(
(3.94037e-05 0 0)
(9.20595e-05 0 0)
(0.000138384 0 0)
(0.00018017 0 0)
(0.000205004 0 0)
(0.000222226 0 0)
(0.000252101 0 0)
(0.000292678 0 0)
(0.000336571 0 0)
(0.000373891 0 0)
(0.000407714 0 0)
(0.000443056 0 0)
(0.000480623 0 0)
(0.000515859 0 0)
(0.000554195 0 0)
(0.000590956 0 0)
(0.000622101 0 0)
(0.000655265 0 0)
(0.000687236 0 0)
(0.000720887 0 0)
(0.000755225 0 0)
(0.000772345 0 0)
(0.000779989 0 0)
(0.000793903 0 0)
(0.000815662 0 0)
(0.000839755 0 0)
(0.000865187 0 0)
(0.000894764 0 0)
(0.000930556 0 0)
(0.000960758 0 0)
(0.000986853 0 0)
(0.00101501 0 0)
(0.00104087 0 0)
(0.00106479 0 0)
(0.00108648 0 0)
(0.00110864 0 0)
(0.00113335 0 0)
(0.00116158 0 0)
(0.00118846 0 0)
(0.00121326 0 0)
(0.00123833 0 0)
(0.00126021 0 0)
(0.00127982 0 0)
(0.00130265 0 0)
(0.00133222 0 0)
(0.00135926 0 0)
(0.00138007 0 0)
(0.00140042 0 0)
(0.00142108 0 0)
(0.00144276 0 0)
(0.00146525 0 0)
(0.00149058 0 0)
(0.001518 0 0)
(0.00154802 0 0)
(0.00157751 0 0)
(0.00160029 0 0)
(0.00162215 0 0)
(0.00164747 0 0)
(0.00167228 0 0)
(0.00169794 0 0)
(0.00172455 0 0)
(0.00174822 0 0)
(0.00177313 0 0)
(0.00179554 0 0)
(0.00182235 0 0)
(0.00184616 0 0)
(0.00186696 0 0)
(0.0018925 0 0)
(0.00191436 0 0)
(0.00193442 0 0)
(0.00195867 0 0)
(0.00198163 0 0)
(0.00200485 0 0)
(0.00202484 0 0)
(0.00204826 0 0)
(0.00207261 0 0)
(0.00209105 0 0)
(0.00211359 0 0)
(0.00213304 0 0)
(0.00215666 0 0)
(0.00218945 0 0)
(0.00221929 0 0)
(0.00224721 0 0)
(0.00227453 0 0)
(0.00230475 0 0)
(0.00233439 0 0)
(0.00236166 0 0)
(0.00239275 0 0)
(0.00242719 0 0)
(0.002462 0 0)
(0.0024943 0 0)
(0.0025281 0 0)
(0.00256347 0 0)
(0.0025962 0 0)
(0.00262817 0 0)
(0.00266058 0 0)
(0.00269358 0 0)
(0.00273147 0 0)
(0.00276885 0 0)
(0.00280457 0 0)
)
;

boundaryField
{
    inlet
    {
        type            fixedValue;
        value           uniform (0 0 0);
    }
    outlet
    {
        type            zeroGradient;
    }
    yzfaces
    {
        type            empty;
    }
}


// ************************************************************************* //
