/*--------------------------------*- C++ -*----------------------------------*\
| =========                 |                                                 |
| \\      /  F ield         | foam-extend: Open Source CFD                    |
|  \\    /   O peration     | Version:     5.0                                |
|   \\  /    A nd           | Web:         http://www.foam-extend.org         |
|    \\/     M anipulation  |                                                 |
\*---------------------------------------------------------------------------*/
FoamFile
{
    version     2.0;
    format      ascii;
    class       volVectorField;
    location    "7";
    object      U.water;
}
// * * * * * * * * * * * * * * * * * * * * * * * * * * * * * * * * * * * * * //

dimensions      [0 1 -1 0 0 0 0];

internalField   nonuniform List<vector> 
100
(
(3.96131e-05 0 0)
(9.21322e-05 0 0)
(0.000135689 0 0)
(0.000175141 0 0)
(0.000204496 0 0)
(0.000226218 0 0)
(0.0002544 0 0)
(0.000292685 0 0)
(0.000337613 0 0)
(0.000371085 0 0)
(0.000402454 0 0)
(0.000439093 0 0)
(0.000474348 0 0)
(0.000511133 0 0)
(0.000550796 0 0)
(0.000586593 0 0)
(0.000621894 0 0)
(0.000657296 0 0)
(0.000682128 0 0)
(0.000711852 0 0)
(0.00074499 0 0)
(0.000764381 0 0)
(0.000776477 0 0)
(0.000790958 0 0)
(0.000818276 0 0)
(0.000843074 0 0)
(0.000870613 0 0)
(0.000908502 0 0)
(0.000941017 0 0)
(0.000967148 0 0)
(0.000998909 0 0)
(0.00103224 0 0)
(0.0010604 0 0)
(0.00108228 0 0)
(0.00110463 0 0)
(0.00112906 0 0)
(0.00115713 0 0)
(0.0011873 0 0)
(0.00121532 0 0)
(0.00123871 0 0)
(0.00125854 0 0)
(0.00127975 0 0)
(0.0013041 0 0)
(0.00133017 0 0)
(0.00135638 0 0)
(0.00138217 0 0)
(0.00140964 0 0)
(0.00143514 0 0)
(0.00145848 0 0)
(0.00148325 0 0)
(0.00151109 0 0)
(0.00154086 0 0)
(0.00157276 0 0)
(0.00160058 0 0)
(0.00162472 0 0)
(0.00164966 0 0)
(0.00167345 0 0)
(0.00169786 0 0)
(0.00172427 0 0)
(0.00175034 0 0)
(0.00177633 0 0)
(0.00179798 0 0)
(0.00181559 0 0)
(0.00184046 0 0)
(0.00186811 0 0)
(0.00189303 0 0)
(0.00192058 0 0)
(0.00194304 0 0)
(0.00196161 0 0)
(0.00198402 0 0)
(0.00200652 0 0)
(0.00203242 0 0)
(0.00205737 0 0)
(0.00207975 0 0)
(0.00210213 0 0)
(0.00212119 0 0)
(0.00214415 0 0)
(0.0021717 0 0)
(0.00219671 0 0)
(0.00221938 0 0)
(0.0022424 0 0)
(0.00226747 0 0)
(0.00229215 0 0)
(0.00231858 0 0)
(0.00234992 0 0)
(0.00237782 0 0)
(0.00240247 0 0)
(0.0024266 0 0)
(0.00245786 0 0)
(0.00249128 0 0)
(0.00252427 0 0)
(0.00255883 0 0)
(0.00259261 0 0)
(0.00262742 0 0)
(0.00266227 0 0)
(0.00269902 0 0)
(0.00273607 0 0)
(0.00277247 0 0)
(0.00281232 0 0)
(0.00284753 0 0)
)
;

boundaryField
{
    inlet
    {
        type            fixedValue;
        value           uniform (0 0 0);
    }
    outlet
    {
        type            zeroGradient;
    }
    yzfaces
    {
        type            empty;
    }
}


// ************************************************************************* //
