/*--------------------------------*- C++ -*----------------------------------*\
| =========                 |                                                 |
| \\      /  F ield         | foam-extend: Open Source CFD                    |
|  \\    /   O peration     | Version:     5.0                                |
|   \\  /    A nd           | Web:         http://www.foam-extend.org         |
|    \\/     M anipulation  |                                                 |
\*---------------------------------------------------------------------------*/
FoamFile
{
    version     2.0;
    format      ascii;
    class       volVectorField;
    location    "7";
    object      U.water;
}
// * * * * * * * * * * * * * * * * * * * * * * * * * * * * * * * * * * * * * //

dimensions      [0 1 -1 0 0 0 0];

internalField   nonuniform List<vector> 
100
(
(4.02474e-05 0 0)
(9.2856e-05 0 0)
(0.000137366 0 0)
(0.000175771 0 0)
(0.000203036 0 0)
(0.000226373 0 0)
(0.00025253 0 0)
(0.000286317 0 0)
(0.000326106 0 0)
(0.000361353 0 0)
(0.000395866 0 0)
(0.000432964 0 0)
(0.000468041 0 0)
(0.000499468 0 0)
(0.00053509 0 0)
(0.000570299 0 0)
(0.000601103 0 0)
(0.000632967 0 0)
(0.000662578 0 0)
(0.000700155 0 0)
(0.000739547 0 0)
(0.000760889 0 0)
(0.000771363 0 0)
(0.000786567 0 0)
(0.000805344 0 0)
(0.00082959 0 0)
(0.000854798 0 0)
(0.000887262 0 0)
(0.000923806 0 0)
(0.000954215 0 0)
(0.000981759 0 0)
(0.0010069 0 0)
(0.00103118 0 0)
(0.0010569 0 0)
(0.00108086 0 0)
(0.00110638 0 0)
(0.00113366 0 0)
(0.00115838 0 0)
(0.00118205 0 0)
(0.00119952 0 0)
(0.0012205 0 0)
(0.00124314 0 0)
(0.00126759 0 0)
(0.00129212 0 0)
(0.00131815 0 0)
(0.00134531 0 0)
(0.00137081 0 0)
(0.00139448 0 0)
(0.00141913 0 0)
(0.00144173 0 0)
(0.00146398 0 0)
(0.00148467 0 0)
(0.00150968 0 0)
(0.0015358 0 0)
(0.00155896 0 0)
(0.00158179 0 0)
(0.00160457 0 0)
(0.00163137 0 0)
(0.00165961 0 0)
(0.00168569 0 0)
(0.00171459 0 0)
(0.00174012 0 0)
(0.00176439 0 0)
(0.00179058 0 0)
(0.00181854 0 0)
(0.00184035 0 0)
(0.00186313 0 0)
(0.00188448 0 0)
(0.00190293 0 0)
(0.00192511 0 0)
(0.00194769 0 0)
(0.00196941 0 0)
(0.00198477 0 0)
(0.00199734 0 0)
(0.0020151 0 0)
(0.00203817 0 0)
(0.00206367 0 0)
(0.00208938 0 0)
(0.00211281 0 0)
(0.00213414 0 0)
(0.00215361 0 0)
(0.00217494 0 0)
(0.00220036 0 0)
(0.00223043 0 0)
(0.00225908 0 0)
(0.0022873 0 0)
(0.00232168 0 0)
(0.00235641 0 0)
(0.00239887 0 0)
(0.00244098 0 0)
(0.00247545 0 0)
(0.00250842 0 0)
(0.00254267 0 0)
(0.00257651 0 0)
(0.00260969 0 0)
(0.00264301 0 0)
(0.00267568 0 0)
(0.00271056 0 0)
(0.00274808 0 0)
(0.0027888 0 0)
)
;

boundaryField
{
    inlet
    {
        type            fixedValue;
        value           uniform (0 0 0);
    }
    outlet
    {
        type            zeroGradient;
    }
    yzfaces
    {
        type            empty;
    }
}


// ************************************************************************* //
