/*--------------------------------*- C++ -*----------------------------------*\
| =========                 |                                                 |
| \\      /  F ield         | foam-extend: Open Source CFD                    |
|  \\    /   O peration     | Version:     5.0                                |
|   \\  /    A nd           | Web:         http://www.foam-extend.org         |
|    \\/     M anipulation  |                                                 |
\*---------------------------------------------------------------------------*/
FoamFile
{
    version     2.0;
    format      ascii;
    class       volScalarField;
    location    "1.257115585";
    object      alpha.gas;
}
// * * * * * * * * * * * * * * * * * * * * * * * * * * * * * * * * * * * * * //

dimensions      [0 0 0 0 0 0 0];

internalField   nonuniform List<scalar> 
100
(
0.120096
0.102261
0.0912998
0.0835677
0.0769176
0.0715032
0.0665138
0.0618849
0.0578366
0.0542745
0.0463388
0.0417525
0.0394311
0.0382621
0.0374093
0.036574
0.0355614
0.0343348
0.0328617
0.0311742
0.0293044
0.0272423
0.0250202
0.022678
0.0202858
0.0179444
0.0157889
0.0139594
0.0125469
0.0115514
0.0109058
0.010516
0.0102873
0.0101565
0.0100861
0.0100485
0.0100265
0.0100139
0.0100071
0.010003
0.010001
0.00999856
0.0099998
0.0100001
0.00999863
0.00999911
0.0099973
0.00999837
0.00999622
0.00999818
0.00999849
0.0099982
0.0100007
0.0100001
0.0100027
0.010001
0.00999994
0.00999835
0.00999825
0.0099992
0.00999994
0.0100012
0.0100008
0.00999914
0.0100013
0.00999939
0.00999922
0.0100002
0.010001
0.0100021
0.0100042
0.0100042
0.0100016
0.0100005
0.0100006
0.00999819
0.00999834
0.00999967
0.0100009
0.0100003
0.00999895
0.00999946
0.0100013
0.0100015
0.0100031
0.0100024
0.0100014
0.0100032
0.0100012
0.00999931
0.00999835
0.00999898
0.00999744
0.0099978
0.00999756
0.00999731
0.0100002
0.0100007
0.00999932
0.010001
)
;

boundaryField
{
    inlet
    {
        type            fixedValue;
        value           uniform 0.2;
    }
    outlet
    {
        type            zeroGradient;
    }
    yzfaces
    {
        type            empty;
    }
}


// ************************************************************************* //
