/*--------------------------------*- C++ -*----------------------------------*\
| =========                 |                                                 |
| \\      /  F ield         | foam-extend: Open Source CFD                    |
|  \\    /   O peration     | Version:     5.0                                |
|   \\  /    A nd           | Web:         http://www.foam-extend.org         |
|    \\/     M anipulation  |                                                 |
\*---------------------------------------------------------------------------*/
FoamFile
{
    version     2.0;
    format      ascii;
    class       volScalarField;
    location    "1.257115585";
    object      Cl.water;
}
// * * * * * * * * * * * * * * * * * * * * * * * * * * * * * * * * * * * * * //

dimensions      [0 0 0 0 0 0 0];

internalField   nonuniform List<scalar> 
100
(
0
0.00576387
0.0098365
0.00627283
0.00746497
0.0105758
0.00677946
0.008339
0.0118726
0.0148154
0.00463805
0.0121009
0.0168319
0.0187545
0.0194497
0.0197302
0.0199076
0.0200692
0.0202423
0.0204085
0.0206534
0.0209018
0.0211798
0.0214738
0.0217619
0.0220405
0.0222675
0.0225142
0.0226723
0.0228005
0.0228705
0.0229159
0.0229489
0.022973
0.0229757
0.022986
0.0229855
0.0229936
0.0229872
0.0229925
0.0229862
0.0229854
0.0230033
0.0229833
0.0230027
0.0230043
0.0230051
0.0229881
0.0229919
0.0229827
0.0229997
0.0229812
0.0230014
0.0230015
0.023007
0.023026
0.0229914
0.0230068
0.0229996
0.0229755
0.0229762
0.0229653
0.0229907
0.0230061
0.0229888
0.0230154
0.0229875
0.0229813
0.0230098
0.022998
0.0229922
0.0230205
0.0230148
0.0230122
0.0229927
0.0230023
0.0230236
0.0230109
0.023011
0.023
0.0230118
0.0230268
0.0229818
0.022992
0.0230007
0.0230002
0.0230095
0.0230273
0.0230063
0.0230009
0.0229918
0.0229868
0.0229841
0.0229702
0.0229741
0.0229657
0.0229582
0.022986
0.0229975
0.0230023
)
;

boundaryField
{
    inlet
    {
        type            fixedValue;
        value           uniform 0;
    }
    outlet
    {
        type            zeroGradient;
    }
    yzfaces
    {
        type            empty;
    }
}


// ************************************************************************* //
