/*--------------------------------*- C++ -*----------------------------------*\
| =========                 |                                                 |
| \\      /  F ield         | foam-extend: Open Source CFD                    |
|  \\    /   O peration     | Version:     5.0                                |
|   \\  /    A nd           | Web:         http://www.foam-extend.org         |
|    \\/     M anipulation  |                                                 |
\*---------------------------------------------------------------------------*/
FoamFile
{
    version     2.0;
    format      ascii;
    class       volScalarField;
    location    "1.257115585";
    object      H2O.gas;
}
// * * * * * * * * * * * * * * * * * * * * * * * * * * * * * * * * * * * * * //

dimensions      [0 0 0 0 0 0 0];

internalField   nonuniform List<scalar> 
100
(
4.09862e-09
5.78097e-07
3.51365e-06
1.10198e-05
2.66192e-05
5.87524e-05
0.000108695
0.00019027
0.000338682
0.000608937
0.000653733
0.00121876
0.00223915
0.00362049
0.00528201
0.0071501
0.00914901
0.0111872
0.0131579
0.0149087
0.0163928
0.0174368
0.0179665
0.0179287
0.017321
0.0162538
0.0149006
0.0135583
0.0123733
0.0114869
0.0108777
0.0105003
0.0102774
0.0101516
0.010081
0.0100471
0.0100252
0.0100155
0.010004
0.0100018
0.00999679
0.00999234
0.0100015
0.00999587
0.0100037
0.0100034
0.010003
0.00999689
0.00999288
0.0099909
0.00999662
0.00998627
0.00999784
0.00999613
0.00999965
0.0100078
0.00999175
0.00999656
0.00999591
0.00998774
0.00999208
0.00998825
0.00999932
0.0100037
0.00999863
0.0100079
0.00999657
0.00999645
0.0100078
0.0100036
0.0100032
0.0100127
0.0100073
0.0100075
0.0100005
0.0100042
0.0100107
0.0100039
0.0100067
0.0100008
0.0100053
0.010011
0.00999228
0.00999462
0.00999728
0.00999606
0.00999989
0.0100104
0.0100002
0.00999753
0.00999385
0.00999457
0.0099932
0.00998518
0.00998677
0.00998579
0.00998186
0.00999508
0.00999605
0.0100019
)
;

boundaryField
{
    inlet
    {
        type            fixedValue;
        value           uniform 0;
    }
    outlet
    {
        type            zeroGradient;
    }
    yzfaces
    {
        type            empty;
    }
}


// ************************************************************************* //
