/*--------------------------------*- C++ -*----------------------------------*\
| =========                 |                                                 |
| \\      /  F ield         | foam-extend: Open Source CFD                    |
|  \\    /   O peration     | Version:     5.0                                |
|   \\  /    A nd           | Web:         http://www.foam-extend.org         |
|    \\/     M anipulation  |                                                 |
\*---------------------------------------------------------------------------*/
FoamFile
{
    version     2.0;
    format      ascii;
    class       volScalarField;
    location    "1.257115585";
    object      Na.water;
}
// * * * * * * * * * * * * * * * * * * * * * * * * * * * * * * * * * * * * * //

dimensions      [0 0 0 0 0 0 0];

internalField   nonuniform List<scalar> 
100
(
0
0.00576522
0.00983807
0.00627239
0.00746701
0.0105842
0.00678177
0.0083383
0.0118723
0.0148206
0.00463674
0.0120975
0.0168276
0.0187519
0.0194526
0.0197291
0.0199093
0.0200702
0.0202492
0.020413
0.0206502
0.0208968
0.0211762
0.0214724
0.0217614
0.0220456
0.0222776
0.0225207
0.0226763
0.022807
0.022872
0.0229165
0.0229427
0.0229673
0.0229721
0.0229856
0.0229856
0.0229919
0.0229772
0.022984
0.0229838
0.0229761
0.0229972
0.0229794
0.0230024
0.0230016
0.0229996
0.0229804
0.0229823
0.0229825
0.0230013
0.022981
0.0230039
0.023002
0.0229983
0.0230188
0.0229867
0.0230018
0.0229975
0.0229795
0.0229899
0.022976
0.0229948
0.0230055
0.0229928
0.0230225
0.0229918
0.0229891
0.0230095
0.0229917
0.0229901
0.0230106
0.0230021
0.0230022
0.022991
0.0230053
0.0230227
0.0230086
0.0230117
0.023005
0.0230215
0.0230458
0.022999
0.0230029
0.0230033
0.0229987
0.0230002
0.0230172
0.0229963
0.0229911
0.0229884
0.0229847
0.0229855
0.0229719
0.0229741
0.0229681
0.0229537
0.0229912
0.0229954
0.0230095
)
;

boundaryField
{
    inlet
    {
        type            fixedValue;
        value           uniform 0;
    }
    outlet
    {
        type            zeroGradient;
    }
    yzfaces
    {
        type            empty;
    }
}


// ************************************************************************* //
