/*--------------------------------*- C++ -*----------------------------------*\
| =========                 |                                                 |
| \\      /  F ield         | foam-extend: Open Source CFD                    |
|  \\    /   O peration     | Version:     5.0                                |
|   \\  /    A nd           | Web:         http://www.foam-extend.org         |
|    \\/     M anipulation  |                                                 |
\*---------------------------------------------------------------------------*/
FoamFile
{
    version     2.0;
    format      ascii;
    class       surfaceScalarField;
    location    "1.257115585";
    object      phi;
}
// * * * * * * * * * * * * * * * * * * * * * * * * * * * * * * * * * * * * * //

dimensions      [0 3 -1 0 0 0 0];

internalField   nonuniform List<scalar> 
99
(
1.22452e-06
1.224e-06
1.23132e-06
1.2223e-06
1.22346e-06
1.22179e-06
1.22403e-06
1.22722e-06
1.22897e-06
1.23097e-06
1.2322e-06
1.23323e-06
1.23514e-06
1.23307e-06
1.23483e-06
1.23293e-06
1.23365e-06
1.23259e-06
1.23106e-06
1.23248e-06
1.23229e-06
1.23369e-06
1.23398e-06
1.23273e-06
1.23083e-06
1.22978e-06
1.22858e-06
1.2262e-06
1.22688e-06
1.22609e-06
1.22705e-06
1.22823e-06
1.22786e-06
1.22767e-06
1.22908e-06
1.2293e-06
1.22908e-06
1.22962e-06
1.23153e-06
1.23099e-06
1.23098e-06
1.23186e-06
1.23131e-06
1.23111e-06
1.23019e-06
1.22826e-06
1.22742e-06
1.22621e-06
1.22541e-06
1.22511e-06
1.22447e-06
1.22629e-06
1.22572e-06
1.22595e-06
1.22581e-06
1.22584e-06
1.2264e-06
1.22539e-06
1.22468e-06
1.22504e-06
1.22664e-06
1.2282e-06
1.22907e-06
1.2298e-06
1.22839e-06
1.22653e-06
1.22867e-06
1.22893e-06
1.22856e-06
1.23006e-06
1.23081e-06
1.22924e-06
1.22949e-06
1.22872e-06
1.2285e-06
1.2299e-06
1.2307e-06
1.23152e-06
1.23055e-06
1.23107e-06
1.22939e-06
1.22842e-06
1.2285e-06
1.22894e-06
1.22947e-06
1.2315e-06
1.23091e-06
1.22894e-06
1.22951e-06
1.22808e-06
1.22894e-06
1.22889e-06
1.22866e-06
1.22826e-06
1.22987e-06
1.2299e-06
1.22971e-06
1.23148e-06
1.23095e-06
)
;

boundaryField
{
    inlet
    {
        type            calculated;
        value           uniform -1.225e-06;
    }
    outlet
    {
        type            calculated;
        value           uniform 1.23293e-06;
    }
    yzfaces
    {
        type            empty;
    }
}


// ************************************************************************* //
