/*--------------------------------*- C++ -*----------------------------------*\
| =========                 |                                                 |
| \\      /  F ield         | foam-extend: Open Source CFD                    |
|  \\    /   O peration     | Version:     5.0                                |
|   \\  /    A nd           | Web:         http://www.foam-extend.org         |
|    \\/     M anipulation  |                                                 |
\*---------------------------------------------------------------------------*/
FoamFile
{
    version     2.0;
    format      ascii;
    class       surfaceScalarField;
    location    "1.257115585";
    object      phi.water;
}
// * * * * * * * * * * * * * * * * * * * * * * * * * * * * * * * * * * * * * //

dimensions      [0 3 -1 0 0 0 0];

internalField   nonuniform List<scalar> 
99
(
3.3781e-07
5.85036e-07
8.14304e-07
1.01509e-06
1.2392e-06
1.45089e-06
1.68532e-06
1.93948e-06
2.18611e-06
2.39378e-06
3.04568e-06
3.48077e-06
3.71941e-06
3.82992e-06
3.91893e-06
3.99326e-06
4.09703e-06
4.21478e-06
4.36277e-06
4.54197e-06
4.72806e-06
4.93736e-06
5.15045e-06
5.35919e-06
5.55628e-06
5.73763e-06
5.88051e-06
5.97661e-06
6.05343e-06
6.09487e-06
6.12847e-06
6.14985e-06
6.15533e-06
6.15845e-06
6.16709e-06
6.16832e-06
6.16702e-06
6.17078e-06
6.18151e-06
6.17923e-06
6.18078e-06
6.18359e-06
6.18019e-06
6.17803e-06
6.17081e-06
6.16097e-06
6.15857e-06
6.15517e-06
6.15311e-06
6.151e-06
6.1493e-06
6.15883e-06
6.15336e-06
6.15469e-06
6.15049e-06
6.15219e-06
6.15771e-06
6.15091e-06
6.15033e-06
6.15382e-06
6.1623e-06
6.16809e-06
6.1671e-06
6.1712e-06
6.16282e-06
6.15346e-06
6.16806e-06
6.16644e-06
6.16292e-06
6.17282e-06
6.17445e-06
6.16433e-06
6.16621e-06
6.1642e-06
6.16336e-06
6.16656e-06
6.17117e-06
6.17727e-06
6.17347e-06
6.17599e-06
6.16418e-06
6.16412e-06
6.17005e-06
6.17135e-06
6.17372e-06
6.18261e-06
6.17555e-06
6.16536e-06
6.17109e-06
6.165e-06
6.17029e-06
6.16994e-06
6.17128e-06
6.17127e-06
6.1791e-06
6.18161e-06
6.17871e-06
6.18288e-06
6.17822e-06
)
;

boundaryField
{
    inlet
    {
        type            fixedValue;
        value           uniform 0;
    }
    outlet
    {
        type            calculated;
        value           uniform 6.18686e-06;
    }
    yzfaces
    {
        type            empty;
    }
}


// ************************************************************************* //
