/*--------------------------------*- C++ -*----------------------------------*\
| =========                 |                                                 |
| \\      /  F ield         | foam-extend: Open Source CFD                    |
|  \\    /   O peration     | Version:     5.0                                |
|   \\  /    A nd           | Web:         http://www.foam-extend.org         |
|    \\/     M anipulation  |                                                 |
\*---------------------------------------------------------------------------*/
FoamFile
{
    version     2.0;
    format      ascii;
    class       volScalarField;
    location    "1.257115585";
    object      S.gas;
}
// * * * * * * * * * * * * * * * * * * * * * * * * * * * * * * * * * * * * * //

dimensions      [0 0 0 0 0 0 0];

internalField   nonuniform List<scalar> 
100
(
0.600482
0.511303
0.456499
0.417839
0.384588
0.357516
0.332569
0.309424
0.289183
0.271373
0.231694
0.208763
0.197155
0.191311
0.187046
0.18287
0.177807
0.171674
0.164308
0.155871
0.146522
0.136211
0.125101
0.11339
0.101429
0.089722
0.0789445
0.069797
0.0627347
0.0577569
0.0545288
0.0525801
0.0514367
0.0507826
0.0504304
0.0502425
0.0501325
0.0500693
0.0500354
0.0500148
0.0500048
0.0499928
0.049999
0.0500006
0.0499931
0.0499956
0.0499865
0.0499918
0.0499811
0.0499909
0.0499925
0.049991
0.0500037
0.0500005
0.0500137
0.0500048
0.0499997
0.0499918
0.0499912
0.049996
0.0499997
0.0500061
0.050004
0.0499957
0.0500066
0.0499969
0.0499961
0.0500012
0.0500049
0.0500103
0.050021
0.0500212
0.0500079
0.0500024
0.0500028
0.0499909
0.0499917
0.0499983
0.0500043
0.0500014
0.0499948
0.0499973
0.0500067
0.0500073
0.0500153
0.0500118
0.0500072
0.0500162
0.0500059
0.0499966
0.0499917
0.0499949
0.0499872
0.049989
0.0499878
0.0499865
0.0500012
0.0500036
0.0499966
0.0500048
)
;

boundaryField
{
    inlet
    {
        type            calculated;
        value           uniform 1;
    }
    outlet
    {
        type            calculated;
        value           uniform 0.0500048;
    }
    yzfaces
    {
        type            empty;
    }
}


// ************************************************************************* //
