/*--------------------------------*- C++ -*----------------------------------*\
| =========                 |                                                 |
| \\      /  F ield         | foam-extend: Open Source CFD                    |
|  \\    /   O peration     | Version:     5.0                                |
|   \\  /    A nd           | Web:         http://www.foam-extend.org         |
|    \\/     M anipulation  |                                                 |
\*---------------------------------------------------------------------------*/
FoamFile
{
    version     2.0;
    format      ascii;
    class       volVectorField;
    location    "1.257115585";
    object      U.gas;
}
// * * * * * * * * * * * * * * * * * * * * * * * * * * * * * * * * * * * * * //

dimensions      [0 1 -1 0 0 0 0];

internalField   nonuniform List<vector> 
100
(
(0.00822302 0 0)
(0.0094121 0 0)
(0.0102965 0 0)
(0.0109432 0 0)
(0.0115098 0 0)
(0.0119897 0 0)
(0.0124473 0 0)
(0.0128781 0 0)
(0.0132061 0 0)
(0.0134468 0 0)
(0.0143702 0 0)
(0.0140495 0 0)
(0.0136101 0 0)
(0.0133099 0 0)
(0.0131731 0 0)
(0.0130932 0 0)
(0.0130217 0 0)
(0.0129281 0 0)
(0.0127817 0 0)
(0.0125764 0 0)
(0.0122999 0 0)
(0.0119334 0 0)
(0.0114534 0 0)
(0.0108355 0 0)
(0.0100793 0 0)
(0.00921113 0 0)
(0.00827721 0 0)
(0.00734496 0 0)
(0.00651353 0 0)
(0.00585602 0 0)
(0.00538534 0 0)
(0.00508481 0 0)
(0.00490366 0 0)
(0.00479381 0 0)
(0.00473386 0 0)
(0.00470444 0 0)
(0.00468758 0 0)
(0.00467818 0 0)
(0.00467622 0 0)
(0.00467537 0 0)
(0.00467286 0 0)
(0.00467326 0 0)
(0.00467215 0 0)
(0.00467164 0 0)
(0.00467046 0 0)
(0.00466397 0 0)
(0.00465848 0 0)
(0.00465429 0 0)
(0.00465127 0 0)
(0.0046485 0 0)
(0.00464717 0 0)
(0.00464879 0 0)
(0.0046514 0 0)
(0.00465192 0 0)
(0.00465138 0 0)
(0.00465312 0 0)
(0.00465406 0 0)
(0.00465226 0 0)
(0.00464831 0 0)
(0.00464774 0 0)
(0.00465171 0 0)
(0.00465811 0 0)
(0.00466289 0 0)
(0.00466586 0 0)
(0.00466384 0 0)
(0.004659 0 0)
(0.00465916 0 0)
(0.0046632 0 0)
(0.0046631 0 0)
(0.00466558 0 0)
(0.00466977 0 0)
(0.00466934 0 0)
(0.00466738 0 0)
(0.00466461 0 0)
(0.00466191 0 0)
(0.0046649 0 0)
(0.00466881 0 0)
(0.00467136 0 0)
(0.00467144 0 0)
(0.00467115 0 0)
(0.0046688 0 0)
(0.00466314 0 0)
(0.00466145 0 0)
(0.00466311 0 0)
(0.00466508 0 0)
(0.00467101 0 0)
(0.00467336 0 0)
(0.00466832 0 0)
(0.00466644 0 0)
(0.00466398 0 0)
(0.00466172 0 0)
(0.00466196 0 0)
(0.00466213 0 0)
(0.00466083 0 0)
(0.00466284 0 0)
(0.00466572 0 0)
(0.00466557 0 0)
(0.00467016 0 0)
(0.00467309 0 0)
(0.00467446 0 0)
)
;

boundaryField
{
    inlet
    {
        type            fixedValue;
        value           uniform (0.005 0 0);
    }
    outlet
    {
        type            zeroGradient;
    }
    yzfaces
    {
        type            empty;
    }
}


// ************************************************************************* //
