/*--------------------------------*- C++ -*----------------------------------*\
| =========                 |                                                 |
| \\      /  F ield         | foam-extend: Open Source CFD                    |
|  \\    /   O peration     | Version:     5.0                                |
|   \\  /    A nd           | Web:         http://www.foam-extend.org         |
|    \\/     M anipulation  |                                                 |
\*---------------------------------------------------------------------------*/
FoamFile
{
    version     2.0;
    format      ascii;
    class       volVectorField;
    location    "1.257115585";
    object      U.water;
}
// * * * * * * * * * * * * * * * * * * * * * * * * * * * * * * * * * * * * * //

dimensions      [0 1 -1 0 0 0 0];

internalField   nonuniform List<vector> 
100
(
(0.000153297 0 0)
(0.000377653 0 0)
(0.000571314 0 0)
(0.000747082 0 0)
(0.000917815 0 0)
(0.00109545 0 0)
(0.00127637 0 0)
(0.00147379 0 0)
(0.00167928 0 0)
(0.00188191 0 0)
(0.00220925 0 0)
(0.00265213 0 0)
(0.0029323 0 0)
(0.0030801 0 0)
(0.00316444 0 0)
(0.00323314 0 0)
(0.0033064 0 0)
(0.00339688 0 0)
(0.00350336 0 0)
(0.00363373 0 0)
(0.00378211 0 0)
(0.00394443 0 0)
(0.00411844 0 0)
(0.00429213 0 0)
(0.00445745 0 0)
(0.00460873 0 0)
(0.00473764 0 0)
(0.00483453 0 0)
(0.00490539 0 0)
(0.00495397 0 0)
(0.00498457 0 0)
(0.00500667 0 0)
(0.00501832 0 0)
(0.00502291 0 0)
(0.00502862 0 0)
(0.00503363 0 0)
(0.00503449 0 0)
(0.00503566 0 0)
(0.00504101 0 0)
(0.00504398 0 0)
(0.00504292 0 0)
(0.00504477 0 0)
(0.00504556 0 0)
(0.00504397 0 0)
(0.00504162 0 0)
(0.00503584 0 0)
(0.00503017 0 0)
(0.00502597 0 0)
(0.00502182 0 0)
(0.00501961 0 0)
(0.00501765 0 0)
(0.00502011 0 0)
(0.00502268 0 0)
(0.00502192 0 0)
(0.00502213 0 0)
(0.00502179 0 0)
(0.00502302 0 0)
(0.00502214 0 0)
(0.00501866 0 0)
(0.00501794 0 0)
(0.00502193 0 0)
(0.00502838 0 0)
(0.00503334 0 0)
(0.00503663 0 0)
(0.00503528 0 0)
(0.0050285 0 0)
(0.00502911 0 0)
(0.00503406 0 0)
(0.00503382 0 0)
(0.00503611 0 0)
(0.00504073 0 0)
(0.005039 0 0)
(0.00503627 0 0)
(0.0050353 0 0)
(0.00503331 0 0)
(0.00503567 0 0)
(0.0050402 0 0)
(0.00504355 0 0)
(0.00504321 0 0)
(0.00504227 0 0)
(0.00503991 0 0)
(0.00503452 0 0)
(0.00503268 0 0)
(0.00503371 0 0)
(0.00503571 0 0)
(0.00504089 0 0)
(0.00504385 0 0)
(0.00503862 0 0)
(0.00503571 0 0)
(0.00503399 0 0)
(0.00503289 0 0)
(0.00503463 0 0)
(0.00503401 0 0)
(0.00503271 0 0)
(0.00503521 0 0)
(0.00503858 0 0)
(0.00503825 0 0)
(0.00504141 0 0)
(0.00504392 0 0)
(0.00504694 0 0)
)
;

boundaryField
{
    inlet
    {
        type            fixedValue;
        value           uniform (0 0 0);
    }
    outlet
    {
        type            zeroGradient;
    }
    yzfaces
    {
        type            empty;
    }
}


// ************************************************************************* //
