/*--------------------------------*- C++ -*----------------------------------*\
| =========                 |                                                 |
| \\      /  F ield         | foam-extend: Open Source CFD                    |
|  \\    /   O peration     | Version:     5.0                                |
|   \\  /    A nd           | Web:         http://www.foam-extend.org         |
|    \\/     M anipulation  |                                                 |
\*---------------------------------------------------------------------------*/
FoamFile
{
    version     2.0;
    format      ascii;
    class       volScalarField;
    location    "8";
    object      H2O.gas;
}
// * * * * * * * * * * * * * * * * * * * * * * * * * * * * * * * * * * * * * //

dimensions      [0 0 0 0 0 0 0];

internalField   nonuniform List<scalar> 
100
(
0.000384669
0.000277993
0.000277341
0.000275691
0.000273884
0.000272192
0.00027061
0.000269059
0.000267593
0.000266169
0.000264819
0.000263499
0.000262253
0.000261011
0.000259811
0.000258641
0.000257497
0.000256388
0.000255272
0.000254215
0.000253106
0.000252066
0.000251074
0.000250049
0.000249093
0.000248115
0.000247242
0.000246336
0.000245378
0.000244508
0.000243623
0.000242745
0.000241917
0.00024113
0.000240351
0.000239566
0.00023882
0.000238047
0.000237286
0.000236546
0.000235776
0.000235047
0.000234339
0.000233695
0.000233017
0.000232287
0.000231625
0.000230965
0.000230308
0.000229646
0.000229033
0.000228402
0.000227775
0.000227192
0.000226593
0.000226038
0.00022547
0.000224879
0.000224344
0.000223706
0.000223205
0.000222622
0.000222079
0.000221534
0.00022096
0.000220415
0.000219874
0.000219354
0.000218818
0.000218359
0.000217887
0.000217408
0.000216931
0.000216439
0.00021599
0.000215522
0.000215079
0.000214611
0.00021414
0.00021366
0.000213221
0.000212773
0.00021238
0.00021192
0.000211486
0.00021105
0.00021063
0.000210202
0.000209715
0.000209255
0.000208843
0.000208419
0.000207976
0.000207572
0.000207122
0.000206758
0.000206391
0.000206002
0.000205622
0.000205218
)
;

boundaryField
{
    inlet
    {
        type            fixedValue;
        value           uniform 0;
    }
    outlet
    {
        type            zeroGradient;
    }
    yzfaces
    {
        type            empty;
    }
}


// ************************************************************************* //
