/*--------------------------------*- C++ -*----------------------------------*\
| =========                 |                                                 |
| \\      /  F ield         | foam-extend: Open Source CFD                    |
|  \\    /   O peration     | Version:     5.0                                |
|   \\  /    A nd           | Web:         http://www.foam-extend.org         |
|    \\/     M anipulation  |                                                 |
\*---------------------------------------------------------------------------*/
FoamFile
{
    version     2.0;
    format      ascii;
    class       volScalarField;
    location    "8";
    object      H2O.water;
}
// * * * * * * * * * * * * * * * * * * * * * * * * * * * * * * * * * * * * * //

dimensions      [0 0 0 0 0 0 0];

internalField   nonuniform List<scalar> 
100
(
0.00241237
0.00399749
0.00534535
0.00659154
0.00777107
0.00889796
0.00997932
0.0110206
0.0120268
0.0130008
0.0139451
0.0148611
0.0157509
0.0166172
0.0174609
0.0182821
0.0190829
0.0198657
0.0206289
0.0213741
0.0221042
0.0228172
0.0235143
0.0241985
0.0248673
0.0255222
0.0261656
0.0267956
0.0274138
0.0280208
0.0286157
0.0292009
0.0297753
0.030339
0.0308943
0.0314389
0.0319759
0.0325031
0.0330223
0.0335332
0.034035
0.0345308
0.0350176
0.0354991
0.0359705
0.0364379
0.0368965
0.0373501
0.0377961
0.0382359
0.0386707
0.0390981
0.0395209
0.0399373
0.0403501
0.0407553
0.0411567
0.0415516
0.0419437
0.0423282
0.0427103
0.0430865
0.0434594
0.0438267
0.0441903
0.0445496
0.0449057
0.0452562
0.0456049
0.0459474
0.0462885
0.0466222
0.0469564
0.0472833
0.0476101
0.0479304
0.0482497
0.0485641
0.0488776
0.0491856
0.0494921
0.0497941
0.0500946
0.0503895
0.0506843
0.0509755
0.0512632
0.0515494
0.0518319
0.052112
0.0523906
0.0526661
0.0529395
0.0532099
0.0534765
0.0537427
0.054005
0.0542667
0.0545238
0.0547871
)
;

boundaryField
{
    inlet
    {
        type            fixedValue;
        value           uniform 0;
    }
    outlet
    {
        type            zeroGradient;
    }
    yzfaces
    {
        type            empty;
    }
}


// ************************************************************************* //
