/*--------------------------------*- C++ -*----------------------------------*\
| =========                 |                                                 |
| \\      /  F ield         | foam-extend: Open Source CFD                    |
|  \\    /   O peration     | Version:     5.0                                |
|   \\  /    A nd           | Web:         http://www.foam-extend.org         |
|    \\/     M anipulation  |                                                 |
\*---------------------------------------------------------------------------*/
FoamFile
{
    version     2.0;
    format      ascii;
    class       volVectorField;
    location    "8";
    object      U.water;
}
// * * * * * * * * * * * * * * * * * * * * * * * * * * * * * * * * * * * * * //

dimensions      [0 1 -1 0 0 0 0];

internalField   nonuniform List<vector> 
100
(
(5.5874e-05 0 0)
(0.000126345 0 0)
(0.000193006 0 0)
(0.000255798 0 0)
(0.000316641 0 0)
(0.000376167 0 0)
(0.000434499 0 0)
(0.000491902 0 0)
(0.000548578 0 0)
(0.000604545 0 0)
(0.000659976 0 0)
(0.000714744 0 0)
(0.000769059 0 0)
(0.000822641 0 0)
(0.000875789 0 0)
(0.000928613 0 0)
(0.000980996 0 0)
(0.00103278 0 0)
(0.00108433 0 0)
(0.00113549 0 0)
(0.00118617 0 0)
(0.0012368 0 0)
(0.00128704 0 0)
(0.00133683 0 0)
(0.00138652 0 0)
(0.00143563 0 0)
(0.00148461 0 0)
(0.00153265 0 0)
(0.00158091 0 0)
(0.00162942 0 0)
(0.00167693 0 0)
(0.00172454 0 0)
(0.00177223 0 0)
(0.00181929 0 0)
(0.00186596 0 0)
(0.00191244 0 0)
(0.00195877 0 0)
(0.00200442 0 0)
(0.00205059 0 0)
(0.00209635 0 0)
(0.00214166 0 0)
(0.0021869 0 0)
(0.00223215 0 0)
(0.00227711 0 0)
(0.00232126 0 0)
(0.00236579 0 0)
(0.00241079 0 0)
(0.00245512 0 0)
(0.00249952 0 0)
(0.00254334 0 0)
(0.00258738 0 0)
(0.00263094 0 0)
(0.00267441 0 0)
(0.00271775 0 0)
(0.0027603 0 0)
(0.00280356 0 0)
(0.00284632 0 0)
(0.00288876 0 0)
(0.00293119 0 0)
(0.00297324 0 0)
(0.00301647 0 0)
(0.00305804 0 0)
(0.00310067 0 0)
(0.00314229 0 0)
(0.0031837 0 0)
(0.0032256 0 0)
(0.00326746 0 0)
(0.0033092 0 0)
(0.00335075 0 0)
(0.00339287 0 0)
(0.00343356 0 0)
(0.00347404 0 0)
(0.00351423 0 0)
(0.00355467 0 0)
(0.00359488 0 0)
(0.00363506 0 0)
(0.00367541 0 0)
(0.00371472 0 0)
(0.00375422 0 0)
(0.0037946 0 0)
(0.00383449 0 0)
(0.00387431 0 0)
(0.00391374 0 0)
(0.0039524 0 0)
(0.00399205 0 0)
(0.0040315 0 0)
(0.00407093 0 0)
(0.00411013 0 0)
(0.00414985 0 0)
(0.00419011 0 0)
(0.00422957 0 0)
(0.00426831 0 0)
(0.00430722 0 0)
(0.00434635 0 0)
(0.0043855 0 0)
(0.00442486 0 0)
(0.00446219 0 0)
(0.00449989 0 0)
(0.00453766 0 0)
(0.00457601 0 0)
)
;

boundaryField
{
    inlet
    {
        type            fixedValue;
        value           uniform (0 0 0);
    }
    outlet
    {
        type            zeroGradient;
    }
    yzfaces
    {
        type            empty;
    }
}


// ************************************************************************* //
