/*--------------------------------*- C++ -*----------------------------------*\
| =========                 |                                                 |
| \\      /  F ield         | foam-extend: Open Source CFD                    |
|  \\    /   O peration     | Version:     5.0                                |
|   \\  /    A nd           | Web:         http://www.foam-extend.org         |
|    \\/     M anipulation  |                                                 |
\*---------------------------------------------------------------------------*/
FoamFile
{
    version     2.0;
    format      ascii;
    class       volScalarField;
    location    "2";
    object      Cl.water;
}
// * * * * * * * * * * * * * * * * * * * * * * * * * * * * * * * * * * * * * //

dimensions      [0 0 0 0 0 0 0];

internalField   nonuniform List<scalar> 
100
(
0.00762854
0.00963506
0.0109027
0.0118185
0.0125227
0.0131227
0.0136193
0.0140911
0.0145042
0.0148658
0.0152436
0.0155905
0.0159686
0.01634
0.0167621
0.017248
0.0179198
0.0189804
0.0208482
0.0207024
0.0210256
0.0211416
0.0211406
0.0211323
0.0211046
0.0210761
0.0210752
0.0210955
0.0211255
0.0211934
0.0212764
0.0213997
0.0215511
0.0217028
0.0218816
0.0221004
0.0223146
0.0224952
0.0226399
0.0227853
0.0228609
0.0229193
0.0229687
0.0229826
0.0229868
0.023004
0.0230272
0.0230271
0.0230394
0.023024
0.0230087
0.0230093
0.0230036
0.0230006
0.0230087
0.0230107
0.023006
0.023008
0.0230298
0.0230013
0.0229979
0.0229925
0.0229795
0.0229868
0.0229803
0.0229817
0.0229871
0.0229797
0.0229794
0.0229814
0.0229927
0.0229783
0.0229745
0.0229782
0.0229963
0.0229909
0.0229744
0.0229875
0.0229773
0.0230002
0.0230065
0.0230014
0.0230049
0.0230068
0.0230163
0.0230195
0.0230291
0.0230173
0.023017
0.0230075
0.0230134
0.0230136
0.0230181
0.0230188
0.0230062
0.0230056
0.0230024
0.0230027
0.0229989
0.0229817
)
;

boundaryField
{
    inlet
    {
        type            fixedValue;
        value           uniform 0;
    }
    outlet
    {
        type            zeroGradient;
    }
    yzfaces
    {
        type            empty;
    }
}


// ************************************************************************* //
