/*--------------------------------*- C++ -*----------------------------------*\
| =========                 |                                                 |
| \\      /  F ield         | foam-extend: Open Source CFD                    |
|  \\    /   O peration     | Version:     5.0                                |
|   \\  /    A nd           | Web:         http://www.foam-extend.org         |
|    \\/     M anipulation  |                                                 |
\*---------------------------------------------------------------------------*/
FoamFile
{
    version     2.0;
    format      ascii;
    class       volScalarField;
    location    "2";
    object      CO2.water;
}
// * * * * * * * * * * * * * * * * * * * * * * * * * * * * * * * * * * * * * //

dimensions      [0 0 0 0 0 0 0];

internalField   nonuniform List<scalar> 
100
(
0.00174506
0.00220408
0.00249366
0.00270358
0.00286457
0.00300123
0.00311528
0.00322292
0.00331763
0.00340162
0.00348747
0.00356586
0.00365251
0.00373869
0.0038348
0.00394576
0.00410004
0.00434494
0.0048081
0.00102488
0.000403561
0.000147951
5.18873e-05
1.78384e-05
6.09818e-06
2.07948e-06
7.03322e-07
2.3401e-07
7.56851e-08
2.38551e-08
7.63144e-09
2.30158e-09
7.02081e-10
2.17475e-10
6.81099e-11
2.16644e-11
6.99128e-12
2.29206e-12
7.57998e-13
2.53296e-13
8.49653e-14
2.86219e-14
9.63854e-15
3.25579e-15
1.10189e-15
3.72195e-16
1.25596e-16
4.25171e-17
1.44248e-17
4.88637e-18
1.65617e-18
5.60609e-19
1.8964e-19
6.40815e-20
2.16854e-20
4.07355e-20
1.61343e-19
1.96904e-19
1.6928e-19
1.21423e-19
7.78616e-20
4.6203e-20
2.59202e-20
1.39642e-20
7.27879e-21
3.69789e-21
1.83589e-21
8.92627e-22
4.25738e-22
1.99104e-22
9.12871e-23
4.09139e-23
1.79266e-23
7.66894e-24
3.19579e-24
1.29862e-24
5.14236e-25
1.98766e-25
7.45401e-26
2.71026e-26
9.42456e-27
3.37933e-27
1.14381e-27
3.85127e-28
1.29831e-28
4.36974e-29
1.47271e-29
4.9587e-30
1.67187e-30
5.64358e-31
1.9015e-31
6.42304e-32
2.16672e-32
7.29546e-33
2.46496e-33
8.32301e-34
2.80915e-34
9.47876e-35
3.20095e-35
1.30054e-35
)
;

boundaryField
{
    inlet
    {
        type            fixedValue;
        value           uniform 0;
    }
    outlet
    {
        type            zeroGradient;
    }
    yzfaces
    {
        type            empty;
    }
}


// ************************************************************************* //
