/*--------------------------------*- C++ -*----------------------------------*\
| =========                 |                                                 |
| \\      /  F ield         | foam-extend: Open Source CFD                    |
|  \\    /   O peration     | Version:     5.0                                |
|   \\  /    A nd           | Web:         http://www.foam-extend.org         |
|    \\/     M anipulation  |                                                 |
\*---------------------------------------------------------------------------*/
FoamFile
{
    version     2.0;
    format      ascii;
    class       surfaceScalarField;
    location    "2";
    object      phi;
}
// * * * * * * * * * * * * * * * * * * * * * * * * * * * * * * * * * * * * * //

dimensions      [0 3 -1 0 0 0 0];

internalField   nonuniform List<scalar> 
99
(
1.22349e-06
1.22525e-06
1.2288e-06
1.23137e-06
1.22477e-06
1.23084e-06
1.22941e-06
1.22577e-06
1.22468e-06
1.22205e-06
1.2285e-06
1.22833e-06
1.22959e-06
1.22939e-06
1.22953e-06
1.22942e-06
1.23147e-06
1.2309e-06
1.22916e-06
1.23089e-06
1.2325e-06
1.23e-06
1.22922e-06
1.22922e-06
1.22871e-06
1.22803e-06
1.22585e-06
1.22717e-06
1.22635e-06
1.22493e-06
1.22571e-06
1.22487e-06
1.22571e-06
1.22608e-06
1.2276e-06
1.22661e-06
1.22527e-06
1.22515e-06
1.22554e-06
1.2245e-06
1.22559e-06
1.22485e-06
1.22357e-06
1.22403e-06
1.22448e-06
1.22589e-06
1.22557e-06
1.22577e-06
1.22588e-06
1.22474e-06
1.22397e-06
1.22312e-06
1.22156e-06
1.22083e-06
1.22062e-06
1.22021e-06
1.22109e-06
1.22282e-06
1.22167e-06
1.22108e-06
1.22009e-06
1.22014e-06
1.22035e-06
1.22011e-06
1.22004e-06
1.21757e-06
1.21726e-06
1.21751e-06
1.21719e-06
1.21663e-06
1.2147e-06
1.21574e-06
1.216e-06
1.21502e-06
1.21474e-06
1.21498e-06
1.21554e-06
1.21695e-06
1.21614e-06
1.21749e-06
1.21707e-06
1.21565e-06
1.21486e-06
1.21491e-06
1.21493e-06
1.2155e-06
1.21504e-06
1.21479e-06
1.21364e-06
1.2146e-06
1.21368e-06
1.21516e-06
1.21644e-06
1.21573e-06
1.2149e-06
1.21572e-06
1.21594e-06
1.21778e-06
1.21742e-06
)
;

boundaryField
{
    inlet
    {
        type            calculated;
        value           uniform -1.225e-06;
    }
    outlet
    {
        type            calculated;
        value           uniform 1.2178e-06;
    }
    yzfaces
    {
        type            empty;
    }
}


// ************************************************************************* //
