/*--------------------------------*- C++ -*----------------------------------*\
| =========                 |                                                 |
| \\      /  F ield         | foam-extend: Open Source CFD                    |
|  \\    /   O peration     | Version:     5.0                                |
|   \\  /    A nd           | Web:         http://www.foam-extend.org         |
|    \\/     M anipulation  |                                                 |
\*---------------------------------------------------------------------------*/
FoamFile
{
    version     2.0;
    format      ascii;
    class       volVectorField;
    location    "2";
    object      U.water;
}
// * * * * * * * * * * * * * * * * * * * * * * * * * * * * * * * * * * * * * //

dimensions      [0 1 -1 0 0 0 0];

internalField   nonuniform List<vector> 
100
(
(0.00010479 0 0)
(0.00025604 0 0)
(0.000391005 0 0)
(0.000515553 0 0)
(0.000627695 0 0)
(0.0007414 0 0)
(0.000851211 0 0)
(0.000958387 0 0)
(0.00107048 0 0)
(0.0011789 0 0)
(0.00129745 0 0)
(0.0014256 0 0)
(0.00155799 0 0)
(0.00171211 0 0)
(0.00189363 0 0)
(0.00211736 0 0)
(0.00243834 0 0)
(0.00297901 0 0)
(0.00359677 0 0)
(0.00396465 0 0)
(0.00414934 0 0)
(0.00421298 0 0)
(0.00421513 0 0)
(0.00419854 0 0)
(0.00417775 0 0)
(0.00415995 0 0)
(0.00414857 0 0)
(0.00415279 0 0)
(0.00417206 0 0)
(0.00419984 0 0)
(0.00424465 0 0)
(0.00430469 0 0)
(0.00437852 0 0)
(0.00446679 0 0)
(0.00456472 0 0)
(0.00466259 0 0)
(0.00475034 0 0)
(0.00482798 0 0)
(0.00489261 0 0)
(0.00493799 0 0)
(0.00496961 0 0)
(0.00499032 0 0)
(0.00499844 0 0)
(0.00500395 0 0)
(0.00500992 0 0)
(0.00501614 0 0)
(0.00501973 0 0)
(0.00502025 0 0)
(0.00502134 0 0)
(0.00501948 0 0)
(0.00501575 0 0)
(0.00501253 0 0)
(0.00500755 0 0)
(0.00500285 0 0)
(0.00500094 0 0)
(0.0049997 0 0)
(0.00500066 0 0)
(0.00500602 0 0)
(0.0050072 0 0)
(0.00500365 0 0)
(0.00500038 0 0)
(0.00499848 0 0)
(0.00499903 0 0)
(0.00499892 0 0)
(0.00499835 0 0)
(0.00499314 0 0)
(0.00498744 0 0)
(0.00498731 0 0)
(0.00498718 0 0)
(0.00498532 0 0)
(0.00498027 0 0)
(0.00497847 0 0)
(0.00498109 0 0)
(0.0049795 0 0)
(0.0049769 0 0)
(0.00497685 0 0)
(0.00497856 0 0)
(0.00498262 0 0)
(0.00498385 0 0)
(0.00498502 0 0)
(0.00498694 0 0)
(0.00498315 0 0)
(0.00497855 0 0)
(0.00497703 0 0)
(0.00497721 0 0)
(0.00497845 0 0)
(0.00497868 0 0)
(0.00497722 0 0)
(0.00497436 0 0)
(0.00497389 0 0)
(0.00497398 0 0)
(0.00497519 0 0)
(0.00498079 0 0)
(0.00498195 0 0)
(0.00497881 0 0)
(0.00497879 0 0)
(0.00498095 0 0)
(0.00498519 0 0)
(0.00498822 0 0)
(0.00498826 0 0)
)
;

boundaryField
{
    inlet
    {
        type            fixedValue;
        value           uniform (0 0 0);
    }
    outlet
    {
        type            zeroGradient;
    }
    yzfaces
    {
        type            empty;
    }
}


// ************************************************************************* //
