/*--------------------------------*- C++ -*----------------------------------*\
| =========                 |                                                 |
| \\      /  F ield         | foam-extend: Open Source CFD                    |
|  \\    /   O peration     | Version:     5.0                                |
|   \\  /    A nd           | Web:         http://www.foam-extend.org         |
|    \\/     M anipulation  |                                                 |
\*---------------------------------------------------------------------------*/
FoamFile
{
    version     2.0;
    format      ascii;
    class       volScalarField;
    location    "9.25219";
    object      CO2.water;
}
// * * * * * * * * * * * * * * * * * * * * * * * * * * * * * * * * * * * * * //

dimensions      [0 0 0 0 0 0 0];

internalField   nonuniform List<scalar> 
100
(
5.87325e-05
9.18426e-05
4.81525e-06
7.30138e-07
1.36434e-07
2.48305e-08
4.37205e-09
7.49204e-10
1.25544e-10
2.06464e-11
3.34101e-12
5.33069e-13
8.40022e-14
1.30869e-14
2.01762e-15
3.08149e-16
4.66584e-17
7.00838e-18
1.04463e-18
1.54616e-19
2.27336e-20
3.32164e-21
4.8236e-22
6.96488e-23
1.00036e-23
1.42918e-24
2.03153e-25
2.87411e-26
4.04744e-27
5.6738e-28
7.91967e-29
1.10094e-29
1.52415e-30
2.10184e-31
2.88763e-32
3.95222e-33
5.38992e-34
7.32565e-35
9.92128e-36
1.3393e-36
1.80208e-37
2.41673e-38
3.23145e-39
4.30746e-40
5.72429e-41
7.58595e-42
1.00228e-42
1.32055e-43
1.73539e-44
2.27428e-45
2.97266e-46
3.87571e-47
5.03984e-48
6.53801e-49
8.46047e-50
1.09207e-50
1.4065e-51
1.80688e-52
2.31613e-53
2.96183e-54
3.77942e-55
4.81251e-56
6.11407e-57
7.75148e-58
9.80724e-59
1.23818e-59
1.56011e-60
1.96168e-61
2.46162e-62
3.08304e-63
3.85336e-64
4.8076e-65
5.9864e-66
7.44127e-67
9.23141e-68
1.1433e-68
1.41318e-69
1.74386e-70
2.14816e-71
2.64149e-72
3.24259e-73
3.9737e-74
4.86161e-75
5.93839e-76
7.24216e-77
8.81791e-78
1.07199e-78
1.30117e-79
1.57691e-80
1.90824e-81
2.30572e-82
2.78152e-83
3.35073e-84
4.03011e-85
4.84028e-86
5.80446e-87
6.95105e-88
8.31132e-89
9.92469e-90
1.18354e-90
)
;

boundaryField
{
    inlet
    {
        type            fixedValue;
        value           uniform 0;
    }
    outlet
    {
        type            zeroGradient;
    }
    yzfaces
    {
        type            empty;
    }
}


// ************************************************************************* //
