/*--------------------------------*- C++ -*----------------------------------*\
| =========                 |                                                 |
| \\      /  F ield         | foam-extend: Open Source CFD                    |
|  \\    /   O peration     | Version:     5.0                                |
|   \\  /    A nd           | Web:         http://www.foam-extend.org         |
|    \\/     M anipulation  |                                                 |
\*---------------------------------------------------------------------------*/
FoamFile
{
    version     2.0;
    format      ascii;
    class       volScalarField;
    location    "9";
    object      alpha.gas;
}
// * * * * * * * * * * * * * * * * * * * * * * * * * * * * * * * * * * * * * //

dimensions      [0 0 0 0 0 0 0];

internalField   nonuniform List<scalar> 
100
(
0.168066
0.155842
0.146768
0.140362
0.134889
0.1304
0.125938
0.122162
0.119315
0.116433
0.113603
0.111574
0.109293
0.107441
0.10566
0.10388
0.102234
0.10031
0.0990804
0.0975146
0.0962164
0.0948728
0.0934975
0.0921198
0.0909469
0.0896266
0.0882879
0.0872013
0.0860926
0.0850451
0.0839304
0.0831194
0.0821594
0.0812849
0.0804468
0.0797981
0.0790662
0.078528
0.0780676
0.0774633
0.0768191
0.0760697
0.0755047
0.0751257
0.0746061
0.0740625
0.0734196
0.0728913
0.0721937
0.0716741
0.0710908
0.070622
0.0702931
0.0698588
0.0694267
0.0688805
0.0683261
0.0678178
0.0672639
0.0668418
0.0663367
0.0659485
0.0654285
0.0649293
0.0644217
0.0639269
0.0634553
0.0630302
0.0626944
0.0624369
0.0621466
0.0618262
0.061437
0.0610229
0.0604861
0.0599775
0.0593672
0.0590293
0.0586979
0.05833
0.0579048
0.0574829
0.0571434
0.0568227
0.0565219
0.0561623
0.0557644
0.055401
0.0550445
0.0546165
0.0543132
0.0539843
0.0536398
0.0533229
0.0530018
0.0526873
0.0523904
0.0520454
0.0517475
0.0514026
)
;

boundaryField
{
    inlet
    {
        type            fixedValue;
        value           uniform 0.2;
    }
    outlet
    {
        type            zeroGradient;
    }
    yzfaces
    {
        type            empty;
    }
}


// ************************************************************************* //
