/*--------------------------------*- C++ -*----------------------------------*\
| =========                 |                                                 |
| \\      /  F ield         | foam-extend: Open Source CFD                    |
|  \\    /   O peration     | Version:     5.0                                |
|   \\  /    A nd           | Web:         http://www.foam-extend.org         |
|    \\/     M anipulation  |                                                 |
\*---------------------------------------------------------------------------*/
FoamFile
{
    version     2.0;
    format      ascii;
    class       volScalarField;
    location    "9";
    object      Cl.water;
}
// * * * * * * * * * * * * * * * * * * * * * * * * * * * * * * * * * * * * * //

dimensions      [0 0 0 0 0 0 0];

internalField   nonuniform List<scalar> 
100
(
0.0066776
0.00927721
0.0111442
0.0125779
0.0137403
0.0146978
0.0155853
0.0164173
0.0170857
0.0176395
0.0182032
0.0187033
0.019122
0.0195703
0.0199591
0.0203139
0.0206189
0.0209885
0.0213116
0.0216054
0.0219225
0.0222037
0.0224954
0.0227423
0.023003
0.0232312
0.0234809
0.0237374
0.0239444
0.0241737
0.0243657
0.0245839
0.0247387
0.0249497
0.0251164
0.0252951
0.0254406
0.0255542
0.0256901
0.0258255
0.02598
0.02613
0.0262744
0.0263959
0.0264857
0.0265657
0.026684
0.0268304
0.0269436
0.0270738
0.0271939
0.0272876
0.0273986
0.0274688
0.0275491
0.0276244
0.0277475
0.0278616
0.0279542
0.028063
0.0281584
0.0282398
0.028319
0.028435
0.0285817
0.0286851
0.0287825
0.0288931
0.0289531
0.0290184
0.0290531
0.029092
0.0291506
0.02925
0.0293349
0.0294238
0.0295893
0.0296942
0.0297774
0.0298452
0.0299225
0.0300446
0.0301299
0.0301938
0.0302604
0.0303418
0.0303958
0.0304565
0.030525
0.030627
0.030716
0.0307847
0.0308686
0.0309166
0.03098
0.0310381
0.0310642
0.0310988
0.0311552
0.031225
)
;

boundaryField
{
    inlet
    {
        type            fixedValue;
        value           uniform 0;
    }
    outlet
    {
        type            zeroGradient;
    }
    yzfaces
    {
        type            empty;
    }
}


// ************************************************************************* //
