/*--------------------------------*- C++ -*----------------------------------*\
| =========                 |                                                 |
| \\      /  F ield         | foam-extend: Open Source CFD                    |
|  \\    /   O peration     | Version:     5.0                                |
|   \\  /    A nd           | Web:         http://www.foam-extend.org         |
|    \\/     M anipulation  |                                                 |
\*---------------------------------------------------------------------------*/
FoamFile
{
    version     2.0;
    format      ascii;
    class       volScalarField;
    location    "9";
    object      CO2.gas;
}
// * * * * * * * * * * * * * * * * * * * * * * * * * * * * * * * * * * * * * //

dimensions      [0 0 0 0 0 0 0];

internalField   nonuniform List<scalar> 
100
(
0.166919
0.155544
0.146035
0.140698
0.135213
0.130781
0.125837
0.122409
0.120071
0.116833
0.113762
0.112128
0.109444
0.107933
0.106194
0.104304
0.102458
0.100349
0.0994041
0.0976012
0.0964911
0.0951116
0.0937489
0.092168
0.0910542
0.0895345
0.08812
0.0871166
0.0859654
0.0849698
0.0837163
0.0830984
0.0819613
0.0812005
0.0803028
0.0798096
0.0790495
0.078524
0.0781741
0.0775854
0.0769755
0.0761981
0.0757151
0.075435
0.0748372
0.0742092
0.0734939
0.0730683
0.0723035
0.0718273
0.0712316
0.0707589
0.0705469
0.070058
0.0695963
0.0689408
0.0684
0.0679149
0.0673118
0.0669045
0.0663718
0.0660005
0.0654167
0.0649416
0.0645171
0.0640158
0.0635501
0.0631493
0.0627705
0.0625444
0.0621941
0.0618038
0.0613756
0.0609729
0.0603841
0.0598507
0.0593009
0.0590439
0.0587198
0.0583207
0.057857
0.0575018
0.0571793
0.0568088
0.056481
0.0560982
0.0556346
0.055216
0.0547822
0.0543268
0.0540008
0.0535936
0.0531528
0.0526984
0.052237
0.0517668
0.0512453
0.0506479
0.0501153
0.0495168
)
;

boundaryField
{
    inlet
    {
        type            fixedValue;
        value           uniform 0.2;
    }
    outlet
    {
        type            zeroGradient;
    }
    yzfaces
    {
        type            empty;
    }
}


// ************************************************************************* //
