/*--------------------------------*- C++ -*----------------------------------*\
| =========                 |                                                 |
| \\      /  F ield         | foam-extend: Open Source CFD                    |
|  \\    /   O peration     | Version:     5.0                                |
|   \\  /    A nd           | Web:         http://www.foam-extend.org         |
|    \\/     M anipulation  |                                                 |
\*---------------------------------------------------------------------------*/
FoamFile
{
    version     2.0;
    format      ascii;
    class       volScalarField;
    location    "9";
    object      H2O.water;
}
// * * * * * * * * * * * * * * * * * * * * * * * * * * * * * * * * * * * * * //

dimensions      [0 0 0 0 0 0 0];

internalField   nonuniform List<scalar> 
100
(
0.0183625
0.0255173
0.0306675
0.0346153
0.0377843
0.0404127
0.0428323
0.0451551
0.0470103
0.0485502
0.0500882
0.0514443
0.0525824
0.0538397
0.0548999
0.055892
0.0567436
0.0577446
0.0586144
0.0593844
0.0602543
0.0610098
0.0618162
0.0624725
0.0631893
0.063812
0.0645345
0.0652188
0.0658293
0.0664911
0.0670276
0.0676722
0.0680812
0.0686882
0.0691048
0.0696133
0.0700161
0.0703323
0.0706867
0.0710467
0.0714528
0.07187
0.0722855
0.0725977
0.0728143
0.0730559
0.073357
0.0737783
0.0741311
0.074471
0.0747943
0.0750607
0.075379
0.075583
0.0758028
0.0759888
0.0763179
0.0766494
0.0769104
0.0771583
0.0774227
0.0776778
0.0779053
0.0782186
0.0786147
0.0788959
0.0791806
0.0794516
0.0795783
0.0797748
0.0798645
0.0799528
0.0801386
0.0803924
0.0806393
0.0809195
0.0813447
0.0816768
0.0818848
0.0820699
0.0822742
0.0826411
0.0828995
0.0830292
0.0832006
0.0834125
0.0836013
0.083801
0.0839638
0.0842677
0.084512
0.0847023
0.0848894
0.0850367
0.0852086
0.0853813
0.085466
0.0855757
0.0857304
0.0859303
)
;

boundaryField
{
    inlet
    {
        type            fixedValue;
        value           uniform 0;
    }
    outlet
    {
        type            zeroGradient;
    }
    yzfaces
    {
        type            empty;
    }
}


// ************************************************************************* //
