/*--------------------------------*- C++ -*----------------------------------*\
| =========                 |                                                 |
| \\      /  F ield         | foam-extend: Open Source CFD                    |
|  \\    /   O peration     | Version:     5.0                                |
|   \\  /    A nd           | Web:         http://www.foam-extend.org         |
|    \\/     M anipulation  |                                                 |
\*---------------------------------------------------------------------------*/
FoamFile
{
    version     2.0;
    format      ascii;
    class       volScalarField;
    location    "9";
    object      Na.water;
}
// * * * * * * * * * * * * * * * * * * * * * * * * * * * * * * * * * * * * * //

dimensions      [0 0 0 0 0 0 0];

internalField   nonuniform List<scalar> 
100
(
0.00667633
0.00927903
0.0111544
0.0125881
0.0137427
0.0146921
0.0155854
0.0164226
0.0171009
0.0176648
0.0182263
0.0187181
0.0191292
0.019573
0.0199581
0.0203066
0.020618
0.0209946
0.0213233
0.0215867
0.0219031
0.0221784
0.0224773
0.0227219
0.0229893
0.0232167
0.0234844
0.0237329
0.0239655
0.0241883
0.0243803
0.0245949
0.0247366
0.0249541
0.0251181
0.0253107
0.0254515
0.0255794
0.0257218
0.0258578
0.025999
0.0261396
0.0262824
0.0263948
0.0264824
0.0265654
0.0266675
0.0268089
0.0269259
0.0270554
0.0271763
0.0272804
0.0273974
0.0274606
0.0275403
0.0276212
0.0277508
0.0278605
0.0279665
0.0280622
0.0281532
0.0282402
0.0283238
0.0284438
0.0285843
0.0286837
0.0287886
0.028888
0.0289463
0.0290138
0.0290508
0.0290914
0.0291521
0.0292428
0.0293332
0.0294206
0.0295901
0.0296966
0.0297725
0.029834
0.0299101
0.0300413
0.030122
0.0301758
0.0302323
0.0303152
0.0303915
0.0304595
0.0305115
0.0306164
0.0307135
0.0307957
0.0308721
0.0309249
0.0309823
0.0310522
0.0310898
0.0311257
0.0311772
0.0312387
)
;

boundaryField
{
    inlet
    {
        type            fixedValue;
        value           uniform 0;
    }
    outlet
    {
        type            zeroGradient;
    }
    yzfaces
    {
        type            empty;
    }
}


// ************************************************************************* //
