/*--------------------------------*- C++ -*----------------------------------*\
| =========                 |                                                 |
| \\      /  F ield         | foam-extend: Open Source CFD                    |
|  \\    /   O peration     | Version:     5.0                                |
|   \\  /    A nd           | Web:         http://www.foam-extend.org         |
|    \\/     M anipulation  |                                                 |
\*---------------------------------------------------------------------------*/
FoamFile
{
    version     2.0;
    format      ascii;
    class       surfaceScalarField;
    location    "9";
    object      phi;
}
// * * * * * * * * * * * * * * * * * * * * * * * * * * * * * * * * * * * * * //

dimensions      [0 3 -1 0 0 0 0];

internalField   nonuniform List<scalar> 
99
(
1.23476e-06
1.21959e-06
1.22238e-06
1.21229e-06
1.21838e-06
1.21384e-06
1.20294e-06
1.20133e-06
1.20626e-06
1.21131e-06
1.20946e-06
1.21764e-06
1.21457e-06
1.21645e-06
1.21355e-06
1.21584e-06
1.21445e-06
1.21471e-06
1.21738e-06
1.21687e-06
1.22997e-06
1.22294e-06
1.22562e-06
1.22202e-06
1.22283e-06
1.21782e-06
1.22146e-06
1.22062e-06
1.21841e-06
1.21906e-06
1.22217e-06
1.21864e-06
1.21731e-06
1.21408e-06
1.21036e-06
1.21742e-06
1.21785e-06
1.22108e-06
1.22439e-06
1.21936e-06
1.21685e-06
1.21695e-06
1.21769e-06
1.21507e-06
1.21608e-06
1.21301e-06
1.21254e-06
1.21301e-06
1.21311e-06
1.20991e-06
1.21163e-06
1.2151e-06
1.21928e-06
1.219e-06
1.21654e-06
1.21495e-06
1.22001e-06
1.22073e-06
1.21881e-06
1.2164e-06
1.21403e-06
1.21111e-06
1.2097e-06
1.20729e-06
1.20634e-06
1.2043e-06
1.20821e-06
1.20825e-06
1.20545e-06
1.20281e-06
1.20019e-06
1.1972e-06
1.19711e-06
1.19256e-06
1.19391e-06
1.19645e-06
1.2006e-06
1.20233e-06
1.20462e-06
1.20203e-06
1.19926e-06
1.20414e-06
1.20412e-06
1.20523e-06
1.20221e-06
1.19894e-06
1.19781e-06
1.20033e-06
1.19697e-06
1.2018e-06
1.19578e-06
1.19595e-06
1.19451e-06
1.19416e-06
1.19165e-06
1.1922e-06
1.18869e-06
1.19098e-06
1.19117e-06
)
;

boundaryField
{
    inlet
    {
        type            calculated;
        value           uniform -1.225e-06;
    }
    outlet
    {
        type            calculated;
        value           uniform 1.19396e-06;
    }
    yzfaces
    {
        type            empty;
    }
}


// ************************************************************************* //
