/*--------------------------------*- C++ -*----------------------------------*\
| =========                 |                                                 |
| \\      /  F ield         | foam-extend: Open Source CFD                    |
|  \\    /   O peration     | Version:     5.0                                |
|   \\  /    A nd           | Web:         http://www.foam-extend.org         |
|    \\/     M anipulation  |                                                 |
\*---------------------------------------------------------------------------*/
FoamFile
{
    version     2.0;
    format      ascii;
    class       surfaceScalarField;
    location    "9";
    object      phi.water;
}
// * * * * * * * * * * * * * * * * * * * * * * * * * * * * * * * * * * * * * //

dimensions      [0 3 -1 0 0 0 0];

internalField   nonuniform List<scalar> 
99
(
6.66723e-08
1.14058e-07
1.60819e-07
1.96935e-07
2.35223e-07
2.69997e-07
3.05616e-07
3.40497e-07
3.69256e-07
4.03826e-07
4.38045e-07
4.66723e-07
4.97042e-07
5.23809e-07
5.48907e-07
5.80479e-07
6.06584e-07
6.42391e-07
6.64184e-07
6.95513e-07
7.27425e-07
7.52384e-07
7.83194e-07
8.13375e-07
8.4212e-07
8.71142e-07
9.09107e-07
9.3577e-07
9.6398e-07
9.93689e-07
1.03101e-06
1.04876e-06
1.07917e-06
1.10207e-06
1.12721e-06
1.15305e-06
1.17928e-06
1.19984e-06
1.21696e-06
1.2331e-06
1.25339e-06
1.28069e-06
1.30255e-06
1.31287e-06
1.33466e-06
1.35347e-06
1.37796e-06
1.39902e-06
1.42917e-06
1.44628e-06
1.47403e-06
1.4988e-06
1.51553e-06
1.53567e-06
1.5535e-06
1.57693e-06
1.60876e-06
1.63518e-06
1.65837e-06
1.67607e-06
1.69984e-06
1.71435e-06
1.73876e-06
1.75991e-06
1.78327e-06
1.80707e-06
1.83638e-06
1.86025e-06
1.87589e-06
1.88589e-06
1.90083e-06
1.91337e-06
1.93495e-06
1.95146e-06
1.98554e-06
2.01881e-06
2.06228e-06
2.08275e-06
2.10748e-06
2.12622e-06
2.14674e-06
2.18105e-06
2.2012e-06
2.22591e-06
2.24022e-06
2.25785e-06
2.2819e-06
2.31267e-06
2.33017e-06
2.36723e-06
2.3759e-06
2.39709e-06
2.42025e-06
2.44246e-06
2.46027e-06
2.48504e-06
2.50161e-06
2.5341e-06
2.55537e-06
)
;

boundaryField
{
    inlet
    {
        type            fixedValue;
        value           uniform 0;
    }
    outlet
    {
        type            calculated;
        value           uniform 2.59159e-06;
    }
    yzfaces
    {
        type            empty;
    }
}


// ************************************************************************* //
