/*--------------------------------*- C++ -*----------------------------------*\
| =========                 |                                                 |
| \\      /  F ield         | foam-extend: Open Source CFD                    |
|  \\    /   O peration     | Version:     5.0                                |
|   \\  /    A nd           | Web:         http://www.foam-extend.org         |
|    \\/     M anipulation  |                                                 |
\*---------------------------------------------------------------------------*/
FoamFile
{
    version     2.0;
    format      ascii;
    class       volVectorField;
    location    "9";
    object      U.gas;
}
// * * * * * * * * * * * * * * * * * * * * * * * * * * * * * * * * * * * * * //

dimensions      [0 1 -1 0 0 0 0];

internalField   nonuniform List<vector> 
100
(
(0.00596763 0 0)
(0.00640703 0 0)
(0.00675052 0 0)
(0.00701769 0 0)
(0.00726969 0 0)
(0.00750254 0 0)
(0.00769455 0 0)
(0.00786487 0 0)
(0.00803915 0 0)
(0.00824754 0 0)
(0.00843598 0 0)
(0.00858498 0 0)
(0.00875611 0 0)
(0.00887498 0 0)
(0.00899426 0 0)
(0.0091174 0 0)
(0.00923803 0 0)
(0.00937762 0 0)
(0.00947425 0 0)
(0.00960479 0 0)
(0.00975175 0 0)
(0.00988176 0 0)
(0.00997366 0 0)
(0.0100812 0 0)
(0.0101613 0 0)
(0.0102541 0 0)
(0.0103593 0 0)
(0.0104578 0 0)
(0.0105388 0 0)
(0.0106196 0 0)
(0.0107315 0 0)
(0.0107933 0 0)
(0.010858 0 0)
(0.0109108 0 0)
(0.0109506 0 0)
(0.0110163 0 0)
(0.0111162 0 0)
(0.0111745 0 0)
(0.0112429 0 0)
(0.0112918 0 0)
(0.0113135 0 0)
(0.0113709 0 0)
(0.0114183 0 0)
(0.0114361 0 0)
(0.0114786 0 0)
(0.011517 0 0)
(0.0115596 0 0)
(0.0116013 0 0)
(0.0116698 0 0)
(0.0116927 0 0)
(0.0117378 0 0)
(0.0117978 0 0)
(0.0118579 0 0)
(0.0119192 0 0)
(0.0119416 0 0)
(0.0119727 0 0)
(0.0120374 0 0)
(0.0121057 0 0)
(0.0121487 0 0)
(0.0121566 0 0)
(0.0121764 0 0)
(0.0121747 0 0)
(0.0122025 0 0)
(0.0122218 0 0)
(0.0122452 0 0)
(0.0122678 0 0)
(0.0123131 0 0)
(0.0123645 0 0)
(0.0123696 0 0)
(0.0123554 0 0)
(0.012351 0 0)
(0.0123478 0 0)
(0.0123664 0 0)
(0.0123736 0 0)
(0.0124027 0 0)
(0.0124562 0 0)
(0.0125388 0 0)
(0.0125733 0 0)
(0.0126164 0 0)
(0.0126409 0 0)
(0.0126442 0 0)
(0.012681 0 0)
(0.0127222 0 0)
(0.0127461 0 0)
(0.0127499 0 0)
(0.0127413 0 0)
(0.012745 0 0)
(0.0127698 0 0)
(0.0127824 0 0)
(0.0128191 0 0)
(0.0128165 0 0)
(0.0128043 0 0)
(0.0128158 0 0)
(0.0128167 0 0)
(0.0128163 0 0)
(0.0128191 0 0)
(0.0128137 0 0)
(0.0128247 0 0)
(0.012845 0 0)
(0.0128777 0 0)
)
;

boundaryField
{
    inlet
    {
        type            fixedValue;
        value           uniform (0.005 0 0);
    }
    outlet
    {
        type            zeroGradient;
    }
    yzfaces
    {
        type            empty;
    }
}


// ************************************************************************* //
