/*--------------------------------*- C++ -*----------------------------------*\
| =========                 |                                                 |
| \\      /  F ield         | foam-extend: Open Source CFD                    |
|  \\    /   O peration     | Version:     5.0                                |
|   \\  /    A nd           | Web:         http://www.foam-extend.org         |
|    \\/     M anipulation  |                                                 |
\*---------------------------------------------------------------------------*/
FoamFile
{
    version     2.0;
    format      ascii;
    class       volVectorField;
    location    "9";
    object      U.water;
}
// * * * * * * * * * * * * * * * * * * * * * * * * * * * * * * * * * * * * * //

dimensions      [0 1 -1 0 0 0 0];

internalField   nonuniform List<vector> 
100
(
(3.22927e-05 0 0)
(7.45066e-05 0 0)
(0.000111948 0 0)
(0.000146319 0 0)
(0.000176772 0 0)
(0.000207011 0 0)
(0.000234993 0 0)
(0.000263912 0 0)
(0.000291256 0 0)
(0.000316859 0 0)
(0.00034399 0 0)
(0.000370875 0 0)
(0.000394258 0 0)
(0.000418344 0 0)
(0.000439991 0 0)
(0.000462689 0 0)
(0.000486012 0 0)
(0.000509812 0 0)
(0.000534844 0 0)
(0.000555798 0 0)
(0.00058227 0 0)
(0.000605712 0 0)
(0.00062816 0 0)
(0.000652217 0 0)
(0.000676313 0 0)
(0.00069889 0 0)
(0.000725253 0 0)
(0.000752101 0 0)
(0.000774426 0 0)
(0.000798059 0 0)
(0.000824644 0 0)
(0.000848022 0 0)
(0.000867102 0 0)
(0.000888874 0 0)
(0.000908571 0 0)
(0.000930519 0 0)
(0.000951541 0 0)
(0.000971193 0 0)
(0.000987813 0 0)
(0.00100176 0 0)
(0.001017 0 0)
(0.00103609 0 0)
(0.00105701 0 0)
(0.0010716 0 0)
(0.00108401 0 0)
(0.00109964 0 0)
(0.00111643 0 0)
(0.00113595 0 0)
(0.00115618 0 0)
(0.0011761 0 0)
(0.00119412 0 0)
(0.00121597 0 0)
(0.0012343 0 0)
(0.00124905 0 0)
(0.00126389 0 0)
(0.00127945 0 0)
(0.00130165 0 0)
(0.00132573 0 0)
(0.00134527 0 0)
(0.00136228 0 0)
(0.0013786 0 0)
(0.00139458 0 0)
(0.00140962 0 0)
(0.00142868 0 0)
(0.00144784 0 0)
(0.00146753 0 0)
(0.00148938 0 0)
(0.00151109 0 0)
(0.00152711 0 0)
(0.00153768 0 0)
(0.00154691 0 0)
(0.00155679 0 0)
(0.00156977 0 0)
(0.00158519 0 0)
(0.00160468 0 0)
(0.00163232 0 0)
(0.00166386 0 0)
(0.0016925 0 0)
(0.00171175 0 0)
(0.00172915 0 0)
(0.00174503 0 0)
(0.00176846 0 0)
(0.00179182 0 0)
(0.00180993 0 0)
(0.00182591 0 0)
(0.00183873 0 0)
(0.00185497 0 0)
(0.00187673 0 0)
(0.00189637 0 0)
(0.00191875 0 0)
(0.00193907 0 0)
(0.00195175 0 0)
(0.00196956 0 0)
(0.00198766 0 0)
(0.0020035 0 0)
(0.00202016 0 0)
(0.00203563 0 0)
(0.00205354 0 0)
(0.00207492 0 0)
(0.00209676 0 0)
)
;

boundaryField
{
    inlet
    {
        type            fixedValue;
        value           uniform (0 0 0);
    }
    outlet
    {
        type            zeroGradient;
    }
    yzfaces
    {
        type            empty;
    }
}


// ************************************************************************* //
