/*--------------------------------*- C++ -*----------------------------------*\
| =========                 |                                                 |
| \\      /  F ield         | foam-extend: Open Source CFD                    |
|  \\    /   O peration     | Version:     5.0                                |
|   \\  /    A nd           | Web:         http://www.foam-extend.org         |
|    \\/     M anipulation  |                                                 |
\*---------------------------------------------------------------------------*/
FoamFile
{
    version     2.0;
    format      ascii;
    class       volScalarField;
    location    "3";
    object      alpha.water;
}
// * * * * * * * * * * * * * * * * * * * * * * * * * * * * * * * * * * * * * //

dimensions      [0 0 0 0 0 0 0];

internalField   nonuniform List<scalar> 
100
(
0.00598579
0.00929879
0.0121472
0.0147085
0.0170569
0.0192326
0.0212681
0.023178
0.0249784
0.0266841
0.0283034
0.0298428
0.0313161
0.0327257
0.0340745
0.0353684
0.0366098
0.0378034
0.0389536
0.0400702
0.0411486
0.0421893
0.0431931
0.0441711
0.0451181
0.0460385
0.0469309
0.0477948
0.0486387
0.049461
0.0502593
0.0510394
0.0518063
0.0525473
0.0532719
0.0539851
0.0546752
0.0553538
0.0560148
0.0566582
0.0572948
0.0579133
0.0585256
0.0591234
0.0597102
0.0602797
0.0608467
0.0613871
0.0619285
0.0624636
0.0629828
0.0634959
0.0639958
0.0644919
0.0649794
0.0654561
0.0659305
0.0663937
0.0668521
0.0673046
0.0677456
0.0681826
0.068612
0.0690358
0.0694503
0.0698603
0.0702674
0.070665
0.0710574
0.0714435
0.0718251
0.0722066
0.07258
0.0729448
0.0733015
0.0736583
0.0740066
0.0743528
0.0746938
0.0750352
0.0753744
0.0757064
0.0760295
0.0763584
0.0766795
0.0769936
0.0773039
0.077612
0.0779204
0.0782174
0.0785138
0.0788111
0.079101
0.0793912
0.0796814
0.0799593
0.0802387
0.0805168
0.0807885
0.0810573
)
;

boundaryField
{
    inlet
    {
        type            fixedValue;
        value           uniform 0;
    }
    outlet
    {
        type            zeroGradient;
    }
    yzfaces
    {
        type            empty;
    }
}


// ************************************************************************* //
