/*--------------------------------*- C++ -*----------------------------------*\
| =========                 |                                                 |
| \\      /  F ield         | foam-extend: Open Source CFD                    |
|  \\    /   O peration     | Version:     5.0                                |
|   \\  /    A nd           | Web:         http://www.foam-extend.org         |
|    \\/     M anipulation  |                                                 |
\*---------------------------------------------------------------------------*/
FoamFile
{
    version     2.0;
    format      ascii;
    class       volScalarField;
    location    "3";
    object      H2O.water;
}
// * * * * * * * * * * * * * * * * * * * * * * * * * * * * * * * * * * * * * //

dimensions      [0 0 0 0 0 0 0];

internalField   nonuniform List<scalar> 
100
(
0.00598592
0.00929975
0.0121478
0.0147093
0.0170578
0.0192348
0.0212681
0.0231778
0.0249795
0.0266851
0.0283047
0.0298466
0.0313183
0.0327254
0.0340739
0.0353683
0.0366129
0.0378106
0.0389641
0.0400781
0.0411539
0.0421955
0.0432022
0.0441785
0.0451256
0.0460446
0.0469362
0.0478048
0.048648
0.0494699
0.0502709
0.05105
0.05181
0.0525531
0.0532768
0.0539852
0.0546763
0.0553517
0.0560136
0.0566594
0.0572941
0.0579129
0.0585218
0.0591154
0.0596995
0.0602708
0.0608326
0.061384
0.0619237
0.0624551
0.0629758
0.0634889
0.0639914
0.0644873
0.0649737
0.065452
0.0659223
0.0663853
0.0668409
0.0672887
0.0677308
0.0681658
0.0685941
0.0690164
0.0694322
0.0698413
0.0702461
0.0706433
0.0710372
0.0714236
0.0718054
0.0721809
0.0725537
0.0729187
0.0732811
0.073639
0.0739915
0.0743388
0.0746823
0.0750214
0.0753567
0.0756884
0.0760161
0.07634
0.0766614
0.0769778
0.0772891
0.0775984
0.0779043
0.0782052
0.0785051
0.0787981
0.079093
0.0793799
0.0796679
0.079949
0.0802288
0.0805047
0.0807796
0.0810521
)
;

boundaryField
{
    inlet
    {
        type            fixedValue;
        value           uniform 0;
    }
    outlet
    {
        type            zeroGradient;
    }
    yzfaces
    {
        type            empty;
    }
}


// ************************************************************************* //
