/*--------------------------------*- C++ -*----------------------------------*\
| =========                 |                                                 |
| \\      /  F ield         | foam-extend: Open Source CFD                    |
|  \\    /   O peration     | Version:     5.0                                |
|   \\  /    A nd           | Web:         http://www.foam-extend.org         |
|    \\/     M anipulation  |                                                 |
\*---------------------------------------------------------------------------*/
FoamFile
{
    version     2.0;
    format      ascii;
    class       surfaceScalarField;
    location    "3";
    object      phi.gas;
}
// * * * * * * * * * * * * * * * * * * * * * * * * * * * * * * * * * * * * * //

dimensions      [0 3 -1 0 0 0 0];

internalField   nonuniform List<scalar> 
99
(
0.000636868
0.000647171
0.000656485
0.000665235
0.00067338
0.000681346
0.000688804
0.000696029
0.000702967
0.0007097
0.000716117
0.000722369
0.000728513
0.000734684
0.000740531
0.000746096
0.000751665
0.000757103
0.000762457
0.000767627
0.000772516
0.00077738
0.000782286
0.000786949
0.000791607
0.000796196
0.000800674
0.000805204
0.000809451
0.00081376
0.000817908
0.000822047
0.00082616
0.000830152
0.000834283
0.000838248
0.000842136
0.000846079
0.000849835
0.000853544
0.000857337
0.000861076
0.000864691
0.000868328
0.000871807
0.000875168
0.000878517
0.000881716
0.000885109
0.000888508
0.000891802
0.000895026
0.000898157
0.00090134
0.000904519
0.00090766
0.000910833
0.000913802
0.000916887
0.000919851
0.00092283
0.000925792
0.000928645
0.000931513
0.000934346
0.000937218
0.000940081
0.000942857
0.000945627
0.000948255
0.000950938
0.000953625
0.000956286
0.000958884
0.000961554
0.000964281
0.000966906
0.000969476
0.0009721
0.000974593
0.000977257
0.000979794
0.000982242
0.000984776
0.000987139
0.000989576
0.000991899
0.000994368
0.000996754
0.000999121
0.00100149
0.00100382
0.00100612
0.00100842
0.00101071
0.00101287
0.00101507
0.0010173
0.00101948
)
;

boundaryField
{
    inlet
    {
        type            fixedValue;
        value           uniform -0.0006125;
    }
    outlet
    {
        type            calculated;
        value           uniform 0.00102054;
    }
    yzfaces
    {
        type            empty;
    }
}


// ************************************************************************* //
