/*--------------------------------*- C++ -*----------------------------------*\
| =========                 |                                                 |
| \\      /  F ield         | foam-extend: Open Source CFD                    |
|  \\    /   O peration     | Version:     5.0                                |
|   \\  /    A nd           | Web:         http://www.foam-extend.org         |
|    \\/     M anipulation  |                                                 |
\*---------------------------------------------------------------------------*/
FoamFile
{
    version     2.0;
    format      ascii;
    class       surfaceScalarField;
    location    "3";
    object      phi.water;
}
// * * * * * * * * * * * * * * * * * * * * * * * * * * * * * * * * * * * * * //

dimensions      [0 3 -1 0 0 0 0];

internalField   nonuniform List<scalar> 
99
(
2.68552e-07
4.78037e-07
6.71324e-07
8.55236e-07
1.03247e-06
1.20494e-06
1.37315e-06
1.53792e-06
1.69898e-06
1.8577e-06
2.01358e-06
2.16667e-06
2.31831e-06
2.46862e-06
2.6165e-06
2.76195e-06
2.90614e-06
3.04838e-06
3.18885e-06
3.32879e-06
3.46682e-06
3.60314e-06
3.7382e-06
3.87263e-06
4.00548e-06
4.13782e-06
4.26877e-06
4.39909e-06
4.52733e-06
4.65588e-06
4.78204e-06
4.9077e-06
5.03446e-06
5.15856e-06
5.28287e-06
5.40739e-06
5.52911e-06
5.65166e-06
5.77256e-06
5.89184e-06
6.01241e-06
6.13148e-06
6.25064e-06
6.36872e-06
6.48618e-06
6.60069e-06
6.71797e-06
6.82896e-06
6.94352e-06
7.05906e-06
7.17235e-06
7.28553e-06
7.3961e-06
7.50811e-06
7.61972e-06
7.72976e-06
7.84195e-06
7.95132e-06
8.06137e-06
8.17117e-06
8.27949e-06
8.38768e-06
8.49488e-06
8.6028e-06
8.70858e-06
8.81503e-06
8.92266e-06
9.02816e-06
9.13313e-06
9.23658e-06
9.33999e-06
9.4449e-06
9.54907e-06
9.65202e-06
9.75331e-06
9.85736e-06
9.9588e-06
1.00603e-05
1.01614e-05
1.02621e-05
1.03659e-05
1.04671e-05
1.05652e-05
1.06675e-05
1.07672e-05
1.0866e-05
1.09634e-05
1.10622e-05
1.11624e-05
1.12589e-05
1.1356e-05
1.14545e-05
1.1551e-05
1.16476e-05
1.17468e-05
1.18401e-05
1.19346e-05
1.2031e-05
1.21259e-05
)
;

boundaryField
{
    inlet
    {
        type            fixedValue;
        value           uniform 0;
    }
    outlet
    {
        type            calculated;
        value           uniform 1.22394e-05;
    }
    yzfaces
    {
        type            empty;
    }
}


// ************************************************************************* //
