/*--------------------------------*- C++ -*----------------------------------*\
| =========                 |                                                 |
| \\      /  F ield         | foam-extend: Open Source CFD                    |
|  \\    /   O peration     | Version:     5.0                                |
|   \\  /    A nd           | Web:         http://www.foam-extend.org         |
|    \\/     M anipulation  |                                                 |
\*---------------------------------------------------------------------------*/
FoamFile
{
    version     2.0;
    format      ascii;
    class       volVectorField;
    location    "3";
    object      U.water;
}
// * * * * * * * * * * * * * * * * * * * * * * * * * * * * * * * * * * * * * //

dimensions      [0 1 -1 0 0 0 0];

internalField   nonuniform List<vector> 
100
(
(0.000139957 0 0)
(0.000315111 0 0)
(0.000475166 0 0)
(0.000627129 0 0)
(0.000773399 0 0)
(0.000915483 0 0)
(0.00105393 0 0)
(0.00118949 0 0)
(0.00132228 0 0)
(0.00145261 0 0)
(0.00158087 0 0)
(0.00170702 0 0)
(0.00183121 0 0)
(0.00195425 0 0)
(0.00207587 0 0)
(0.00219557 0 0)
(0.00231394 0 0)
(0.00243107 0 0)
(0.00254668 0 0)
(0.00266093 0 0)
(0.00277422 0 0)
(0.0028862 0 0)
(0.00299721 0 0)
(0.00310707 0 0)
(0.00321615 0 0)
(0.00332428 0 0)
(0.00343173 0 0)
(0.00353864 0 0)
(0.00364418 0 0)
(0.00374896 0 0)
(0.00385308 0 0)
(0.00395583 0 0)
(0.00405835 0 0)
(0.00416084 0 0)
(0.00426224 0 0)
(0.00436336 0 0)
(0.00446396 0 0)
(0.00456343 0 0)
(0.0046628 0 0)
(0.00476112 0 0)
(0.00485875 0 0)
(0.0049567 0 0)
(0.00505352 0 0)
(0.00515009 0 0)
(0.00524591 0 0)
(0.00534081 0 0)
(0.00543492 0 0)
(0.00552902 0 0)
(0.005621 0 0)
(0.00571451 0 0)
(0.00580811 0 0)
(0.00590047 0 0)
(0.00599212 0 0)
(0.00608288 0 0)
(0.00617407 0 0)
(0.00626467 0 0)
(0.006355 0 0)
(0.00644539 0 0)
(0.00653465 0 0)
(0.00662397 0 0)
(0.00671306 0 0)
(0.00680123 0 0)
(0.00688903 0 0)
(0.00697665 0 0)
(0.00706399 0 0)
(0.00715057 0 0)
(0.00723762 0 0)
(0.00732465 0 0)
(0.00741059 0 0)
(0.00749575 0 0)
(0.00758014 0 0)
(0.00766461 0 0)
(0.00774974 0 0)
(0.00783441 0 0)
(0.00791832 0 0)
(0.00800221 0 0)
(0.00808654 0 0)
(0.00816951 0 0)
(0.00825245 0 0)
(0.0083346 0 0)
(0.00841764 0 0)
(0.00850123 0 0)
(0.00858309 0 0)
(0.00866435 0 0)
(0.00874673 0 0)
(0.00882801 0 0)
(0.00890828 0 0)
(0.00898846 0 0)
(0.00906934 0 0)
(0.00915017 0 0)
(0.00922944 0 0)
(0.00930903 0 0)
(0.00938888 0 0)
(0.00946755 0 0)
(0.00954696 0 0)
(0.00962608 0 0)
(0.00970272 0 0)
(0.00978045 0 0)
(0.00985886 0 0)
(0.0099361 0 0)
)
;

boundaryField
{
    inlet
    {
        type            fixedValue;
        value           uniform (0 0 0);
    }
    outlet
    {
        type            zeroGradient;
    }
    yzfaces
    {
        type            empty;
    }
}


// ************************************************************************* //
