/*--------------------------------*- C++ -*----------------------------------*\
| =========                 |                                                 |
| \\      /  F ield         | foam-extend: Open Source CFD                    |
|  \\    /   O peration     | Version:     5.0                                |
|   \\  /    A nd           | Web:         http://www.foam-extend.org         |
|    \\/     M anipulation  |                                                 |
\*---------------------------------------------------------------------------*/
FoamFile
{
    version     2.0;
    format      ascii;
    class       volScalarField;
    location    "6";
    object      alpha.gas;
}
// * * * * * * * * * * * * * * * * * * * * * * * * * * * * * * * * * * * * * //

dimensions      [0 0 0 0 0 0 0];

internalField   nonuniform List<scalar> 
100
(
0.159713
0.14616
0.136228
0.132844
0.126969
0.12124
0.116384
0.112717
0.108864
0.105548
0.102851
0.0999032
0.0974861
0.0951499
0.0930458
0.0915905
0.0894486
0.0878988
0.0868419
0.0857054
0.0843071
0.0831057
0.0818515
0.08045
0.0792362
0.0782856
0.077113
0.0760707
0.0753162
0.0743652
0.0735074
0.0725699
0.0716608
0.0709316
0.070188
0.0693736
0.068707
0.0678626
0.0669513
0.0661059
0.0655511
0.064812
0.0640373
0.0633662
0.0627419
0.0621388
0.0615614
0.0610326
0.0603331
0.059763
0.0592194
0.0586326
0.0580658
0.0575365
0.0569409
0.0564742
0.0559727
0.055453
0.0549493
0.0544335
0.0539736
0.053513
0.0530233
0.0525151
0.0520372
0.0515985
0.0511
0.0505325
0.0500264
0.0495463
0.0490758
0.0485902
0.0480602
0.0475293
0.0470085
0.0464061
0.0458276
0.0452163
0.0446534
0.04409
0.0435139
0.0429456
0.0423695
0.0417705
0.0411968
0.0405839
0.0399655
0.0393258
0.0386556
0.0379836
0.0372516
0.0365147
0.0357361
0.0348945
0.0340206
0.0330772
0.0320522
0.0309445
0.029759
0.0284432
)
;

boundaryField
{
    inlet
    {
        type            fixedValue;
        value           uniform 0.2;
    }
    outlet
    {
        type            zeroGradient;
    }
    yzfaces
    {
        type            empty;
    }
}


// ************************************************************************* //
