/*--------------------------------*- C++ -*----------------------------------*\
| =========                 |                                                 |
| \\      /  F ield         | foam-extend: Open Source CFD                    |
|  \\    /   O peration     | Version:     5.0                                |
|   \\  /    A nd           | Web:         http://www.foam-extend.org         |
|    \\/     M anipulation  |                                                 |
\*---------------------------------------------------------------------------*/
FoamFile
{
    version     2.0;
    format      ascii;
    class       volScalarField;
    location    "6";
    object      Cl.water;
}
// * * * * * * * * * * * * * * * * * * * * * * * * * * * * * * * * * * * * * //

dimensions      [0 0 0 0 0 0 0];

internalField   nonuniform List<scalar> 
100
(
0.00462618
0.00618226
0.0073218
0.00771104
0.0083876
0.00904565
0.00959982
0.0100223
0.0104663
0.0108444
0.011156
0.0114948
0.0117684
0.0120402
0.0122846
0.0124534
0.0126945
0.0128753
0.0129977
0.0131291
0.0132912
0.0134294
0.0135714
0.0137294
0.0138671
0.0139744
0.0141084
0.0142282
0.0143117
0.0144217
0.014522
0.0146269
0.0147338
0.01482
0.014903
0.0150004
0.0150744
0.0151723
0.0152778
0.015377
0.0154407
0.0155246
0.0156161
0.0156957
0.0157683
0.015836
0.0159054
0.0159639
0.0160403
0.0161076
0.0161677
0.0162396
0.0163047
0.0163684
0.0164341
0.0164871
0.0165378
0.0165968
0.0166545
0.016717
0.0167702
0.0168239
0.0168825
0.0169407
0.0169939
0.0170445
0.0170996
0.0171619
0.0172176
0.0172666
0.0173193
0.0173798
0.0174408
0.0175047
0.0175682
0.0176375
0.0177005
0.0177701
0.0178332
0.0178998
0.0179669
0.0180304
0.018097
0.0181629
0.0182325
0.0183036
0.0192644
0.0194358
0.0195199
0.0196002
0.019681
0.0197698
0.0198575
0.0199526
0.0200748
0.0201775
0.0203023
0.02044
0.0206002
0.0207287
)
;

boundaryField
{
    inlet
    {
        type            fixedValue;
        value           uniform 0;
    }
    outlet
    {
        type            zeroGradient;
    }
    yzfaces
    {
        type            empty;
    }
}


// ************************************************************************* //
