/*--------------------------------*- C++ -*----------------------------------*\
| =========                 |                                                 |
| \\      /  F ield         | foam-extend: Open Source CFD                    |
|  \\    /   O peration     | Version:     5.0                                |
|   \\  /    A nd           | Web:         http://www.foam-extend.org         |
|    \\/     M anipulation  |                                                 |
\*---------------------------------------------------------------------------*/
FoamFile
{
    version     2.0;
    format      ascii;
    class       volScalarField;
    location    "6";
    object      CO2.gas;
}
// * * * * * * * * * * * * * * * * * * * * * * * * * * * * * * * * * * * * * //

dimensions      [0 0 0 0 0 0 0];

internalField   nonuniform List<scalar> 
100
(
0.159402
0.145875
0.135962
0.132585
0.126722
0.121004
0.116157
0.112498
0.108652
0.105342
0.10265
0.0997087
0.0972962
0.0949646
0.0928646
0.0914122
0.0892744
0.0877276
0.0866728
0.0855385
0.0841429
0.0829438
0.0816921
0.0802934
0.0790819
0.0781331
0.0769628
0.0759226
0.0751695
0.0742204
0.0733642
0.0724286
0.0715212
0.0707934
0.0700513
0.0692385
0.0685732
0.0677305
0.0668209
0.0659771
0.0654235
0.0646858
0.0639126
0.0632428
0.0626197
0.0620178
0.0614415
0.0609137
0.0602156
0.0596466
0.059104
0.0585184
0.0579527
0.0574245
0.05683
0.0563642
0.0558637
0.055345
0.0548423
0.0543275
0.0538685
0.0534088
0.05292
0.0524128
0.0519359
0.0514981
0.0510005
0.0504341
0.0499289
0.0494498
0.0489802
0.0484956
0.0479666
0.0474367
0.046917
0.0463157
0.0457383
0.0451282
0.0445665
0.0440042
0.0434292
0.042862
0.0422869
0.0416891
0.0411166
0.0405049
0.0328565
0.0275539
0.0234397
0.0200596
0.0171392
0.014583
0.0123085
0.010292
0.00851982
0.00694666
0.00557758
0.00439511
0.00339363
0.00255062
)
;

boundaryField
{
    inlet
    {
        type            fixedValue;
        value           uniform 0.2;
    }
    outlet
    {
        type            zeroGradient;
    }
    yzfaces
    {
        type            empty;
    }
}


// ************************************************************************* //
