/*--------------------------------*- C++ -*----------------------------------*\
| =========                 |                                                 |
| \\      /  F ield         | foam-extend: Open Source CFD                    |
|  \\    /   O peration     | Version:     5.0                                |
|   \\  /    A nd           | Web:         http://www.foam-extend.org         |
|    \\/     M anipulation  |                                                 |
\*---------------------------------------------------------------------------*/
FoamFile
{
    version     2.0;
    format      ascii;
    class       volScalarField;
    location    "6";
    object      CO2.water;
}
// * * * * * * * * * * * * * * * * * * * * * * * * * * * * * * * * * * * * * //

dimensions      [0 0 0 0 0 0 0];

internalField   nonuniform List<scalar> 
100
(
0.00105811
0.00141409
0.00167495
0.00176383
0.00191811
0.0020686
0.00219614
0.00229244
0.00239365
0.00248074
0.00255158
0.002629
0.00269248
0.00275384
0.0028091
0.00284732
0.00290358
0.00294429
0.00297204
0.0030019
0.00303862
0.00307018
0.00310312
0.00313992
0.00317181
0.00319677
0.00322757
0.00325495
0.00327476
0.00329974
0.00332227
0.00334689
0.00337077
0.00338992
0.00340945
0.00343084
0.00344835
0.00347053
0.00349446
0.00351667
0.00353124
0.00355065
0.003571
0.00358862
0.00360502
0.00362086
0.00363603
0.00364992
0.00366829
0.00368326
0.00369754
0.00371295
0.00372784
0.00374174
0.00375738
0.00376964
0.00378281
0.00379646
0.00380969
0.00382324
0.00383532
0.00384741
0.00386028
0.00387362
0.00388617
0.0038977
0.00391079
0.0039257
0.00393899
0.0039516
0.00396396
0.00397671
0.00399063
0.00400457
0.00401825
0.00403407
0.00404927
0.00406532
0.00408011
0.0040949
0.00411003
0.00412496
0.00414009
0.00415583
0.00417089
0.00418699
0.00047285
5.62556e-05
7.13495e-06
9.79005e-07
1.46717e-07
2.44932e-08
4.57475e-09
8.69954e-10
1.67651e-10
3.28499e-11
6.54147e-12
1.33076e-12
2.75257e-13
6.52443e-14
)
;

boundaryField
{
    inlet
    {
        type            fixedValue;
        value           uniform 0;
    }
    outlet
    {
        type            zeroGradient;
    }
    yzfaces
    {
        type            empty;
    }
}


// ************************************************************************* //
