/*--------------------------------*- C++ -*----------------------------------*\
| =========                 |                                                 |
| \\      /  F ield         | foam-extend: Open Source CFD                    |
|  \\    /   O peration     | Version:     5.0                                |
|   \\  /    A nd           | Web:         http://www.foam-extend.org         |
|    \\/     M anipulation  |                                                 |
\*---------------------------------------------------------------------------*/
FoamFile
{
    version     2.0;
    format      ascii;
    class       volScalarField;
    location    "6";
    object      H2O.gas;
}
// * * * * * * * * * * * * * * * * * * * * * * * * * * * * * * * * * * * * * //

dimensions      [0 0 0 0 0 0 0];

internalField   nonuniform List<scalar> 
100
(
0.000311037
0.000284642
0.000265299
0.000258709
0.000247269
0.000236111
0.000226654
0.000219514
0.000212009
0.000205551
0.000200299
0.000194559
0.000189851
0.000185302
0.000181204
0.00017837
0.000174199
0.00017118
0.000169122
0.000166909
0.000164186
0.000161846
0.000159403
0.000156674
0.00015431
0.000152459
0.000150175
0.000148146
0.000146676
0.000144824
0.000143154
0.000141328
0.000139557
0.000138137
0.000136689
0.000135103
0.000133805
0.00013216
0.000130386
0.000128739
0.000127659
0.000126219
0.000124711
0.000123404
0.000122188
0.000121014
0.000119889
0.000118859
0.000117497
0.000116387
0.000115328
0.000114185
0.000113081
0.000112051
0.000110891
0.000109982
0.000109005
0.000107993
0.000107012
0.000106008
0.000105112
0.000104215
0.000103261
0.000102272
0.000101341
0.000100487
9.95157e-05
9.84105e-05
9.74249e-05
9.649e-05
9.55737e-05
9.46281e-05
9.35958e-05
9.25618e-05
9.15477e-05
9.03745e-05
8.92479e-05
8.80574e-05
8.69613e-05
8.58641e-05
8.47421e-05
8.36354e-05
8.25133e-05
8.13467e-05
8.02296e-05
7.90359e-05
0.00711803
0.0117727
0.0151886
0.0178831
0.0200622
0.0218725
0.0233439
0.0245171
0.0254426
0.0260609
0.0264097
0.0264944
0.0263381
0.025838
)
;

boundaryField
{
    inlet
    {
        type            fixedValue;
        value           uniform 0;
    }
    outlet
    {
        type            zeroGradient;
    }
    yzfaces
    {
        type            empty;
    }
}


// ************************************************************************* //
