/*--------------------------------*- C++ -*----------------------------------*\
| =========                 |                                                 |
| \\      /  F ield         | foam-extend: Open Source CFD                    |
|  \\    /   O peration     | Version:     5.0                                |
|   \\  /    A nd           | Web:         http://www.foam-extend.org         |
|    \\/     M anipulation  |                                                 |
\*---------------------------------------------------------------------------*/
FoamFile
{
    version     2.0;
    format      ascii;
    class       surfaceScalarField;
    location    "6";
    object      phi.water;
}
// * * * * * * * * * * * * * * * * * * * * * * * * * * * * * * * * * * * * * //

dimensions      [0 3 -1 0 0 0 0];

internalField   nonuniform List<scalar> 
99
(
9.43066e-08
1.59081e-07
2.325e-07
2.52612e-07
2.96733e-07
3.50148e-07
4.02686e-07
4.44605e-07
4.97429e-07
5.46254e-07
5.84373e-07
6.35666e-07
6.83545e-07
7.28622e-07
7.73064e-07
8.05355e-07
8.59002e-07
9.01882e-07
9.306e-07
9.53531e-07
9.91625e-07
1.02774e-06
1.05812e-06
1.10017e-06
1.14675e-06
1.18139e-06
1.2263e-06
1.26799e-06
1.28945e-06
1.32846e-06
1.36047e-06
1.39899e-06
1.43988e-06
1.46973e-06
1.5013e-06
1.53536e-06
1.56157e-06
1.59661e-06
1.64826e-06
1.69287e-06
1.7139e-06
1.75238e-06
1.79819e-06
1.83582e-06
1.86542e-06
1.90026e-06
1.93901e-06
1.9697e-06
2.01585e-06
2.04736e-06
2.07891e-06
2.11782e-06
2.15361e-06
2.18654e-06
2.23033e-06
2.26067e-06
2.29148e-06
2.32866e-06
2.36463e-06
2.40589e-06
2.43516e-06
2.46208e-06
2.4963e-06
2.53896e-06
2.57109e-06
2.60246e-06
2.63053e-06
2.67626e-06
2.7153e-06
2.75306e-06
2.78352e-06
2.81066e-06
2.85418e-06
2.89781e-06
2.9376e-06
2.9972e-06
3.04139e-06
3.09876e-06
3.14288e-06
3.19515e-06
3.24938e-06
3.2962e-06
3.34933e-06
3.40407e-06
3.45521e-06
3.51164e-06
3.56524e-06
3.62636e-06
3.69348e-06
3.75324e-06
3.82619e-06
3.90109e-06
3.97554e-06
4.05757e-06
4.14047e-06
4.23188e-06
4.33125e-06
4.44339e-06
4.556e-06
)
;

boundaryField
{
    inlet
    {
        type            fixedValue;
        value           uniform 0;
    }
    outlet
    {
        type            calculated;
        value           uniform 4.72468e-06;
    }
    yzfaces
    {
        type            empty;
    }
}


// ************************************************************************* //
