/*--------------------------------*- C++ -*----------------------------------*\
| =========                 |                                                 |
| \\      /  F ield         | foam-extend: Open Source CFD                    |
|  \\    /   O peration     | Version:     5.0                                |
|   \\  /    A nd           | Web:         http://www.foam-extend.org         |
|    \\/     M anipulation  |                                                 |
\*---------------------------------------------------------------------------*/
FoamFile
{
    version     2.0;
    format      ascii;
    class       volVectorField;
    location    "6";
    object      U.gas;
}
// * * * * * * * * * * * * * * * * * * * * * * * * * * * * * * * * * * * * * //

dimensions      [0 1 -1 0 0 0 0];

internalField   nonuniform List<vector> 
100
(
(0.00626933 0 0)
(0.00681829 0 0)
(0.00729303 0 0)
(0.00750286 0 0)
(0.00779151 0 0)
(0.00803977 0 0)
(0.00827052 0 0)
(0.00846918 0 0)
(0.00872019 0 0)
(0.00893224 0 0)
(0.00908049 0 0)
(0.00925815 0 0)
(0.00944299 0 0)
(0.00963336 0 0)
(0.00977305 0 0)
(0.00988395 0 0)
(0.0100831 0 0)
(0.0102202 0 0)
(0.0103307 0 0)
(0.0104029 0 0)
(0.0104736 0 0)
(0.0105655 0 0)
(0.0106581 0 0)
(0.0107425 0 0)
(0.0108531 0 0)
(0.01097 0 0)
(0.0111161 0 0)
(0.0112386 0 0)
(0.011282 0 0)
(0.0113536 0 0)
(0.0114309 0 0)
(0.0115195 0 0)
(0.0116083 0 0)
(0.0116695 0 0)
(0.0117332 0 0)
(0.0117899 0 0)
(0.0118176 0 0)
(0.0118669 0 0)
(0.0119604 0 0)
(0.0120717 0 0)
(0.0120921 0 0)
(0.0121394 0 0)
(0.0122209 0 0)
(0.0122944 0 0)
(0.0123321 0 0)
(0.0123629 0 0)
(0.0124256 0 0)
(0.0124878 0 0)
(0.0125768 0 0)
(0.0126183 0 0)
(0.0126365 0 0)
(0.0126769 0 0)
(0.0127222 0 0)
(0.0127545 0 0)
(0.0128042 0 0)
(0.012838 0 0)
(0.0128725 0 0)
(0.0128976 0 0)
(0.0129257 0 0)
(0.0129762 0 0)
(0.013007 0 0)
(0.0130087 0 0)
(0.0130155 0 0)
(0.0130508 0 0)
(0.0130731 0 0)
(0.0130773 0 0)
(0.0130749 0 0)
(0.0130795 0 0)
(0.0130927 0 0)
(0.0131046 0 0)
(0.0131039 0 0)
(0.0130773 0 0)
(0.013063 0 0)
(0.0130687 0 0)
(0.0130723 0 0)
(0.0130979 0 0)
(0.0131031 0 0)
(0.0131096 0 0)
(0.013097 0 0)
(0.013086 0 0)
(0.0130883 0 0)
(0.0130729 0 0)
(0.0130554 0 0)
(0.0130384 0 0)
(0.0130079 0 0)
(0.0129843 0 0)
(0.0129434 0 0)
(0.0128987 0 0)
(0.0128574 0 0)
(0.0128025 0 0)
(0.0127504 0 0)
(0.0126862 0 0)
(0.0126093 0 0)
(0.0125267 0 0)
(0.0124236 0 0)
(0.0123037 0 0)
(0.0121686 0 0)
(0.0120142 0 0)
(0.0118223 0 0)
(0.0116001 0 0)
)
;

boundaryField
{
    inlet
    {
        type            fixedValue;
        value           uniform (0.005 0 0);
    }
    outlet
    {
        type            zeroGradient;
    }
    yzfaces
    {
        type            empty;
    }
}


// ************************************************************************* //
