/*--------------------------------*- C++ -*----------------------------------*\
| =========                 |                                                 |
| \\      /  F ield         | foam-extend: Open Source CFD                    |
|  \\    /   O peration     | Version:     5.0                                |
|   \\  /    A nd           | Web:         http://www.foam-extend.org         |
|    \\/     M anipulation  |                                                 |
\*---------------------------------------------------------------------------*/
FoamFile
{
    version     2.0;
    format      ascii;
    class       volScalarField;
    location    "1.19076892";
    object      alpha.gas;
}
// * * * * * * * * * * * * * * * * * * * * * * * * * * * * * * * * * * * * * //

dimensions      [0 0 0 0 0 0 0];

internalField   nonuniform List<scalar> 
100
(
0.118487
0.100594
0.0897289
0.0816857
0.0750376
0.0695827
0.0645172
0.0597183
0.0555459
0.0519889
0.0400751
0.0374392
0.0370856
0.0369785
0.0365084
0.0356351
0.0344211
0.032895
0.0311455
0.0291909
0.0270568
0.0247698
0.0223689
0.0199316
0.0175876
0.0154603
0.0136873
0.0123394
0.0114104
0.0108191
0.0104601
0.0102553
0.0101378
0.0100747
0.010041
0.0100223
0.0100129
0.0100056
0.0100022
0.00999967
0.00999973
0.00999773
0.00999969
0.00999986
0.01
0.00999927
0.00999842
0.00999804
0.00999753
0.00999859
0.00999953
0.00999829
0.0100007
0.0100008
0.010002
0.0100001
0.00999905
0.00999899
0.00999856
0.00999982
0.00999994
0.0100015
0.0100003
0.00999951
0.0100005
0.0100001
0.00999919
0.0100007
0.0100017
0.0100016
0.0100035
0.0100024
0.0100014
0.00999862
0.0100001
0.00999731
0.00999842
0.0100003
0.0100002
0.0100012
0.0100002
0.0100008
0.0100029
0.0100028
0.0100029
0.0100037
0.010003
0.0100027
0.0100013
0.0100003
0.00999949
0.00999946
0.00999794
0.00999771
0.00999925
0.00999897
0.0100014
0.0100007
0.00999932
0.0099985
)
;

boundaryField
{
    inlet
    {
        type            fixedValue;
        value           uniform 0.2;
    }
    outlet
    {
        type            zeroGradient;
    }
    yzfaces
    {
        type            empty;
    }
}


// ************************************************************************* //
