/*--------------------------------*- C++ -*----------------------------------*\
| =========                 |                                                 |
| \\      /  F ield         | foam-extend: Open Source CFD                    |
|  \\    /   O peration     | Version:     5.0                                |
|   \\  /    A nd           | Web:         http://www.foam-extend.org         |
|    \\/     M anipulation  |                                                 |
\*---------------------------------------------------------------------------*/
FoamFile
{
    version     2.0;
    format      ascii;
    class       volScalarField;
    location    "1.19076892";
    object      Cl.water;
}
// * * * * * * * * * * * * * * * * * * * * * * * * * * * * * * * * * * * * * //

dimensions      [0 0 0 0 0 0 0];

internalField   nonuniform List<scalar> 
100
(
0
0.00595649
0.0100926
0.00617806
0.00762323
0.0109108
0.00656268
0.00860022
0.0124082
0.0153623
0.00344492
0.0136182
0.0179394
0.0192517
0.0196872
0.019872
0.0200593
0.0202365
0.0204468
0.0206559
0.0209312
0.0212065
0.0215014
0.0217973
0.0220833
0.0223312
0.0225149
0.0226983
0.0228139
0.0228837
0.0229334
0.0229577
0.022963
0.0229807
0.0229889
0.022996
0.0229857
0.0230029
0.0230008
0.0229872
0.0229861
0.0229929
0.0230033
0.0229787
0.0229997
0.0229917
0.0230003
0.0229876
0.0229835
0.0229828
0.0229953
0.0229907
0.0229977
0.0230021
0.0230106
0.0230272
0.0230016
0.0229936
0.0229961
0.0229757
0.0229844
0.022979
0.0230012
0.0230082
0.0229816
0.0230026
0.0229968
0.0229842
0.0230055
0.0230104
0.0229959
0.0230152
0.0230046
0.0230075
0.0229918
0.0230144
0.0230328
0.0230149
0.023014
0.023002
0.0230064
0.0230188
0.0229865
0.0229977
0.0230044
0.0230142
0.0230042
0.0230125
0.0230101
0.0229967
0.0229909
0.022985
0.0229819
0.0229694
0.0229791
0.0229633
0.0229584
0.0229997
0.0230007
0.0230146
)
;

boundaryField
{
    inlet
    {
        type            fixedValue;
        value           uniform 0;
    }
    outlet
    {
        type            zeroGradient;
    }
    yzfaces
    {
        type            empty;
    }
}


// ************************************************************************* //
