/*--------------------------------*- C++ -*----------------------------------*\
| =========                 |                                                 |
| \\      /  F ield         | foam-extend: Open Source CFD                    |
|  \\    /   O peration     | Version:     5.0                                |
|   \\  /    A nd           | Web:         http://www.foam-extend.org         |
|    \\/     M anipulation  |                                                 |
\*---------------------------------------------------------------------------*/
FoamFile
{
    version     2.0;
    format      ascii;
    class       volScalarField;
    location    "1.19076892";
    object      H2O.gas;
}
// * * * * * * * * * * * * * * * * * * * * * * * * * * * * * * * * * * * * * //

dimensions      [0 0 0 0 0 0 0];

internalField   nonuniform List<scalar> 
100
(
6.2889e-09
9.27804e-07
5.51498e-06
1.64712e-05
3.88057e-05
8.45597e-05
0.000151214
0.000261551
0.00046912
0.000847303
0.000708737
0.00170065
0.00312023
0.00480254
0.00669901
0.0087136
0.0107923
0.0127874
0.0146108
0.0160911
0.0171692
0.0177009
0.0176442
0.0170208
0.0159557
0.0146347
0.0132983
0.0121835
0.0113509
0.0107954
0.0104522
0.0102498
0.010128
0.0100689
0.0100404
0.0100233
0.0100106
0.0100094
0.0100043
0.0099965
0.00999563
0.00999421
0.0100015
0.00999334
0.0100027
0.0099972
0.0100008
0.00999399
0.00998894
0.00999127
0.00999509
0.00999119
0.00999571
0.00999723
0.0100009
0.0100059
0.00999519
0.00999159
0.00999503
0.00998869
0.00999643
0.00999388
0.0100019
0.0100051
0.00999569
0.0100031
0.0100015
0.009999
0.0100063
0.0100086
0.0100039
0.0100102
0.0100048
0.0100047
0.0100004
0.0100064
0.0100124
0.010006
0.0100057
0.0100017
0.0100028
0.0100075
0.00999362
0.0099968
0.00999815
0.0100029
0.01
0.010004
0.0100007
0.00999653
0.00999607
0.00999385
0.0099913
0.00998441
0.00999101
0.00998633
0.00998377
0.00999969
0.0099961
0.010005
)
;

boundaryField
{
    inlet
    {
        type            fixedValue;
        value           uniform 0;
    }
    outlet
    {
        type            zeroGradient;
    }
    yzfaces
    {
        type            empty;
    }
}


// ************************************************************************* //
