/*--------------------------------*- C++ -*----------------------------------*\
| =========                 |                                                 |
| \\      /  F ield         | foam-extend: Open Source CFD                    |
|  \\    /   O peration     | Version:     5.0                                |
|   \\  /    A nd           | Web:         http://www.foam-extend.org         |
|    \\/     M anipulation  |                                                 |
\*---------------------------------------------------------------------------*/
FoamFile
{
    version     2.0;
    format      ascii;
    class       volScalarField;
    location    "1.19076892";
    object      Na.water;
}
// * * * * * * * * * * * * * * * * * * * * * * * * * * * * * * * * * * * * * //

dimensions      [0 0 0 0 0 0 0];

internalField   nonuniform List<scalar> 
100
(
0
0.00595779
0.0100957
0.00617636
0.00762474
0.0109176
0.00656468
0.0085987
0.0124078
0.015365
0.00344395
0.0136135
0.0179352
0.0192512
0.0196908
0.0198735
0.0200652
0.0202391
0.020451
0.0206589
0.0209273
0.0212029
0.0214954
0.0217961
0.0220854
0.0223385
0.0225299
0.0227087
0.0228143
0.0228881
0.0229329
0.0229563
0.0229588
0.0229745
0.0229888
0.022991
0.0229839
0.0229967
0.022992
0.0229816
0.0229878
0.0229828
0.022994
0.0229715
0.0229956
0.0229838
0.0229934
0.0229757
0.0229723
0.0229847
0.0229983
0.0229929
0.0229989
0.0230009
0.0230003
0.0230109
0.0229974
0.0229872
0.0229938
0.0229786
0.0229976
0.0229845
0.0229994
0.0230086
0.0229874
0.0230113
0.0230045
0.0229917
0.0230031
0.0230065
0.0229967
0.0230062
0.0229981
0.0230038
0.0229914
0.0230147
0.0230296
0.0230146
0.02301
0.0230078
0.0230185
0.0230381
0.0230003
0.0230058
0.0230031
0.0230079
0.0229953
0.0230022
0.0229942
0.0229875
0.0229872
0.022981
0.0229817
0.0229697
0.022983
0.0229695
0.0229593
0.0230019
0.0229958
0.0230252
)
;

boundaryField
{
    inlet
    {
        type            fixedValue;
        value           uniform 0;
    }
    outlet
    {
        type            zeroGradient;
    }
    yzfaces
    {
        type            empty;
    }
}


// ************************************************************************* //
