/*--------------------------------*- C++ -*----------------------------------*\
| =========                 |                                                 |
| \\      /  F ield         | foam-extend: Open Source CFD                    |
|  \\    /   O peration     | Version:     5.0                                |
|   \\  /    A nd           | Web:         http://www.foam-extend.org         |
|    \\/     M anipulation  |                                                 |
\*---------------------------------------------------------------------------*/
FoamFile
{
    version     2.0;
    format      ascii;
    class       surfaceScalarField;
    location    "1.19076892";
    object      phi;
}
// * * * * * * * * * * * * * * * * * * * * * * * * * * * * * * * * * * * * * //

dimensions      [0 3 -1 0 0 0 0];

internalField   nonuniform List<scalar> 
99
(
1.22929e-06
1.22589e-06
1.22675e-06
1.226e-06
1.23357e-06
1.23181e-06
1.23371e-06
1.23877e-06
1.24071e-06
1.24009e-06
1.23678e-06
1.24093e-06
1.24188e-06
1.24123e-06
1.24294e-06
1.24254e-06
1.24154e-06
1.24164e-06
1.243e-06
1.24346e-06
1.24448e-06
1.24389e-06
1.24343e-06
1.24378e-06
1.24193e-06
1.24101e-06
1.24074e-06
1.24136e-06
1.24167e-06
1.24276e-06
1.24385e-06
1.24442e-06
1.24461e-06
1.2453e-06
1.24596e-06
1.24605e-06
1.24669e-06
1.24705e-06
1.24754e-06
1.24811e-06
1.24713e-06
1.24671e-06
1.2474e-06
1.24782e-06
1.24792e-06
1.24589e-06
1.24558e-06
1.24314e-06
1.24328e-06
1.24229e-06
1.24138e-06
1.24236e-06
1.24334e-06
1.24333e-06
1.24254e-06
1.24177e-06
1.24239e-06
1.24097e-06
1.24227e-06
1.24288e-06
1.24301e-06
1.24525e-06
1.24374e-06
1.24249e-06
1.24315e-06
1.24294e-06
1.24147e-06
1.24086e-06
1.24196e-06
1.2416e-06
1.24176e-06
1.23885e-06
1.23946e-06
1.23997e-06
1.23974e-06
1.2402e-06
1.23766e-06
1.23453e-06
1.23499e-06
1.23592e-06
1.23687e-06
1.23611e-06
1.235e-06
1.23619e-06
1.23709e-06
1.24037e-06
1.23984e-06
1.24018e-06
1.24071e-06
1.24014e-06
1.23985e-06
1.23737e-06
1.23852e-06
1.24015e-06
1.24085e-06
1.24079e-06
1.24171e-06
1.24293e-06
1.24401e-06
)
;

boundaryField
{
    inlet
    {
        type            calculated;
        value           uniform -1.225e-06;
    }
    outlet
    {
        type            calculated;
        value           uniform 1.24076e-06;
    }
    yzfaces
    {
        type            empty;
    }
}


// ************************************************************************* //
