/*--------------------------------*- C++ -*----------------------------------*\
| =========                 |                                                 |
| \\      /  F ield         | foam-extend: Open Source CFD                    |
|  \\    /   O peration     | Version:     5.0                                |
|   \\  /    A nd           | Web:         http://www.foam-extend.org         |
|    \\/     M anipulation  |                                                 |
\*---------------------------------------------------------------------------*/
FoamFile
{
    version     2.0;
    format      ascii;
    class       volScalarField;
    location    "1.19076892";
    object      S.gas;
}
// * * * * * * * * * * * * * * * * * * * * * * * * * * * * * * * * * * * * * //

dimensions      [0 0 0 0 0 0 0];

internalField   nonuniform List<scalar> 
100
(
0.592437
0.50297
0.448644
0.408428
0.375188
0.347914
0.322586
0.298592
0.277729
0.259945
0.200375
0.187196
0.185428
0.184892
0.182542
0.178175
0.172106
0.164475
0.155728
0.145954
0.135284
0.123849
0.111844
0.0996578
0.0879381
0.0773016
0.0684363
0.0616968
0.0570521
0.0540957
0.0523007
0.0512767
0.0506892
0.0503736
0.0502052
0.0501114
0.0500646
0.0500279
0.050011
0.0499984
0.0499987
0.0499886
0.0499985
0.0499993
0.05
0.0499964
0.0499921
0.0499902
0.0499877
0.049993
0.0499977
0.0499914
0.0500037
0.0500042
0.0500099
0.0500006
0.0499952
0.049995
0.0499928
0.0499991
0.0499997
0.0500074
0.0500016
0.0499976
0.0500026
0.0500003
0.049996
0.0500033
0.0500087
0.0500079
0.0500176
0.0500121
0.0500069
0.0499931
0.0500006
0.0499865
0.0499921
0.0500016
0.0500009
0.0500062
0.0500011
0.0500042
0.0500147
0.0500141
0.0500143
0.0500187
0.0500149
0.0500136
0.0500063
0.0500015
0.0499975
0.0499973
0.0499897
0.0499886
0.0499962
0.0499948
0.0500072
0.0500036
0.0499966
0.0499925
)
;

boundaryField
{
    inlet
    {
        type            calculated;
        value           uniform 1;
    }
    outlet
    {
        type            calculated;
        value           uniform 0.0499925;
    }
    yzfaces
    {
        type            empty;
    }
}


// ************************************************************************* //
