/*--------------------------------*- C++ -*----------------------------------*\
| =========                 |                                                 |
| \\      /  F ield         | foam-extend: Open Source CFD                    |
|  \\    /   O peration     | Version:     5.0                                |
|   \\  /    A nd           | Web:         http://www.foam-extend.org         |
|    \\/     M anipulation  |                                                 |
\*---------------------------------------------------------------------------*/
FoamFile
{
    version     2.0;
    format      ascii;
    class       volVectorField;
    location    "1.19076892";
    object      U.gas;
}
// * * * * * * * * * * * * * * * * * * * * * * * * * * * * * * * * * * * * * //

dimensions      [0 1 -1 0 0 0 0];

internalField   nonuniform List<vector> 
100
(
(0.00834371 0 0)
(0.00957033 0 0)
(0.0104236 0 0)
(0.0111191 0 0)
(0.0117551 0 0)
(0.0122749 0 0)
(0.0127372 0 0)
(0.0131888 0 0)
(0.0135163 0 0)
(0.0137026 0 0)
(0.0152613 0 0)
(0.0136089 0 0)
(0.0131114 0 0)
(0.0130483 0 0)
(0.0130903 0 0)
(0.0131002 0 0)
(0.0130321 0 0)
(0.0129015 0 0)
(0.0126978 0 0)
(0.0124104 0 0)
(0.0120193 0 0)
(0.0115069 0 0)
(0.0108561 0 0)
(0.0100742 0 0)
(0.0091721 0 0)
(0.00821142 0 0)
(0.00727799 0 0)
(0.00646381 0 0)
(0.00582857 0 0)
(0.00538744 0 0)
(0.00510967 0 0)
(0.00494122 0 0)
(0.00484344 0 0)
(0.00478922 0 0)
(0.00476183 0 0)
(0.00474745 0 0)
(0.00474089 0 0)
(0.00473875 0 0)
(0.00473657 0 0)
(0.00473678 0 0)
(0.00473457 0 0)
(0.00473137 0 0)
(0.00473149 0 0)
(0.00473491 0 0)
(0.00473586 0 0)
(0.00473257 0 0)
(0.00472808 0 0)
(0.00472188 0 0)
(0.00471605 0 0)
(0.00471466 0 0)
(0.00471258 0 0)
(0.00471257 0 0)
(0.00471528 0 0)
(0.00471832 0 0)
(0.00471649 0 0)
(0.00471444 0 0)
(0.00471327 0 0)
(0.00471185 0 0)
(0.00471219 0 0)
(0.0047152 0 0)
(0.00471716 0 0)
(0.00472145 0 0)
(0.00472333 0 0)
(0.00471746 0 0)
(0.00471582 0 0)
(0.00471764 0 0)
(0.00471412 0 0)
(0.00470976 0 0)
(0.00471124 0 0)
(0.00471264 0 0)
(0.00471218 0 0)
(0.00470787 0 0)
(0.00470305 0 0)
(0.0047046 0 0)
(0.00470385 0 0)
(0.00470517 0 0)
(0.00469997 0 0)
(0.00468957 0 0)
(0.0046852 0 0)
(0.00468809 0 0)
(0.00469277 0 0)
(0.00469248 0 0)
(0.0046893 0 0)
(0.00469081 0 0)
(0.00469474 0 0)
(0.00470237 0 0)
(0.00470772 0 0)
(0.00470748 0 0)
(0.00470881 0 0)
(0.00470752 0 0)
(0.00470565 0 0)
(0.00469998 0 0)
(0.00469707 0 0)
(0.00470115 0 0)
(0.00470557 0 0)
(0.00470818 0 0)
(0.00470986 0 0)
(0.00471492 0 0)
(0.00471923 0 0)
(0.00471652 0 0)
)
;

boundaryField
{
    inlet
    {
        type            fixedValue;
        value           uniform (0.005 0 0);
    }
    outlet
    {
        type            zeroGradient;
    }
    yzfaces
    {
        type            empty;
    }
}


// ************************************************************************* //
