/*--------------------------------*- C++ -*----------------------------------*\
| =========                 |                                                 |
| \\      /  F ield         | foam-extend: Open Source CFD                    |
|  \\    /   O peration     | Version:     5.0                                |
|   \\  /    A nd           | Web:         http://www.foam-extend.org         |
|    \\/     M anipulation  |                                                 |
\*---------------------------------------------------------------------------*/
FoamFile
{
    version     2.0;
    format      ascii;
    class       volVectorField;
    location    "1.19076892";
    object      U.water;
}
// * * * * * * * * * * * * * * * * * * * * * * * * * * * * * * * * * * * * * //

dimensions      [0 1 -1 0 0 0 0];

internalField   nonuniform List<vector> 
100
(
(0.000161017 0 0)
(0.000396284 0 0)
(0.00059655 0 0)
(0.000784811 0 0)
(0.000974992 0 0)
(0.00116671 0 0)
(0.00136226 0 0)
(0.00157941 0 0)
(0.00180861 0 0)
(0.00202815 0 0)
(0.00249725 0 0)
(0.00308686 0 0)
(0.00323574 0 0)
(0.00325729 0 0)
(0.00327873 0 0)
(0.00333195 0 0)
(0.00341426 0 0)
(0.0035256 0 0)
(0.00366385 0 0)
(0.0038207 0 0)
(0.00399137 0 0)
(0.00416958 0 0)
(0.00434829 0 0)
(0.00452268 0 0)
(0.00467765 0 0)
(0.00480381 0 0)
(0.00490221 0 0)
(0.00497358 0 0)
(0.00502135 0 0)
(0.00505212 0 0)
(0.00507278 0 0)
(0.00508551 0 0)
(0.00509227 0 0)
(0.00509694 0 0)
(0.00510124 0 0)
(0.00510359 0 0)
(0.00510548 0 0)
(0.00510772 0 0)
(0.00510964 0 0)
(0.00511192 0 0)
(0.00511117 0 0)
(0.00510831 0 0)
(0.00510889 0 0)
(0.0051111 0 0)
(0.00511215 0 0)
(0.00510817 0 0)
(0.00510339 0 0)
(0.00509783 0 0)
(0.00509318 0 0)
(0.00509143 0 0)
(0.00508747 0 0)
(0.0050876 0 0)
(0.00509167 0 0)
(0.00509359 0 0)
(0.00509198 0 0)
(0.00508872 0 0)
(0.00508846 0 0)
(0.00508683 0 0)
(0.00508654 0 0)
(0.00509049 0 0)
(0.00509198 0 0)
(0.00509684 0 0)
(0.00509831 0 0)
(0.0050927 0 0)
(0.00509153 0 0)
(0.00509239 0 0)
(0.00508897 0 0)
(0.00508474 0 0)
(0.00508572 0 0)
(0.00508723 0 0)
(0.00508682 0 0)
(0.00508113 0 0)
(0.00507645 0 0)
(0.00507878 0 0)
(0.00507942 0 0)
(0.00507983 0 0)
(0.00507564 0 0)
(0.00506402 0 0)
(0.0050585 0 0)
(0.00506133 0 0)
(0.00506512 0 0)
(0.00506556 0 0)
(0.00506171 0 0)
(0.00506178 0 0)
(0.00506606 0 0)
(0.00507466 0 0)
(0.00508029 0 0)
(0.00507989 0 0)
(0.0050817 0 0)
(0.00508166 0 0)
(0.00507991 0 0)
(0.00507426 0 0)
(0.00507155 0 0)
(0.00507731 0 0)
(0.00508208 0 0)
(0.00508331 0 0)
(0.00508509 0 0)
(0.00508942 0 0)
(0.00509413 0 0)
(0.00508962 0 0)
)
;

boundaryField
{
    inlet
    {
        type            fixedValue;
        value           uniform (0 0 0);
    }
    outlet
    {
        type            zeroGradient;
    }
    yzfaces
    {
        type            empty;
    }
}


// ************************************************************************* //
