/*--------------------------------*- C++ -*----------------------------------*\
| =========                 |                                                 |
| \\      /  F ield         | foam-extend: Open Source CFD                    |
|  \\    /   O peration     | Version:     5.0                                |
|   \\  /    A nd           | Web:         http://www.foam-extend.org         |
|    \\/     M anipulation  |                                                 |
\*---------------------------------------------------------------------------*/
FoamFile
{
    version     2.0;
    format      ascii;
    class       volScalarField;
    location    "8";
    object      alpha.gas;
}
// * * * * * * * * * * * * * * * * * * * * * * * * * * * * * * * * * * * * * //

dimensions      [0 0 0 0 0 0 0];

internalField   nonuniform List<scalar> 
100
(
0.16657
0.153952
0.144838
0.138078
0.132355
0.127785
0.124029
0.120574
0.116564
0.112753
0.109963
0.107461
0.10512
0.10312
0.101399
0.0995042
0.0976961
0.0961764
0.0948125
0.0931276
0.0918398
0.0902479
0.0882904
0.0870207
0.0857697
0.0847881
0.0841066
0.0835689
0.0827349
0.0819732
0.0811476
0.0799309
0.0788993
0.0778935
0.0767812
0.0759571
0.0751566
0.0743257
0.0734542
0.0727265
0.0718481
0.0711007
0.0702812
0.069655
0.0690593
0.0684502
0.0676316
0.0669911
0.0662488
0.0656224
0.0648674
0.0641967
0.0634131
0.0625047
0.0615226
0.060571
0.0595256
0.0583398
0.0570774
0.0555902
0.0537806
0.0513168
0.0480996
0.0428238
0.0329887
0.0121773
0.028684
0.0283341
0.0283814
0.0285859
0.0288154
0.0291002
0.0294002
0.0297307
0.0300466
0.0303863
0.0307306
0.0310713
0.0314281
0.0317665
0.032104
0.0324414
0.0327788
0.0331075
0.0334071
0.0336847
0.033941
0.0341536
0.0343523
0.0345286
0.0346631
0.034755
0.0348271
0.0348755
0.0348777
0.0348683
0.0348271
0.0347677
0.0347124
0.0346423
)
;

boundaryField
{
    inlet
    {
        type            fixedValue;
        value           uniform 0.2;
    }
    outlet
    {
        type            zeroGradient;
    }
    yzfaces
    {
        type            empty;
    }
}


// ************************************************************************* //
