/*--------------------------------*- C++ -*----------------------------------*\
| =========                 |                                                 |
| \\      /  F ield         | foam-extend: Open Source CFD                    |
|  \\    /   O peration     | Version:     5.0                                |
|   \\  /    A nd           | Web:         http://www.foam-extend.org         |
|    \\/     M anipulation  |                                                 |
\*---------------------------------------------------------------------------*/
FoamFile
{
    version     2.0;
    format      ascii;
    class       volScalarField;
    location    "8";
    object      Cl.water;
}
// * * * * * * * * * * * * * * * * * * * * * * * * * * * * * * * * * * * * * //

dimensions      [0 0 0 0 0 0 0];

internalField   nonuniform List<scalar> 
100
(
0.00383636
0.00524706
0.00627137
0.00700901
0.0076592
0.0082245
0.00867475
0.00905662
0.00945557
0.00989222
0.0102723
0.0105587
0.0108449
0.0111063
0.0113037
0.0114884
0.0116857
0.0118803
0.0120345
0.012191
0.0123795
0.0125214
0.0126877
0.0129354
0.0130951
0.0132254
0.0133048
0.0133627
0.0134632
0.0135512
0.0136021
0.0137187
0.0138463
0.0139408
0.014082
0.0141918
0.0142837
0.0144038
0.0145016
0.0146092
0.0146881
0.014788
0.0148929
0.0149673
0.0150343
0.0150988
0.0152037
0.0152714
0.0153531
0.0154294
0.0155168
0.0155915
0.0156739
0.0157672
0.0158747
0.0159978
0.0161128
0.0162682
0.0164137
0.0165737
0.0167901
0.0170739
0.0174253
0.0180122
0.0190687
0.0211929
0.0196873
0.0197236
0.0197148
0.0196859
0.0196611
0.0196251
0.0195976
0.0195564
0.0195297
0.0194854
0.0194466
0.0194072
0.0193597
0.0193184
0.0192785
0.0192405
0.0191948
0.0191555
0.0191219
0.0190986
0.0190683
0.019044
0.0190266
0.0190003
0.0189879
0.0189755
0.018968
0.01896
0.0189594
0.0189627
0.0189724
0.018975
0.0189812
0.0189841
)
;

boundaryField
{
    inlet
    {
        type            fixedValue;
        value           uniform 0;
    }
    outlet
    {
        type            zeroGradient;
    }
    yzfaces
    {
        type            empty;
    }
}


// ************************************************************************* //
