/*--------------------------------*- C++ -*----------------------------------*\
| =========                 |                                                 |
| \\      /  F ield         | foam-extend: Open Source CFD                    |
|  \\    /   O peration     | Version:     5.0                                |
|   \\  /    A nd           | Web:         http://www.foam-extend.org         |
|    \\/     M anipulation  |                                                 |
\*---------------------------------------------------------------------------*/
FoamFile
{
    version     2.0;
    format      ascii;
    class       volScalarField;
    location    "8";
    object      CO2.gas;
}
// * * * * * * * * * * * * * * * * * * * * * * * * * * * * * * * * * * * * * //

dimensions      [0 0 0 0 0 0 0];

internalField   nonuniform List<scalar> 
100
(
0.166212
0.152621
0.143278
0.136062
0.130539
0.126744
0.123321
0.119746
0.115057
0.111285
0.109169
0.106737
0.104537
0.102801
0.101114
0.0989156
0.0970435
0.0957192
0.0943327
0.0924064
0.0914049
0.0895008
0.0871775
0.0865755
0.0854471
0.0845592
0.0839428
0.0834062
0.0825738
0.0818136
0.0807259
0.0793856
0.0784319
0.0772888
0.0762561
0.0755227
0.074739
0.0740254
0.0731356
0.0725308
0.0715414
0.0708646
0.0701325
0.0695194
0.0689248
0.0683169
0.0674999
0.0668092
0.0660698
0.0654946
0.0647411
0.0640526
0.0632407
0.0623097
0.0612964
0.0604026
0.0593242
0.0582262
0.0569663
0.0554559
0.05367
0.0512168
0.0480059
0.0427404
0.0329244
0.0121536
0.0286108
0.0282638
0.0283021
0.0284979
0.0287048
0.0289762
0.029239
0.0295371
0.0297963
0.0300829
0.0303515
0.0305992
0.0308492
0.0310556
0.0312334
0.0313825
0.0315065
0.0315798
0.0315753
0.0314949
0.0313605
0.0311338
0.0308278
0.0304582
0.0299807
0.029406
0.0287549
0.0280263
0.0272033
0.0263063
0.0253397
0.0243169
0.0232685
0.0221499
)
;

boundaryField
{
    inlet
    {
        type            fixedValue;
        value           uniform 0.2;
    }
    outlet
    {
        type            zeroGradient;
    }
    yzfaces
    {
        type            empty;
    }
}


// ************************************************************************* //
