/*--------------------------------*- C++ -*----------------------------------*\
| =========                 |                                                 |
| \\      /  F ield         | foam-extend: Open Source CFD                    |
|  \\    /   O peration     | Version:     5.0                                |
|   \\  /    A nd           | Web:         http://www.foam-extend.org         |
|    \\/     M anipulation  |                                                 |
\*---------------------------------------------------------------------------*/
FoamFile
{
    version     2.0;
    format      ascii;
    class       volScalarField;
    location    "8";
    object      CO2.water;
}
// * * * * * * * * * * * * * * * * * * * * * * * * * * * * * * * * * * * * * //

dimensions      [0 0 0 0 0 0 0];

internalField   nonuniform List<scalar> 
100
(
0.000877251
0.00120029
0.00143398
0.00160329
0.00175221
0.00188141
0.00198386
0.00207175
0.00216317
0.00226295
0.00234855
0.00241577
0.00248029
0.00254009
0.00258624
0.00262782
0.00267274
0.00271795
0.00275356
0.00278896
0.00283307
0.00286427
0.00290047
0.00295699
0.00299406
0.00302352
0.00304274
0.0030562
0.00307917
0.00309948
0.00311058
0.00313833
0.00316912
0.00318972
0.00322087
0.00324496
0.00326628
0.00329421
0.00331623
0.00334065
0.00335773
0.00338024
0.00340654
0.00342324
0.00343891
0.00345373
0.00347642
0.0034898
0.00350873
0.00352868
0.00354896
0.00356634
0.00358599
0.00360709
0.00363135
0.0036591
0.00368474
0.00372061
0.00375357
0.00379105
0.00383954
0.00390401
0.00398479
0.00411865
0.00436007
0.00484562
0.000725311
0.000246203
8.02742e-05
2.55998e-05
8.04251e-06
2.49494e-06
7.63813e-07
2.30757e-07
6.8804e-08
2.027e-08
5.89777e-09
1.69659e-09
4.83368e-10
1.36554e-10
3.835e-11
1.07378e-11
3.00871e-12
8.4563e-13
2.39637e-13
6.87293e-14
2.00497e-14
5.9692e-15
1.82088e-15
5.73027e-16
1.88453e-16
6.6375e-17
2.59481e-17
1.1631e-17
6.00716e-18
3.46673e-18
2.14316e-18
1.37246e-18
8.91319e-19
5.81195e-19
)
;

boundaryField
{
    inlet
    {
        type            fixedValue;
        value           uniform 0;
    }
    outlet
    {
        type            zeroGradient;
    }
    yzfaces
    {
        type            empty;
    }
}


// ************************************************************************* //
