/*--------------------------------*- C++ -*----------------------------------*\
| =========                 |                                                 |
| \\      /  F ield         | foam-extend: Open Source CFD                    |
|  \\    /   O peration     | Version:     5.0                                |
|   \\  /    A nd           | Web:         http://www.foam-extend.org         |
|    \\/     M anipulation  |                                                 |
\*---------------------------------------------------------------------------*/
FoamFile
{
    version     2.0;
    format      ascii;
    class       volScalarField;
    location    "8";
    object      H2O.gas;
}
// * * * * * * * * * * * * * * * * * * * * * * * * * * * * * * * * * * * * * //

dimensions      [0 0 0 0 0 0 0];

internalField   nonuniform List<scalar> 
100
(
0.000212667
0.000170013
0.000100206
5.38737e-05
3.23954e-05
2.81509e-05
3.42913e-05
4.58423e-05
5.89937e-05
7.26236e-05
8.5868e-05
9.66547e-05
0.000105023
0.000113893
0.000123786
0.000132109
0.000138707
0.000143542
0.000145715
0.000145941
0.0001472
0.000146834
0.000146103
0.000147987
0.000151044
0.00016057
0.000163795
0.000162748
0.000161124
0.00015964
0.000157332
0.000154964
0.000153183
0.000150865
0.000148796
0.00014721
0.000145593
0.00014419
0.000142366
0.000141098
0.000139287
0.000138005
0.000136794
0.000135651
0.000134491
0.000133305
0.000131711
0.000130342
0.00012889
0.000127798
0.000126327
0.000124922
0.000123322
0.000121549
0.000119576
0.00011775
0.000115598
0.000113615
0.000111157
0.000108189
0.000104692
9.99379e-05
9.36726e-05
8.3398e-05
6.42445e-05
2.37149e-05
6.29185e-05
6.8974e-05
7.83682e-05
9.13291e-05
0.000108487
0.000131136
0.000160212
0.000197421
0.000244197
0.000303101
0.000376096
0.000465623
0.000574971
0.000706694
0.000864568
0.00105268
0.00127468
0.00153408
0.00183433
0.00217799
0.002573
0.00301764
0.00351526
0.00407099
0.00468115
0.00535045
0.00607473
0.00685357
0.00768208
0.00856323
0.0094828
0.0104475
0.0114489
0.0124985
)
;

boundaryField
{
    inlet
    {
        type            fixedValue;
        value           uniform 0;
    }
    outlet
    {
        type            zeroGradient;
    }
    yzfaces
    {
        type            empty;
    }
}


// ************************************************************************* //
