/*--------------------------------*- C++ -*----------------------------------*\
| =========                 |                                                 |
| \\      /  F ield         | foam-extend: Open Source CFD                    |
|  \\    /   O peration     | Version:     5.0                                |
|   \\  /    A nd           | Web:         http://www.foam-extend.org         |
|    \\/     M anipulation  |                                                 |
\*---------------------------------------------------------------------------*/
FoamFile
{
    version     2.0;
    format      ascii;
    class       volScalarField;
    location    "8";
    object      H2O.water;
}
// * * * * * * * * * * * * * * * * * * * * * * * * * * * * * * * * * * * * * //

dimensions      [0 0 0 0 0 0 0];

internalField   nonuniform List<scalar> 
100
(
0.0248526
0.0340054
0.0406269
0.0454193
0.0496578
0.0533092
0.0562224
0.0587177
0.0613174
0.0641137
0.0665638
0.0684602
0.0702761
0.0719401
0.0732476
0.0744315
0.0757224
0.0770076
0.077996
0.0790385
0.0802298
0.0811144
0.0822101
0.0837747
0.0848268
0.085654
0.0862001
0.0865814
0.0872321
0.0878074
0.0881489
0.0889125
0.0897554
0.0903231
0.0912304
0.0919491
0.0925591
0.0933194
0.0939341
0.0946312
0.0951308
0.0957746
0.096506
0.0969795
0.0974235
0.0978432
0.098486
0.0988817
0.0994404
0.0999666
0.100541
0.101013
0.101549
0.102187
0.102854
0.103659
0.10437
0.105404
0.106338
0.107402
0.108787
0.1106
0.112888
0.11668
0.12352
0.137275
0.131232
0.131991
0.132121
0.132025
0.131858
0.131654
0.131416
0.131169
0.130913
0.130659
0.130391
0.130127
0.129854
0.129591
0.12933
0.12907
0.128818
0.128571
0.128334
0.128108
0.127913
0.127753
0.127594
0.127468
0.127363
0.127296
0.127242
0.127205
0.127204
0.127209
0.127234
0.127282
0.127331
0.127386
)
;

boundaryField
{
    inlet
    {
        type            fixedValue;
        value           uniform 0;
    }
    outlet
    {
        type            zeroGradient;
    }
    yzfaces
    {
        type            empty;
    }
}


// ************************************************************************* //
