/*--------------------------------*- C++ -*----------------------------------*\
| =========                 |                                                 |
| \\      /  F ield         | foam-extend: Open Source CFD                    |
|  \\    /   O peration     | Version:     5.0                                |
|   \\  /    A nd           | Web:         http://www.foam-extend.org         |
|    \\/     M anipulation  |                                                 |
\*---------------------------------------------------------------------------*/
FoamFile
{
    version     2.0;
    format      ascii;
    class       volScalarField;
    location    "8";
    object      Na.water;
}
// * * * * * * * * * * * * * * * * * * * * * * * * * * * * * * * * * * * * * //

dimensions      [0 0 0 0 0 0 0];

internalField   nonuniform List<scalar> 
100
(
0.00383478
0.00524845
0.00627386
0.00700964
0.00766434
0.00822714
0.00867779
0.00906501
0.00946341
0.0098979
0.010273
0.0105648
0.0108464
0.0111017
0.0113067
0.0114869
0.0116848
0.0118793
0.0120329
0.0121937
0.012379
0.0125219
0.0126881
0.0129263
0.0130859
0.0132162
0.0133021
0.013362
0.0134622
0.0135518
0.0136035
0.0137132
0.0138475
0.0139414
0.0140816
0.014188
0.0142824
0.0143928
0.0144901
0.014597
0.0146767
0.0147786
0.0148912
0.0149668
0.0150369
0.015102
0.0151954
0.0152635
0.0153479
0.0154268
0.0155168
0.0155914
0.0156721
0.0157727
0.0158774
0.0159967
0.0161039
0.0162663
0.016409
0.0165753
0.0167863
0.0170643
0.0174193
0.0180029
0.0190575
0.0211792
0.0196717
0.0197052
0.0197026
0.019678
0.0196573
0.0196178
0.0195853
0.019544
0.0195109
0.0194688
0.0194318
0.019395
0.0193583
0.0193241
0.0192875
0.0192478
0.019208
0.0191657
0.0191366
0.0191088
0.0190773
0.0190494
0.0190269
0.0190027
0.0189863
0.0189738
0.0189631
0.0189598
0.0189584
0.0189598
0.0189661
0.0189755
0.018975
0.0189881
)
;

boundaryField
{
    inlet
    {
        type            fixedValue;
        value           uniform 0;
    }
    outlet
    {
        type            zeroGradient;
    }
    yzfaces
    {
        type            empty;
    }
}


// ************************************************************************* //
