/*--------------------------------*- C++ -*----------------------------------*\
| =========                 |                                                 |
| \\      /  F ield         | foam-extend: Open Source CFD                    |
|  \\    /   O peration     | Version:     5.0                                |
|   \\  /    A nd           | Web:         http://www.foam-extend.org         |
|    \\/     M anipulation  |                                                 |
\*---------------------------------------------------------------------------*/
FoamFile
{
    version     2.0;
    format      ascii;
    class       volScalarField;
    location    "8";
    object      Ns;
}
// * * * * * * * * * * * * * * * * * * * * * * * * * * * * * * * * * * * * * //

dimensions      [0 -3 0 0 1 0 0];

internalField   nonuniform List<scalar> 
100
(
0.176382
0.564995
0.209862
1.2177
0.905
0.26502
3.26736
0.551699
0.154177
0.432682
1.00067
0.743549
0.276955
0.528147
0.49506
0.592669
0.296797
0.396771
0.464081
0.00353546
0.869192
1.59519
0.723765
1.32578
0.791549
0.965768
1.61013
2.54408
1.04544
0.621605
0.00942923
1.7511
0.126671
0.809732
1.02849
0.508762
0.105095
1.65913
0.788189
0.137609
0.531862
0.221047
0.178792
0.299489
0.26315
1.92476
0.249204
0.177895
0.148741
0.965733
0.328509
0.0303496
0.785137
0.0360374
0.422543
0.36089
0.478819
0.0394337
0.319514
0.665301
0.426896
1.52865
6.76034
13.3873
37.1606
123.079
176.506
171.487
170.349
175.337
165.645
176.925
172.508
173.355
177.845
169.643
173.397
173.933
175.876
168.87
173.433
173.408
172.445
169.412
171.747
171.554
167.171
171.364
177.551
169.669
176.121
178.361
169.076
176.937
173.107
173.98
178.696
171.27
173.744
164.333
)
;

boundaryField
{
    inlet
    {
        type            fixedValue;
        value           uniform 0;
    }
    outlet
    {
        type            zeroGradient;
    }
    yzfaces
    {
        type            empty;
    }
}


// ************************************************************************* //
