/*--------------------------------*- C++ -*----------------------------------*\
| =========                 |                                                 |
| \\      /  F ield         | foam-extend: Open Source CFD                    |
|  \\    /   O peration     | Version:     5.0                                |
|   \\  /    A nd           | Web:         http://www.foam-extend.org         |
|    \\/     M anipulation  |                                                 |
\*---------------------------------------------------------------------------*/
FoamFile
{
    version     2.0;
    format      ascii;
    class       surfaceScalarField;
    location    "8";
    object      phi;
}
// * * * * * * * * * * * * * * * * * * * * * * * * * * * * * * * * * * * * * //

dimensions      [0 3 -1 0 0 0 0];

internalField   nonuniform List<scalar> 
99
(
1.233e-06
1.22204e-06
1.21786e-06
1.21164e-06
1.19732e-06
1.1959e-06
1.1983e-06
1.19594e-06
1.19265e-06
1.19618e-06
1.19883e-06
1.19896e-06
1.19878e-06
1.20323e-06
1.19798e-06
1.20032e-06
1.20023e-06
1.20324e-06
1.196e-06
1.19446e-06
1.18619e-06
1.18414e-06
1.18476e-06
1.18909e-06
1.18908e-06
1.1938e-06
1.1934e-06
1.19785e-06
1.19525e-06
1.19554e-06
1.19341e-06
1.19583e-06
1.19901e-06
1.19507e-06
1.19767e-06
1.19679e-06
1.1985e-06
1.19765e-06
1.20103e-06
1.19897e-06
1.20042e-06
1.20384e-06
1.20503e-06
1.20054e-06
1.20152e-06
1.19444e-06
1.19409e-06
1.19112e-06
1.19067e-06
1.1877e-06
1.18844e-06
1.18691e-06
1.18629e-06
1.18558e-06
1.18461e-06
1.18121e-06
1.18891e-06
1.1883e-06
1.18714e-06
1.18831e-06
1.18916e-06
1.18801e-06
1.18709e-06
1.18178e-06
1.17833e-06
1.18496e-06
1.18667e-06
1.18693e-06
1.18704e-06
1.18689e-06
1.18803e-06
1.18557e-06
1.18541e-06
1.18535e-06
1.18607e-06
1.18592e-06
1.18689e-06
1.18836e-06
1.18843e-06
1.18933e-06
1.19019e-06
1.19158e-06
1.19112e-06
1.19059e-06
1.19095e-06
1.19232e-06
1.19435e-06
1.19378e-06
1.19498e-06
1.19457e-06
1.19558e-06
1.19437e-06
1.1951e-06
1.19434e-06
1.19264e-06
1.19345e-06
1.19303e-06
1.19405e-06
1.19359e-06
)
;

boundaryField
{
    inlet
    {
        type            calculated;
        value           uniform -1.225e-06;
    }
    outlet
    {
        type            calculated;
        value           uniform 1.19292e-06;
    }
    yzfaces
    {
        type            empty;
    }
}


// ************************************************************************* //
