/*--------------------------------*- C++ -*----------------------------------*\
| =========                 |                                                 |
| \\      /  F ield         | foam-extend: Open Source CFD                    |
|  \\    /   O peration     | Version:     5.0                                |
|   \\  /    A nd           | Web:         http://www.foam-extend.org         |
|    \\/     M anipulation  |                                                 |
\*---------------------------------------------------------------------------*/
FoamFile
{
    version     2.0;
    format      ascii;
    class       volVectorField;
    location    "8";
    object      U.gas;
}
// * * * * * * * * * * * * * * * * * * * * * * * * * * * * * * * * * * * * * //

dimensions      [0 1 -1 0 0 0 0];

internalField   nonuniform List<vector> 
100
(
(0.00601622 0 0)
(0.00648505 0 0)
(0.00683023 0 0)
(0.00711178 0 0)
(0.00733273 0 0)
(0.00752012 0 0)
(0.00772637 0 0)
(0.00792271 0 0)
(0.00814478 0 0)
(0.00838266 0 0)
(0.00858023 0 0)
(0.00875583 0 0)
(0.00891595 0 0)
(0.00907056 0 0)
(0.00918869 0 0)
(0.00931755 0 0)
(0.00946031 0 0)
(0.00958406 0 0)
(0.00967006 0 0)
(0.00976995 0 0)
(0.00982575 0 0)
(0.00991342 0 0)
(0.0100704 0 0)
(0.0101833 0 0)
(0.0103047 0 0)
(0.010401 0 0)
(0.0104681 0 0)
(0.0105022 0 0)
(0.0106145 0 0)
(0.0106591 0 0)
(0.0107326 0 0)
(0.0108443 0 0)
(0.0109536 0 0)
(0.0110366 0 0)
(0.0111294 0 0)
(0.0112001 0 0)
(0.0112719 0 0)
(0.0113476 0 0)
(0.0114356 0 0)
(0.0114993 0 0)
(0.0115769 0 0)
(0.0116592 0 0)
(0.0117544 0 0)
(0.0117723 0 0)
(0.0118105 0 0)
(0.0118374 0 0)
(0.0118683 0 0)
(0.0119079 0 0)
(0.0119523 0 0)
(0.0119734 0 0)
(0.0120261 0 0)
(0.0120828 0 0)
(0.0121335 0 0)
(0.0122036 0 0)
(0.0122715 0 0)
(0.0123144 0 0)
(0.0124169 0 0)
(0.012536 0 0)
(0.0126251 0 0)
(0.012737 0 0)
(0.0128748 0 0)
(0.0130467 0 0)
(0.0132402 0 0)
(0.0135813 0 0)
(0.0141297 0 0)
(0.0124659 0 0)
(0.011567 0 0)
(0.0111881 0 0)
(0.0110775 0 0)
(0.0110751 0 0)
(0.0111233 0 0)
(0.011162 0 0)
(0.0112109 0 0)
(0.0112701 0 0)
(0.0113398 0 0)
(0.0114043 0 0)
(0.0114747 0 0)
(0.0115509 0 0)
(0.0116169 0 0)
(0.0116862 0 0)
(0.0117545 0 0)
(0.0118212 0 0)
(0.0118806 0 0)
(0.0119303 0 0)
(0.011983 0 0)
(0.0120376 0 0)
(0.0120965 0 0)
(0.0121447 0 0)
(0.0121796 0 0)
(0.0122144 0 0)
(0.0122453 0 0)
(0.0122659 0 0)
(0.0122759 0 0)
(0.0122858 0 0)
(0.0122844 0 0)
(0.0122817 0 0)
(0.0122858 0 0)
(0.0122856 0 0)
(0.0122814 0 0)
(0.0122737 0 0)
)
;

boundaryField
{
    inlet
    {
        type            fixedValue;
        value           uniform (0.005 0 0);
    }
    outlet
    {
        type            zeroGradient;
    }
    yzfaces
    {
        type            empty;
    }
}


// ************************************************************************* //
