/*--------------------------------*- C++ -*----------------------------------*\
| =========                 |                                                 |
| \\      /  F ield         | foam-extend: Open Source CFD                    |
|  \\    /   O peration     | Version:     5.0                                |
|   \\  /    A nd           | Web:         http://www.foam-extend.org         |
|    \\/     M anipulation  |                                                 |
\*---------------------------------------------------------------------------*/
FoamFile
{
    version     2.0;
    format      ascii;
    class       volVectorField;
    location    "8";
    object      U.water;
}
// * * * * * * * * * * * * * * * * * * * * * * * * * * * * * * * * * * * * * //

dimensions      [0 1 -1 0 0 0 0];

internalField   nonuniform List<vector> 
100
(
(3.42593e-05 0 0)
(7.98141e-05 0 0)
(0.000119682 0 0)
(0.000155799 0 0)
(0.000188097 0 0)
(0.000219672 0 0)
(0.000249183 0 0)
(0.000276625 0 0)
(0.000306187 0 0)
(0.000342237 0 0)
(0.00037817 0 0)
(0.000408279 0 0)
(0.000436523 0 0)
(0.000465097 0 0)
(0.00049046 0 0)
(0.000515055 0 0)
(0.000543285 0 0)
(0.000570673 0 0)
(0.000593603 0 0)
(0.000616098 0 0)
(0.000640724 0 0)
(0.00066347 0 0)
(0.000696236 0 0)
(0.000732521 0 0)
(0.000760331 0 0)
(0.000787455 0 0)
(0.000808453 0 0)
(0.000821758 0 0)
(0.000835971 0 0)
(0.000857666 0 0)
(0.000876355 0 0)
(0.000902834 0 0)
(0.000935179 0 0)
(0.00096222 0 0)
(0.000990956 0 0)
(0.00102066 0 0)
(0.00104538 0 0)
(0.00107105 0 0)
(0.00109889 0 0)
(0.00112583 0 0)
(0.00115147 0 0)
(0.00118194 0 0)
(0.00121107 0 0)
(0.00123455 0 0)
(0.00125282 0 0)
(0.00127274 0 0)
(0.00129509 0 0)
(0.00132198 0 0)
(0.00134828 0 0)
(0.00137297 0 0)
(0.00139752 0 0)
(0.00142748 0 0)
(0.00145865 0 0)
(0.00149332 0 0)
(0.0015342 0 0)
(0.00157605 0 0)
(0.001625 0 0)
(0.00168142 0 0)
(0.00173906 0 0)
(0.00181097 0 0)
(0.00190111 0 0)
(0.0020171 0 0)
(0.00217823 0 0)
(0.00243131 0 0)
(0.00291986 0 0)
(0.00347123 0 0)
(0.00371375 0 0)
(0.00379695 0 0)
(0.00381409 0 0)
(0.00380574 0 0)
(0.00379025 0 0)
(0.0037683 0 0)
(0.00374059 0 0)
(0.00371522 0 0)
(0.00369044 0 0)
(0.00366492 0 0)
(0.00363838 0 0)
(0.00361448 0 0)
(0.00358911 0 0)
(0.00356223 0 0)
(0.00353711 0 0)
(0.00351314 0 0)
(0.00348698 0 0)
(0.00345817 0 0)
(0.00343196 0 0)
(0.00341086 0 0)
(0.00339385 0 0)
(0.00337637 0 0)
(0.00336017 0 0)
(0.00334546 0 0)
(0.00333327 0 0)
(0.00332348 0 0)
(0.00331629 0 0)
(0.00331149 0 0)
(0.00330556 0 0)
(0.00330448 0 0)
(0.00330681 0 0)
(0.00331157 0 0)
(0.00331681 0 0)
(0.00331945 0 0)
)
;

boundaryField
{
    inlet
    {
        type            fixedValue;
        value           uniform (0 0 0);
    }
    outlet
    {
        type            zeroGradient;
    }
    yzfaces
    {
        type            empty;
    }
}


// ************************************************************************* //
