/*--------------------------------*- C++ -*----------------------------------*\
| =========                 |                                                 |
| \\      /  F ield         | foam-extend: Open Source CFD                    |
|  \\    /   O peration     | Version:     5.0                                |
|   \\  /    A nd           | Web:         http://www.foam-extend.org         |
|    \\/     M anipulation  |                                                 |
\*---------------------------------------------------------------------------*/
FoamFile
{
    version     2.0;
    format      ascii;
    class       volScalarField;
    location    "0.573554";
    object      alpha.gas;
}
// * * * * * * * * * * * * * * * * * * * * * * * * * * * * * * * * * * * * * //

dimensions      [0 0 0 0 0 0 0];

internalField   nonuniform List<scalar> 
100
(
0.0949588
0.0770647
0.06629
0.0529343
0.046087
0.0419046
0.0387906
0.0359238
0.0330285
0.0299933
0.0268419
0.0236263
0.0204693
0.0175547
0.0150707
0.0131549
0.0118327
0.0110114
0.010536
0.0102777
0.0101403
0.0100715
0.0100362
0.0100165
0.0100087
0.0100043
0.010001
0.0100007
0.0100016
0.0100016
0.0100007
0.0100004
0.00999975
0.0100005
0.00999997
0.0100009
0.0099999
0.00999808
0.00999667
0.00999909
0.0100005
0.0100007
0.00999888
0.0099973
0.00999746
0.00999936
0.00999992
0.0100002
0.00999924
0.00999835
0.00999954
0.00999896
0.00999937
0.00999835
0.00999954
0.00999895
0.00999842
0.00999919
0.00999954
0.00999993
0.01
0.0100003
0.0100013
0.010001
0.010001
0.0100011
0.0099998
0.0100006
0.0100011
0.0100011
0.0100006
0.00999893
0.00999892
0.00999958
0.010002
0.0100006
0.0100011
0.00999987
0.0100018
0.010001
0.0100021
0.0100016
0.0100034
0.010003
0.0100022
0.0100019
0.010001
0.00999952
0.00999819
0.00999757
0.00999744
0.0099997
0.00999856
0.00999973
0.00999684
0.01
0.00999866
0.00999942
0.00999917
0.0100025
)
;

boundaryField
{
    inlet
    {
        type            fixedValue;
        value           uniform 0.2;
    }
    outlet
    {
        type            zeroGradient;
    }
    yzfaces
    {
        type            empty;
    }
}


// ************************************************************************* //
