/*--------------------------------*- C++ -*----------------------------------*\
| =========                 |                                                 |
| \\      /  F ield         | foam-extend: Open Source CFD                    |
|  \\    /   O peration     | Version:     5.0                                |
|   \\  /    A nd           | Web:         http://www.foam-extend.org         |
|    \\/     M anipulation  |                                                 |
\*---------------------------------------------------------------------------*/
FoamFile
{
    version     2.0;
    format      ascii;
    class       volScalarField;
    location    "0.573554";
    object      Cl.water;
}
// * * * * * * * * * * * * * * * * * * * * * * * * * * * * * * * * * * * * * //

dimensions      [0 0 0 0 0 0 0];

internalField   nonuniform List<scalar> 
100
(
0
0.00903318
0.0137516
0.00337814
0.0122095
0.0169594
0.0188519
0.0196743
0.020159
0.0205799
0.0209618
0.0213502
0.0217115
0.0220865
0.0223668
0.0226365
0.0227752
0.0228836
0.0229409
0.0229745
0.0229885
0.0229692
0.0229841
0.0229926
0.0229981
0.0229746
0.022981
0.0229768
0.0229845
0.0230017
0.022988
0.0230034
0.0229914
0.0230081
0.0230032
0.0230106
0.0230019
0.0230052
0.0230071
0.0229808
0.0229936
0.022996
0.0230077
0.0229889
0.0229941
0.0229944
0.0229842
0.0229937
0.0229942
0.0230019
0.022996
0.0230007
0.0230087
0.0230034
0.0230093
0.0230078
0.0230162
0.0229863
0.0229961
0.0229991
0.022987
0.0229908
0.0229946
0.0229852
0.0229746
0.0229845
0.022999
0.0230002
0.0230083
0.0230041
0.0230215
0.023018
0.0229937
0.0229953
0.022994
0.0230143
0.0230181
0.0230121
0.0230137
0.0230006
0.022988
0.0229808
0.0229824
0.0230013
0.0230016
0.0230121
0.0230085
0.0229974
0.0229898
0.0229995
0.0229957
0.0229872
0.0229755
0.0229869
0.0229939
0.0230135
0.0230096
0.0230288
0.0230125
0.0229966
)
;

boundaryField
{
    inlet
    {
        type            fixedValue;
        value           uniform 0;
    }
    outlet
    {
        type            zeroGradient;
    }
    yzfaces
    {
        type            empty;
    }
}


// ************************************************************************* //
