/*--------------------------------*- C++ -*----------------------------------*\
| =========                 |                                                 |
| \\      /  F ield         | foam-extend: Open Source CFD                    |
|  \\    /   O peration     | Version:     5.0                                |
|   \\  /    A nd           | Web:         http://www.foam-extend.org         |
|    \\/     M anipulation  |                                                 |
\*---------------------------------------------------------------------------*/
FoamFile
{
    version     2.0;
    format      ascii;
    class       volScalarField;
    location    "0.573554";
    object      H2O.gas;
}
// * * * * * * * * * * * * * * * * * * * * * * * * * * * * * * * * * * * * * //

dimensions      [0 0 0 0 0 0 0];

internalField   nonuniform List<scalar> 
100
(
4.30373e-07
0.000101719
0.000411481
0.000482994
0.00132727
0.00284669
0.00485666
0.00714849
0.00950679
0.0117035
0.0134616
0.0145743
0.0148961
0.0145097
0.0135949
0.0125512
0.0116015
0.0109351
0.0105172
0.0102762
0.010145
0.0100657
0.0100354
0.0100186
0.0100113
0.00999668
0.00999488
0.00999259
0.00999579
0.0100039
0.00999792
0.0100059
0.00999855
0.0100069
0.0100037
0.0100024
0.00999809
0.0100011
0.0100015
0.00998991
0.00999352
0.00999521
0.00999901
0.00999134
0.00999522
0.00999589
0.00999124
0.00999376
0.00999296
0.00999424
0.00999339
0.00999667
0.010001
0.00999918
0.0100027
0.0100034
0.0100061
0.00999401
0.00999957
0.0100016
0.00999634
0.00999871
0.0100005
0.00999554
0.00999356
0.00999565
0.0100009
0.0100027
0.0100052
0.0100013
0.0100083
0.0100074
0.00999832
0.00999703
0.00999941
0.0100087
0.0100082
0.0100065
0.0100062
0.00999921
0.00999589
0.00999193
0.00999246
0.0100003
0.00999961
0.0100038
0.0100013
0.00999641
0.00999269
0.00999935
0.00999771
0.0099969
0.00999037
0.00999598
0.00999488
0.0100044
0.0100001
0.0100065
0.0100028
0.0100011
)
;

boundaryField
{
    inlet
    {
        type            fixedValue;
        value           uniform 0;
    }
    outlet
    {
        type            zeroGradient;
    }
    yzfaces
    {
        type            empty;
    }
}


// ************************************************************************* //
