/*--------------------------------*- C++ -*----------------------------------*\
| =========                 |                                                 |
| \\      /  F ield         | foam-extend: Open Source CFD                    |
|  \\    /   O peration     | Version:     5.0                                |
|   \\  /    A nd           | Web:         http://www.foam-extend.org         |
|    \\/     M anipulation  |                                                 |
\*---------------------------------------------------------------------------*/
FoamFile
{
    version     2.0;
    format      ascii;
    class       volScalarField;
    location    "0.573554";
    object      Na.water;
}
// * * * * * * * * * * * * * * * * * * * * * * * * * * * * * * * * * * * * * //

dimensions      [0 0 0 0 0 0 0];

internalField   nonuniform List<scalar> 
100
(
0
0.00903464
0.0137541
0.00337846
0.012215
0.0169618
0.0188528
0.0196719
0.0201541
0.0205793
0.0209583
0.0213425
0.0217146
0.0220887
0.0223709
0.0226375
0.0227679
0.022872
0.0229422
0.0229783
0.0229933
0.0229767
0.0229934
0.0230004
0.0230062
0.0229856
0.0229887
0.0229824
0.0229901
0.0230045
0.0229943
0.0230185
0.022998
0.0230161
0.0230052
0.0230045
0.0229897
0.0229964
0.0230006
0.0229667
0.022973
0.0229804
0.0229915
0.0229807
0.0229831
0.0229859
0.0229759
0.0229869
0.0229978
0.0229997
0.0229868
0.0229909
0.0230057
0.0229986
0.023007
0.0230082
0.0230147
0.0229886
0.0230002
0.022999
0.0229826
0.0229883
0.0229899
0.0229863
0.0229803
0.0229871
0.0229975
0.0229956
0.0230033
0.0230007
0.0230205
0.0230218
0.0229965
0.0229935
0.0229963
0.023023
0.0230209
0.023024
0.0230206
0.0230121
0.0230007
0.0229905
0.0229825
0.02299
0.0229928
0.02301
0.023002
0.0229936
0.0229859
0.022994
0.0229921
0.0229884
0.02298
0.0229935
0.0229951
0.0230223
0.0230073
0.0230257
0.0230149
0.0230063
)
;

boundaryField
{
    inlet
    {
        type            fixedValue;
        value           uniform 0;
    }
    outlet
    {
        type            zeroGradient;
    }
    yzfaces
    {
        type            empty;
    }
}


// ************************************************************************* //
