/*--------------------------------*- C++ -*----------------------------------*\
| =========                 |                                                 |
| \\      /  F ield         | foam-extend: Open Source CFD                    |
|  \\    /   O peration     | Version:     5.0                                |
|   \\  /    A nd           | Web:         http://www.foam-extend.org         |
|    \\/     M anipulation  |                                                 |
\*---------------------------------------------------------------------------*/
FoamFile
{
    version     2.0;
    format      ascii;
    class       surfaceScalarField;
    location    "0.573554";
    object      phi;
}
// * * * * * * * * * * * * * * * * * * * * * * * * * * * * * * * * * * * * * //

dimensions      [0 3 -1 0 0 0 0];

internalField   nonuniform List<scalar> 
99
(
1.22578e-06
1.2213e-06
1.22182e-06
1.22285e-06
1.21963e-06
1.22371e-06
1.22375e-06
1.22467e-06
1.22616e-06
1.22398e-06
1.22245e-06
1.22178e-06
1.22274e-06
1.22225e-06
1.22232e-06
1.22164e-06
1.22396e-06
1.22432e-06
1.2246e-06
1.22532e-06
1.22324e-06
1.22603e-06
1.22486e-06
1.22319e-06
1.2209e-06
1.22329e-06
1.22233e-06
1.22464e-06
1.22369e-06
1.22316e-06
1.22385e-06
1.22448e-06
1.22391e-06
1.22348e-06
1.22344e-06
1.22344e-06
1.22407e-06
1.22426e-06
1.22304e-06
1.2216e-06
1.22325e-06
1.22415e-06
1.22396e-06
1.22478e-06
1.22433e-06
1.22327e-06
1.22195e-06
1.22376e-06
1.22471e-06
1.22565e-06
1.22709e-06
1.22916e-06
1.23028e-06
1.23019e-06
1.22882e-06
1.22969e-06
1.22743e-06
1.22823e-06
1.22995e-06
1.22869e-06
1.22976e-06
1.22861e-06
1.23087e-06
1.22975e-06
1.2315e-06
1.23214e-06
1.23353e-06
1.23492e-06
1.23543e-06
1.2364e-06
1.23559e-06
1.2354e-06
1.23415e-06
1.23383e-06
1.23373e-06
1.23455e-06
1.23388e-06
1.23263e-06
1.23216e-06
1.23198e-06
1.23076e-06
1.23312e-06
1.23365e-06
1.23313e-06
1.23252e-06
1.23178e-06
1.23144e-06
1.2296e-06
1.22959e-06
1.22981e-06
1.22958e-06
1.22937e-06
1.22915e-06
1.232e-06
1.23256e-06
1.23324e-06
1.2337e-06
1.23433e-06
1.23309e-06
)
;

boundaryField
{
    inlet
    {
        type            calculated;
        value           uniform -1.225e-06;
    }
    outlet
    {
        type            calculated;
        value           uniform 1.23363e-06;
    }
    yzfaces
    {
        type            empty;
    }
}


// ************************************************************************* //
