/*--------------------------------*- C++ -*----------------------------------*\
| =========                 |                                                 |
| \\      /  F ield         | foam-extend: Open Source CFD                    |
|  \\    /   O peration     | Version:     5.0                                |
|   \\  /    A nd           | Web:         http://www.foam-extend.org         |
|    \\/     M anipulation  |                                                 |
\*---------------------------------------------------------------------------*/
FoamFile
{
    version     2.0;
    format      ascii;
    class       volScalarField;
    location    "0.573554";
    object      S.gas;
}
// * * * * * * * * * * * * * * * * * * * * * * * * * * * * * * * * * * * * * //

dimensions      [0 0 0 0 0 0 0];

internalField   nonuniform List<scalar> 
100
(
0.474794
0.385323
0.33145
0.264672
0.230435
0.209523
0.193953
0.179619
0.165143
0.149966
0.134209
0.118132
0.102346
0.0877734
0.0753535
0.0657747
0.0591635
0.0550569
0.0526802
0.0513887
0.0507013
0.0503577
0.0501811
0.0500823
0.0500433
0.0500216
0.0500049
0.0500034
0.0500082
0.0500079
0.0500035
0.0500021
0.0499987
0.0500025
0.0499999
0.0500047
0.0499995
0.0499904
0.0499834
0.0499955
0.0500026
0.0500037
0.0499944
0.0499865
0.0499873
0.0499968
0.0499996
0.0500009
0.0499962
0.0499917
0.0499977
0.0499948
0.0499969
0.0499918
0.0499977
0.0499947
0.0499921
0.0499959
0.0499977
0.0499996
0.0500002
0.0500016
0.0500064
0.0500051
0.0500051
0.0500054
0.049999
0.050003
0.0500055
0.0500057
0.0500029
0.0499946
0.0499946
0.0499979
0.05001
0.0500032
0.0500054
0.0499993
0.0500088
0.0500051
0.0500106
0.0500082
0.0500168
0.0500149
0.0500111
0.0500097
0.050005
0.0499976
0.049991
0.0499878
0.0499872
0.0499985
0.0499928
0.0499987
0.0499842
0.0500002
0.0499933
0.0499971
0.0499959
0.0500126
)
;

boundaryField
{
    inlet
    {
        type            calculated;
        value           uniform 1;
    }
    outlet
    {
        type            calculated;
        value           uniform 0.0500126;
    }
    yzfaces
    {
        type            empty;
    }
}


// ************************************************************************* //
