/*--------------------------------*- C++ -*----------------------------------*\
| =========                 |                                                 |
| \\      /  F ield         | foam-extend: Open Source CFD                    |
|  \\    /   O peration     | Version:     5.0                                |
|   \\  /    A nd           | Web:         http://www.foam-extend.org         |
|    \\/     M anipulation  |                                                 |
\*---------------------------------------------------------------------------*/
FoamFile
{
    version     2.0;
    format      ascii;
    class       volVectorField;
    location    "0.573554";
    object      U.gas;
}
// * * * * * * * * * * * * * * * * * * * * * * * * * * * * * * * * * * * * * //

dimensions      [0 1 -1 0 0 0 0];

internalField   nonuniform List<vector> 
100
(
(0.0101916 0 0)
(0.0117213 0 0)
(0.0126809 0 0)
(0.0142089 0 0)
(0.0141413 0 0)
(0.0138624 0 0)
(0.0136192 0 0)
(0.0133841 0 0)
(0.0131042 0 0)
(0.0127 0 0)
(0.0121126 0 0)
(0.0113431 0 0)
(0.0103879 0 0)
(0.00927562 0 0)
(0.00810313 0 0)
(0.00701147 0 0)
(0.0061287 0 0)
(0.00551061 0 0)
(0.00512242 0 0)
(0.00489959 0 0)
(0.00477588 0 0)
(0.0047131 0 0)
(0.00468389 0 0)
(0.0046615 0 0)
(0.00464464 0 0)
(0.00464189 0 0)
(0.00464318 0 0)
(0.0046432 0 0)
(0.00464548 0 0)
(0.00464375 0 0)
(0.00464367 0 0)
(0.00464617 0 0)
(0.00464605 0 0)
(0.00464411 0 0)
(0.00464365 0 0)
(0.00464257 0 0)
(0.00464383 0 0)
(0.00464492 0 0)
(0.00464265 0 0)
(0.00463734 0 0)
(0.00463872 0 0)
(0.00464397 0 0)
(0.00464623 0 0)
(0.00464603 0 0)
(0.00464557 0 0)
(0.00464304 0 0)
(0.00463952 0 0)
(0.00464087 0 0)
(0.00464623 0 0)
(0.00464915 0 0)
(0.00465299 0 0)
(0.00466007 0 0)
(0.00466557 0 0)
(0.00466796 0 0)
(0.00466513 0 0)
(0.00466491 0 0)
(0.00466133 0 0)
(0.00465769 0 0)
(0.00466335 0 0)
(0.0046648 0 0)
(0.00466482 0 0)
(0.00466504 0 0)
(0.00466714 0 0)
(0.00466948 0 0)
(0.00467098 0 0)
(0.00467586 0 0)
(0.00467926 0 0)
(0.00468333 0 0)
(0.00468679 0 0)
(0.00468991 0 0)
(0.00469019 0 0)
(0.00468869 0 0)
(0.00468541 0 0)
(0.00468186 0 0)
(0.00468157 0 0)
(0.00468415 0 0)
(0.0046838 0 0)
(0.00468027 0 0)
(0.00467668 0 0)
(0.00467593 0 0)
(0.00467259 0 0)
(0.00467576 0 0)
(0.00468166 0 0)
(0.00468205 0 0)
(0.0046798 0 0)
(0.00467767 0 0)
(0.00467441 0 0)
(0.00466955 0 0)
(0.00466592 0 0)
(0.00466554 0 0)
(0.00466563 0 0)
(0.00466482 0 0)
(0.00466462 0 0)
(0.00466945 0 0)
(0.00467596 0 0)
(0.00467668 0 0)
(0.00468117 0 0)
(0.0046825 0 0)
(0.00468151 0 0)
(0.00467894 0 0)
)
;

boundaryField
{
    inlet
    {
        type            fixedValue;
        value           uniform (0.005 0 0);
    }
    outlet
    {
        type            zeroGradient;
    }
    yzfaces
    {
        type            empty;
    }
}


// ************************************************************************* //
