/*--------------------------------*- C++ -*----------------------------------*\
| =========                 |                                                 |
| \\      /  F ield         | foam-extend: Open Source CFD                    |
|  \\    /   O peration     | Version:     5.0                                |
|   \\  /    A nd           | Web:         http://www.foam-extend.org         |
|    \\/     M anipulation  |                                                 |
\*---------------------------------------------------------------------------*/
FoamFile
{
    version     2.0;
    format      ascii;
    class       volVectorField;
    location    "0.573554";
    object      U.water;
}
// * * * * * * * * * * * * * * * * * * * * * * * * * * * * * * * * * * * * * //

dimensions      [0 1 -1 0 0 0 0];

internalField   nonuniform List<vector> 
100
(
(0.000309743 0 0)
(0.000776873 0 0)
(0.00117101 0 0)
(0.0016706 0 0)
(0.00224283 0 0)
(0.00263374 0 0)
(0.00291959 0 0)
(0.00316039 0 0)
(0.00339895 0 0)
(0.00364186 0 0)
(0.00388903 0 0)
(0.00413693 0 0)
(0.00437324 0 0)
(0.00457741 0 0)
(0.00473514 0 0)
(0.00484518 0 0)
(0.00491947 0 0)
(0.00496653 0 0)
(0.00499087 0 0)
(0.00500527 0 0)
(0.00500888 0 0)
(0.00501364 0 0)
(0.00501862 0 0)
(0.00501366 0 0)
(0.00500602 0 0)
(0.00500639 0 0)
(0.00500938 0 0)
(0.00501226 0 0)
(0.00501506 0 0)
(0.00501199 0 0)
(0.00501234 0 0)
(0.00501503 0 0)
(0.00501517 0 0)
(0.00501313 0 0)
(0.00501214 0 0)
(0.00501212 0 0)
(0.0050134 0 0)
(0.00501508 0 0)
(0.00501299 0 0)
(0.00500758 0 0)
(0.00500795 0 0)
(0.00501315 0 0)
(0.00501455 0 0)
(0.00501591 0 0)
(0.00501674 0 0)
(0.00501364 0 0)
(0.00500871 0 0)
(0.00500968 0 0)
(0.00501533 0 0)
(0.00501923 0 0)
(0.00502414 0 0)
(0.00503132 0 0)
(0.00503787 0 0)
(0.00503995 0 0)
(0.00503698 0 0)
(0.00503592 0 0)
(0.00503311 0 0)
(0.00503016 0 0)
(0.00503529 0 0)
(0.0050362 0 0)
(0.00503578 0 0)
(0.00503561 0 0)
(0.00503788 0 0)
(0.0050402 0 0)
(0.00504148 0 0)
(0.00504636 0 0)
(0.00505054 0 0)
(0.0050563 0 0)
(0.00506022 0 0)
(0.00506322 0 0)
(0.00506354 0 0)
(0.00506148 0 0)
(0.00505856 0 0)
(0.00505538 0 0)
(0.00505449 0 0)
(0.00505588 0 0)
(0.00505623 0 0)
(0.0050523 0 0)
(0.0050488 0 0)
(0.00504743 0 0)
(0.0050446 0 0)
(0.00504689 0 0)
(0.00505279 0 0)
(0.0050528 0 0)
(0.00505048 0 0)
(0.00504769 0 0)
(0.00504554 0 0)
(0.00504111 0 0)
(0.00503732 0 0)
(0.00503779 0 0)
(0.00503778 0 0)
(0.00503687 0 0)
(0.00503594 0 0)
(0.00504133 0 0)
(0.00504831 0 0)
(0.00505096 0 0)
(0.00505318 0 0)
(0.00505544 0 0)
(0.00505417 0 0)
(0.00505283 0 0)
)
;

boundaryField
{
    inlet
    {
        type            fixedValue;
        value           uniform (0 0 0);
    }
    outlet
    {
        type            zeroGradient;
    }
    yzfaces
    {
        type            empty;
    }
}


// ************************************************************************* //
