/*--------------------------------*- C++ -*----------------------------------*\
| =========                 |                                                 |
| \\      /  F ield         | foam-extend: Open Source CFD                    |
|  \\    /   O peration     | Version:     5.0                                |
|   \\  /    A nd           | Web:         http://www.foam-extend.org         |
|    \\/     M anipulation  |                                                 |
\*---------------------------------------------------------------------------*/
FoamFile
{
    version     2.0;
    format      ascii;
    class       volScalarField;
    location    "5";
    object      alpha.gas;
}
// * * * * * * * * * * * * * * * * * * * * * * * * * * * * * * * * * * * * * //

dimensions      [0 0 0 0 0 0 0];

internalField   nonuniform List<scalar> 
100
(
0.156818
0.143332
0.133586
0.125499
0.120339
0.115287
0.110359
0.106442
0.102645
0.0992807
0.0958424
0.0938385
0.0919684
0.0895116
0.0875373
0.0865326
0.0850316
0.0835486
0.0818444
0.0803891
0.0786808
0.0772427
0.0759574
0.0750361
0.073983
0.0731114
0.071922
0.0709231
0.0699089
0.0690824
0.0681235
0.0672632
0.0663553
0.065511
0.0647492
0.0640017
0.0633662
0.0625456
0.0617378
0.0609138
0.0601941
0.0593726
0.0585816
0.0578283
0.0572508
0.0566326
0.0559505
0.0553232
0.0546842
0.0541624
0.0536082
0.0529901
0.0524583
0.0519287
0.0514445
0.0508936
0.0502954
0.0496682
0.049005
0.0484393
0.0477271
0.0470566
0.0463659
0.0457467
0.0450381
0.0444169
0.0437921
0.0430916
0.0423891
0.0417293
0.041014
0.0402789
0.039525
0.0387455
0.0379694
0.0371633
0.0363046
0.0354074
0.0344799
0.0334706
0.0323887
0.0312166
0.0299664
0.028617
0.0271392
0.0255343
0.0237957
0.0219369
0.020014
0.0180764
0.0162166
0.0145445
0.0131565
0.0120841
0.0113192
0.0108076
0.0104815
0.0102831
0.0101652
0.0100935
)
;

boundaryField
{
    inlet
    {
        type            fixedValue;
        value           uniform 0.2;
    }
    outlet
    {
        type            zeroGradient;
    }
    yzfaces
    {
        type            empty;
    }
}


// ************************************************************************* //
