/*--------------------------------*- C++ -*----------------------------------*\
| =========                 |                                                 |
| \\      /  F ield         | foam-extend: Open Source CFD                    |
|  \\    /   O peration     | Version:     5.0                                |
|   \\  /    A nd           | Web:         http://www.foam-extend.org         |
|    \\/     M anipulation  |                                                 |
\*---------------------------------------------------------------------------*/
FoamFile
{
    version     2.0;
    format      ascii;
    class       volScalarField;
    location    "5";
    object      Cl.water;
}
// * * * * * * * * * * * * * * * * * * * * * * * * * * * * * * * * * * * * * //

dimensions      [0 0 0 0 0 0 0];

internalField   nonuniform List<scalar> 
100
(
0.00889227
0.0121105
0.0140285
0.0154806
0.0166245
0.0176305
0.0183249
0.0190675
0.0197343
0.0202167
0.0209068
0.0214753
0.0220492
0.0223458
0.0228667
0.0231823
0.0234293
0.023756
0.0240301
0.0243684
0.0247373
0.025021
0.0252361
0.0255278
0.0257282
0.0259073
0.0260664
0.0263484
0.0265331
0.026732
0.0268576
0.0270824
0.0272216
0.0273772
0.0275896
0.0277994
0.027982
0.0281481
0.0282865
0.0284022
0.02862
0.0287191
0.0288736
0.0290383
0.0292068
0.0293553
0.0294438
0.029573
0.0296543
0.0298791
0.0300048
0.0300999
0.0302436
0.0304301
0.0305229
0.0305792
0.0306501
0.0307642
0.0308419
0.0310011
0.031075
0.0311844
0.0312959
0.0314917
0.0316119
0.0317545
0.0318957
0.0320023
0.0321418
0.0322935
0.0324482
0.0335747
0.0337729
0.0339386
0.0340977
0.034281
0.0344716
0.0346849
0.0348708
0.035098
0.0353209
0.0355765
0.035841
0.0361305
0.0364543
0.0367623
0.0371511
0.0375595
0.0379407
0.0383444
0.0387117
0.039053
0.0393714
0.039591
0.039709
0.03985
0.0398959
0.0399484
0.0399659
0.0400059
)
;

boundaryField
{
    inlet
    {
        type            fixedValue;
        value           uniform 0;
    }
    outlet
    {
        type            zeroGradient;
    }
    yzfaces
    {
        type            empty;
    }
}


// ************************************************************************* //
