/*--------------------------------*- C++ -*----------------------------------*\
| =========                 |                                                 |
| \\      /  F ield         | foam-extend: Open Source CFD                    |
|  \\    /   O peration     | Version:     5.0                                |
|   \\  /    A nd           | Web:         http://www.foam-extend.org         |
|    \\/     M anipulation  |                                                 |
\*---------------------------------------------------------------------------*/
FoamFile
{
    version     2.0;
    format      ascii;
    class       volScalarField;
    location    "5";
    object      CO2.gas;
}
// * * * * * * * * * * * * * * * * * * * * * * * * * * * * * * * * * * * * * //

dimensions      [0 0 0 0 0 0 0];

internalField   nonuniform List<scalar> 
100
(
0.156512
0.143053
0.133326
0.125255
0.120105
0.115062
0.110144
0.106235
0.102445
0.0990873
0.0956558
0.0936557
0.0917893
0.0893373
0.0873668
0.0863641
0.084866
0.0833859
0.081685
0.0802326
0.0785276
0.0770923
0.0758094
0.07489
0.0738389
0.072969
0.0717819
0.070785
0.0697727
0.0689479
0.0679908
0.0671322
0.0662261
0.0653834
0.0646231
0.0638771
0.0632428
0.0624238
0.0616176
0.0607951
0.0600769
0.0592569
0.0584676
0.0577156
0.0571393
0.0565223
0.0558415
0.0552154
0.0545777
0.0540569
0.0535038
0.0528869
0.0523561
0.0518276
0.0513443
0.0507945
0.0501974
0.0495714
0.0489095
0.048345
0.0476342
0.0469649
0.0462756
0.0456576
0.0449504
0.0443304
0.0437068
0.0430077
0.0423066
0.0416481
0.0409341
0.0330497
0.0292099
0.0256346
0.0223604
0.0193385
0.0165564
0.0140439
0.0117711
0.0097335
0.00792173
0.00633429
0.00496899
0.00380673
0.00283486
0.00203957
0.0014108
0.00092896
0.000576515
0.000333406
0.000177719
8.67385e-05
3.87292e-05
1.58782e-05
6.07095e-06
2.20666e-06
7.72583e-07
2.63607e-07
8.7439e-08
2.37771e-08
)
;

boundaryField
{
    inlet
    {
        type            fixedValue;
        value           uniform 0.2;
    }
    outlet
    {
        type            zeroGradient;
    }
    yzfaces
    {
        type            empty;
    }
}


// ************************************************************************* //
