/*--------------------------------*- C++ -*----------------------------------*\
| =========                 |                                                 |
| \\      /  F ield         | foam-extend: Open Source CFD                    |
|  \\    /   O peration     | Version:     5.0                                |
|   \\  /    A nd           | Web:         http://www.foam-extend.org         |
|    \\/     M anipulation  |                                                 |
\*---------------------------------------------------------------------------*/
FoamFile
{
    version     2.0;
    format      ascii;
    class       volScalarField;
    location    "5";
    object      CO2.water;
}
// * * * * * * * * * * * * * * * * * * * * * * * * * * * * * * * * * * * * * //

dimensions      [0 0 0 0 0 0 0];

internalField   nonuniform List<scalar> 
100
(
0.00113416
0.00148837
0.00174434
0.00195673
0.00209226
0.00222495
0.00235439
0.00245726
0.002557
0.00264535
0.00273565
0.00278828
0.0028374
0.00290193
0.00295378
0.00298017
0.00301959
0.00305854
0.0031033
0.00314152
0.00318639
0.00322416
0.00325792
0.00328212
0.00330978
0.00333267
0.00336391
0.00339015
0.00341678
0.00343849
0.00346368
0.00348627
0.00351012
0.00353229
0.0035523
0.00357193
0.00358862
0.00361018
0.00363139
0.00365304
0.00367194
0.00369352
0.00371429
0.00373408
0.00374924
0.00376548
0.00378339
0.00379987
0.00381665
0.00383036
0.00384491
0.00386115
0.00387512
0.00388902
0.00390174
0.00391621
0.00393192
0.0039484
0.00396581
0.00398067
0.00399938
0.00401699
0.00403513
0.00405139
0.00407
0.00408632
0.00410273
0.00412113
0.00413958
0.00415691
0.00417569
0.000167731
3.54053e-05
7.79629e-06
1.80129e-06
4.3771e-07
1.11899e-07
2.99426e-08
8.32614e-09
2.34369e-09
6.45432e-10
1.52113e-10
2.78803e-11
1.74806e-12
0
0
0
0
0
0
0
0
0
0
0
0
0
0
0
0
)
;

boundaryField
{
    inlet
    {
        type            fixedValue;
        value           uniform 0;
    }
    outlet
    {
        type            zeroGradient;
    }
    yzfaces
    {
        type            empty;
    }
}


// ************************************************************************* //
