/*--------------------------------*- C++ -*----------------------------------*\
| =========                 |                                                 |
| \\      /  F ield         | foam-extend: Open Source CFD                    |
|  \\    /   O peration     | Version:     5.0                                |
|   \\  /    A nd           | Web:         http://www.foam-extend.org         |
|    \\/     M anipulation  |                                                 |
\*---------------------------------------------------------------------------*/
FoamFile
{
    version     2.0;
    format      ascii;
    class       volScalarField;
    location    "5";
    object      H2O.water;
}
// * * * * * * * * * * * * * * * * * * * * * * * * * * * * * * * * * * * * * //

dimensions      [0 0 0 0 0 0 0];

internalField   nonuniform List<scalar> 
100
(
0.0242657
0.0309598
0.036617
0.0415718
0.0443058
0.0472123
0.050632
0.0529697
0.0553217
0.0576231
0.0595824
0.060404
0.0610599
0.0628713
0.0637545
0.0641163
0.065082
0.0658746
0.0669808
0.0677373
0.0686506
0.0694808
0.0703124
0.070639
0.0712688
0.0717487
0.0725693
0.072987
0.0736092
0.0740016
0.0746889
0.0750863
0.0756892
0.0762025
0.076501
0.0768025
0.0770943
0.0775468
0.0780412
0.0786174
0.0788647
0.079488
0.0799573
0.0803745
0.0805913
0.0808916
0.0813707
0.0817149
0.0821814
0.082247
0.0825328
0.0829364
0.0831731
0.0833006
0.0835764
0.0840164
0.0844624
0.0848476
0.0853273
0.085549
0.0861112
0.0865283
0.086985
0.0871988
0.0876588
0.0879717
0.0882962
0.0887765
0.0891821
0.0895223
0.0899275
0.0924168
0.0929514
0.0934194
0.0938907
0.0943315
0.0947796
0.0953491
0.0958605
0.0964652
0.097086
0.0977888
0.0985129
0.0992663
0.100161
0.101014
0.102131
0.103294
0.104408
0.105536
0.106516
0.107406
0.108254
0.108849
0.109223
0.109591
0.109703
0.109846
0.109879
0.109943
)
;

boundaryField
{
    inlet
    {
        type            fixedValue;
        value           uniform 0;
    }
    outlet
    {
        type            zeroGradient;
    }
    yzfaces
    {
        type            empty;
    }
}


// ************************************************************************* //
