/*--------------------------------*- C++ -*----------------------------------*\
| =========                 |                                                 |
| \\      /  F ield         | foam-extend: Open Source CFD                    |
|  \\    /   O peration     | Version:     5.0                                |
|   \\  /    A nd           | Web:         http://www.foam-extend.org         |
|    \\/     M anipulation  |                                                 |
\*---------------------------------------------------------------------------*/
FoamFile
{
    version     2.0;
    format      ascii;
    class       volScalarField;
    location    "5";
    object      H2O.gas;
}
// * * * * * * * * * * * * * * * * * * * * * * * * * * * * * * * * * * * * * //

dimensions      [0 0 0 0 0 0 0];

internalField   nonuniform List<scalar> 
100
(
0.000305398
0.000279134
0.000260155
0.000244406
0.000234357
0.000224518
0.00021492
0.000207293
0.000199897
0.000193346
0.00018665
0.000182748
0.000179106
0.000174321
0.000170476
0.00016852
0.000165597
0.000162708
0.00015939
0.000156555
0.000153229
0.000150428
0.000147925
0.000146131
0.00014408
0.000142382
0.000140066
0.000138121
0.000136145
0.000134536
0.000132669
0.000130993
0.000129225
0.000127581
0.000126097
0.000124641
0.000123404
0.000121806
0.000120233
0.000118628
0.000117226
0.000115626
0.000114086
0.000112619
0.000111494
0.00011029
0.000108962
0.00010774
0.000106496
0.00010548
0.0001044
0.000103197
0.000102161
0.00010113
0.000100187
9.91139e-05
9.79488e-05
9.67273e-05
9.54358e-05
9.43341e-05
9.29472e-05
9.16413e-05
9.02963e-05
8.90904e-05
8.77104e-05
8.65006e-05
8.52838e-05
8.39196e-05
8.25516e-05
8.12667e-05
7.98736e-05
0.00723051
0.0103237
0.0131174
0.0156205
0.0178324
0.0197453
0.0213841
0.0227186
0.0237538
0.024481
0.0249053
0.0250182
0.0248281
0.0243329
0.0235021
0.0224117
0.0210459
0.0194675
0.0177702
0.01605
0.014459
0.0131257
0.0120745
0.01131
0.010811
0.0104794
0.010285
0.0101651
0.0100952
)
;

boundaryField
{
    inlet
    {
        type            fixedValue;
        value           uniform 0;
    }
    outlet
    {
        type            zeroGradient;
    }
    yzfaces
    {
        type            empty;
    }
}


// ************************************************************************* //
