/*--------------------------------*- C++ -*----------------------------------*\
| =========                 |                                                 |
| \\      /  F ield         | foam-extend: Open Source CFD                    |
|  \\    /   O peration     | Version:     5.0                                |
|   \\  /    A nd           | Web:         http://www.foam-extend.org         |
|    \\/     M anipulation  |                                                 |
\*---------------------------------------------------------------------------*/
FoamFile
{
    version     2.0;
    format      ascii;
    class       volScalarField;
    location    "5";
    object      Na.water;
}
// * * * * * * * * * * * * * * * * * * * * * * * * * * * * * * * * * * * * * //

dimensions      [0 0 0 0 0 0 0];

internalField   nonuniform List<scalar> 
100
(
0.00889009
0.0121097
0.0140243
0.0154915
0.0166384
0.0176452
0.01833
0.0190637
0.0197424
0.0202342
0.0209327
0.0214939
0.0220851
0.0223693
0.0228878
0.0231886
0.0234374
0.0237623
0.0240414
0.0243637
0.0247449
0.0250314
0.0252362
0.025515
0.0257103
0.0258999
0.0260783
0.0263513
0.0265321
0.0267455
0.0268664
0.0270818
0.0272238
0.027377
0.0276079
0.0278245
0.0279689
0.0281494
0.0283031
0.0284136
0.0286493
0.0287268
0.0288731
0.0290248
0.0292018
0.029355
0.0294516
0.0295891
0.0296636
0.0298811
0.0300093
0.0301124
0.0302499
0.0304516
0.0305545
0.0305945
0.0306602
0.0307716
0.03086
0.03103
0.0310873
0.0312137
0.0313181
0.0315113
0.0316212
0.0317706
0.0319133
0.0320085
0.0321475
0.032298
0.0324346
0.0335671
0.0337504
0.0339155
0.0340894
0.0342569
0.0344312
0.0346545
0.0348358
0.0350492
0.0352766
0.0355425
0.0357975
0.036093
0.0364272
0.0367401
0.0371199
0.0375177
0.0379073
0.0383167
0.0386818
0.0390125
0.039331
0.039574
0.0396979
0.03985
0.039897
0.0399625
0.0399895
0.0399916
)
;

boundaryField
{
    inlet
    {
        type            fixedValue;
        value           uniform 0;
    }
    outlet
    {
        type            zeroGradient;
    }
    yzfaces
    {
        type            empty;
    }
}


// ************************************************************************* //
