/*--------------------------------*- C++ -*----------------------------------*\
| =========                 |                                                 |
| \\      /  F ield         | foam-extend: Open Source CFD                    |
|  \\    /   O peration     | Version:     5.0                                |
|   \\  /    A nd           | Web:         http://www.foam-extend.org         |
|    \\/     M anipulation  |                                                 |
\*---------------------------------------------------------------------------*/
FoamFile
{
    version     2.0;
    format      ascii;
    class       surfaceScalarField;
    location    "5";
    object      phi;
}
// * * * * * * * * * * * * * * * * * * * * * * * * * * * * * * * * * * * * * //

dimensions      [0 3 -1 0 0 0 0];

internalField   nonuniform List<scalar> 
99
(
1.22599e-06
1.22028e-06
1.21448e-06
1.21499e-06
1.21243e-06
1.20634e-06
1.2102e-06
1.2148e-06
1.21478e-06
1.20903e-06
1.22382e-06
1.21931e-06
1.21379e-06
1.21984e-06
1.23135e-06
1.22606e-06
1.22438e-06
1.22028e-06
1.22236e-06
1.21553e-06
1.22429e-06
1.22597e-06
1.23125e-06
1.23052e-06
1.23389e-06
1.22606e-06
1.22939e-06
1.22945e-06
1.22796e-06
1.22632e-06
1.22577e-06
1.22596e-06
1.2278e-06
1.22774e-06
1.22804e-06
1.23137e-06
1.22479e-06
1.2241e-06
1.22393e-06
1.22452e-06
1.22086e-06
1.22397e-06
1.22441e-06
1.22484e-06
1.22509e-06
1.22295e-06
1.22503e-06
1.22555e-06
1.22734e-06
1.22532e-06
1.22285e-06
1.2243e-06
1.22348e-06
1.22351e-06
1.22009e-06
1.21688e-06
1.21454e-06
1.21223e-06
1.21259e-06
1.20715e-06
1.20977e-06
1.21017e-06
1.21212e-06
1.21162e-06
1.21508e-06
1.214e-06
1.21322e-06
1.2156e-06
1.21584e-06
1.21409e-06
1.21398e-06
1.21502e-06
1.21662e-06
1.21676e-06
1.21696e-06
1.21592e-06
1.21737e-06
1.21909e-06
1.21873e-06
1.21916e-06
1.21994e-06
1.22177e-06
1.22087e-06
1.22067e-06
1.22068e-06
1.22033e-06
1.22083e-06
1.22246e-06
1.22125e-06
1.2205e-06
1.22074e-06
1.22226e-06
1.21934e-06
1.21902e-06
1.21909e-06
1.21869e-06
1.21871e-06
1.21887e-06
1.21626e-06
)
;

boundaryField
{
    inlet
    {
        type            calculated;
        value           uniform -1.225e-06;
    }
    outlet
    {
        type            calculated;
        value           uniform 1.21764e-06;
    }
    yzfaces
    {
        type            empty;
    }
}


// ************************************************************************* //
