/*--------------------------------*- C++ -*----------------------------------*\
| =========                 |                                                 |
| \\      /  F ield         | foam-extend: Open Source CFD                    |
|  \\    /   O peration     | Version:     5.0                                |
|   \\  /    A nd           | Web:         http://www.foam-extend.org         |
|    \\/     M anipulation  |                                                 |
\*---------------------------------------------------------------------------*/
FoamFile
{
    version     2.0;
    format      ascii;
    class       surfaceScalarField;
    location    "5";
    object      phi.water;
}
// * * * * * * * * * * * * * * * * * * * * * * * * * * * * * * * * * * * * * //

dimensions      [0 3 -1 0 0 0 0];

internalField   nonuniform List<scalar> 
99
(
1.05223e-07
1.74711e-07
2.38336e-07
3.09045e-07
3.56882e-07
4.12125e-07
4.78083e-07
5.35937e-07
5.96165e-07
6.53879e-07
7.32953e-07
7.70834e-07
8.08583e-07
8.73422e-07
9.34541e-07
9.54765e-07
9.95703e-07
1.03393e-06
1.08776e-06
1.12821e-06
1.1956e-06
1.24818e-06
1.30167e-06
1.33498e-06
1.37883e-06
1.405e-06
1.45895e-06
1.50256e-06
1.54514e-06
1.58021e-06
1.62669e-06
1.66714e-06
1.71562e-06
1.76087e-06
1.80014e-06
1.84257e-06
1.86757e-06
1.91095e-06
1.95815e-06
2.00523e-06
2.04269e-06
2.0979e-06
2.14801e-06
2.19739e-06
2.23492e-06
2.27152e-06
2.32283e-06
2.36642e-06
2.41424e-06
2.44624e-06
2.48116e-06
2.52909e-06
2.56717e-06
2.60563e-06
2.63329e-06
2.6684e-06
2.70949e-06
2.75372e-06
2.80712e-06
2.83918e-06
2.90661e-06
2.96223e-06
3.02455e-06
3.07784e-06
3.14854e-06
3.19791e-06
3.25249e-06
3.32199e-06
3.38659e-06
3.44275e-06
3.51051e-06
3.58106e-06
3.65738e-06
3.73297e-06
3.80954e-06
3.88517e-06
3.97414e-06
4.06903e-06
4.16063e-06
4.26337e-06
4.37433e-06
4.49897e-06
4.62132e-06
4.75403e-06
4.89986e-06
5.0517e-06
5.21032e-06
5.38062e-06
5.53485e-06
5.68049e-06
5.81326e-06
5.92287e-06
5.98196e-06
6.03409e-06
6.06734e-06
6.0852e-06
6.09865e-06
6.10628e-06
6.09744e-06
)
;

boundaryField
{
    inlet
    {
        type            fixedValue;
        value           uniform 0;
    }
    outlet
    {
        type            calculated;
        value           uniform 6.10722e-06;
    }
    yzfaces
    {
        type            empty;
    }
}


// ************************************************************************* //
