/*--------------------------------*- C++ -*----------------------------------*\
| =========                 |                                                 |
| \\      /  F ield         | foam-extend: Open Source CFD                    |
|  \\    /   O peration     | Version:     5.0                                |
|   \\  /    A nd           | Web:         http://www.foam-extend.org         |
|    \\/     M anipulation  |                                                 |
\*---------------------------------------------------------------------------*/
FoamFile
{
    version     2.0;
    format      ascii;
    class       volVectorField;
    location    "5";
    object      U.gas;
}
// * * * * * * * * * * * * * * * * * * * * * * * * * * * * * * * * * * * * * //

dimensions      [0 1 -1 0 0 0 0];

internalField   nonuniform List<vector> 
100
(
(0.00636574 0 0)
(0.0069206 0 0)
(0.00735499 0 0)
(0.00776906 0 0)
(0.00805265 0 0)
(0.00833236 0 0)
(0.00864309 0 0)
(0.00893507 0 0)
(0.00922291 0 0)
(0.00944717 0 0)
(0.00974856 0 0)
(0.00993271 0 0)
(0.0100394 0 0)
(0.0102515 0 0)
(0.0104846 0 0)
(0.0105787 0 0)
(0.010685 0 0)
(0.0107868 0 0)
(0.0109308 0 0)
(0.0110308 0 0)
(0.0111959 0 0)
(0.0113646 0 0)
(0.011507 0 0)
(0.011599 0 0)
(0.0117098 0 0)
(0.0117588 0 0)
(0.0118534 0 0)
(0.0119505 0 0)
(0.0120321 0 0)
(0.0120807 0 0)
(0.0121573 0 0)
(0.0122241 0 0)
(0.0123138 0 0)
(0.0123881 0 0)
(0.0124461 0 0)
(0.0125258 0 0)
(0.012552 0 0)
(0.0125892 0 0)
(0.0126466 0 0)
(0.0127118 0 0)
(0.0127418 0 0)
(0.0128043 0 0)
(0.0128766 0 0)
(0.0129288 0 0)
(0.0129543 0 0)
(0.0129851 0 0)
(0.013031 0 0)
(0.0130762 0 0)
(0.0131251 0 0)
(0.0131398 0 0)
(0.0131462 0 0)
(0.0131778 0 0)
(0.0131954 0 0)
(0.0132117 0 0)
(0.013208 0 0)
(0.0131985 0 0)
(0.0131928 0 0)
(0.01319 0 0)
(0.0132007 0 0)
(0.0131733 0 0)
(0.0131879 0 0)
(0.0132068 0 0)
(0.0132286 0 0)
(0.0132264 0 0)
(0.0132519 0 0)
(0.0132482 0 0)
(0.013229 0 0)
(0.0132364 0 0)
(0.0132331 0 0)
(0.0131946 0 0)
(0.0131647 0 0)
(0.0131371 0 0)
(0.0131129 0 0)
(0.0130773 0 0)
(0.0130204 0 0)
(0.0129552 0 0)
(0.0128892 0 0)
(0.0128194 0 0)
(0.0127241 0 0)
(0.0126122 0 0)
(0.0124799 0 0)
(0.0123276 0 0)
(0.0121294 0 0)
(0.0118834 0 0)
(0.011594 0 0)
(0.0112398 0 0)
(0.0108158 0 0)
(0.0103122 0 0)
(0.00970414 0 0)
(0.00900621 0 0)
(0.00824933 0 0)
(0.00747663 0 0)
(0.00673686 0 0)
(0.0060961 0 0)
(0.00559896 0 0)
(0.00524183 0 0)
(0.00500154 0 0)
(0.00484921 0 0)
(0.0047522 0 0)
(0.00469353 0 0)
)
;

boundaryField
{
    inlet
    {
        type            fixedValue;
        value           uniform (0.005 0 0);
    }
    outlet
    {
        type            zeroGradient;
    }
    yzfaces
    {
        type            empty;
    }
}


// ************************************************************************* //
