/*--------------------------------*- C++ -*----------------------------------*\
| =========                 |                                                 |
| \\      /  F ield         | foam-extend: Open Source CFD                    |
|  \\    /   O peration     | Version:     5.0                                |
|   \\  /    A nd           | Web:         http://www.foam-extend.org         |
|    \\/     M anipulation  |                                                 |
\*---------------------------------------------------------------------------*/
FoamFile
{
    version     2.0;
    format      ascii;
    class       volVectorField;
    location    "5";
    object      U.water;
}
// * * * * * * * * * * * * * * * * * * * * * * * * * * * * * * * * * * * * * //

dimensions      [0 1 -1 0 0 0 0];

internalField   nonuniform List<vector> 
100
(
(4.96542e-05 0 0)
(0.000115384 0 0)
(0.00016951 0 0)
(0.000222914 0 0)
(0.00027286 0 0)
(0.000314504 0 0)
(0.000362618 0 0)
(0.000413979 0 0)
(0.000462053 0 0)
(0.00051023 0 0)
(0.000563323 0 0)
(0.000613427 0 0)
(0.000645998 0 0)
(0.000685046 0 0)
(0.000735283 0 0)
(0.000772224 0 0)
(0.000796922 0 0)
(0.000829522 0 0)
(0.000866407 0 0)
(0.000905435 0 0)
(0.00094744 0 0)
(0.000996047 0 0)
(0.00103923 0 0)
(0.001076 0 0)
(0.00110744 0 0)
(0.00113768 0 0)
(0.00116883 0 0)
(0.00120893 0 0)
(0.00124431 0 0)
(0.00127701 0 0)
(0.00130927 0 0)
(0.00134459 0 0)
(0.0013801 0 0)
(0.00141797 0 0)
(0.00145271 0 0)
(0.00148655 0 0)
(0.00151602 0 0)
(0.00154338 0 0)
(0.00157978 0 0)
(0.00161803 0 0)
(0.00165325 0 0)
(0.00169004 0 0)
(0.00173248 0 0)
(0.0017728 0 0)
(0.00180964 0 0)
(0.00184017 0 0)
(0.00187494 0 0)
(0.00191337 0 0)
(0.00195056 0 0)
(0.00198443 0 0)
(0.00201179 0 0)
(0.00204437 0 0)
(0.00207998 0 0)
(0.00211184 0 0)
(0.00213998 0 0)
(0.00216599 0 0)
(0.00219684 0 0)
(0.00223102 0 0)
(0.00227042 0 0)
(0.0023063 0 0)
(0.00234499 0 0)
(0.00239478 0 0)
(0.00244303 0 0)
(0.00249082 0 0)
(0.00254029 0 0)
(0.00259038 0 0)
(0.00263351 0 0)
(0.00268296 0 0)
(0.00273769 0 0)
(0.00278768 0 0)
(0.00283745 0 0)
(0.00289431 0 0)
(0.00295513 0 0)
(0.00301717 0 0)
(0.00307954 0 0)
(0.00314152 0 0)
(0.00320867 0 0)
(0.00328432 0 0)
(0.00336095 0 0)
(0.00344035 0 0)
(0.00352807 0 0)
(0.00362471 0 0)
(0.00372585 0 0)
(0.00383048 0 0)
(0.00394431 0 0)
(0.00406573 0 0)
(0.00419413 0 0)
(0.00433018 0 0)
(0.00446266 0 0)
(0.00458343 0 0)
(0.00469383 0 0)
(0.00479035 0 0)
(0.00485935 0 0)
(0.00490423 0 0)
(0.00493834 0 0)
(0.00495982 0 0)
(0.00497277 0 0)
(0.00498145 0 0)
(0.00498129 0 0)
(0.00498169 0 0)
)
;

boundaryField
{
    inlet
    {
        type            fixedValue;
        value           uniform (0 0 0);
    }
    outlet
    {
        type            zeroGradient;
    }
    yzfaces
    {
        type            empty;
    }
}


// ************************************************************************* //
