/*--------------------------------*- C++ -*----------------------------------*\
| =========                 |                                                 |
| \\      /  F ield         | foam-extend: Open Source CFD                    |
|  \\    /   O peration     | Version:     5.0                                |
|   \\  /    A nd           | Web:         http://www.foam-extend.org         |
|    \\/     M anipulation  |                                                 |
\*---------------------------------------------------------------------------*/
FoamFile
{
    version     2.0;
    format      ascii;
    class       volScalarField;
    location    "10";
    object      alpha.gas;
}
// * * * * * * * * * * * * * * * * * * * * * * * * * * * * * * * * * * * * * //

dimensions      [0 0 0 0 0 0 0];

internalField   nonuniform List<scalar> 
100
(
0.170638
0.158979
0.150735
0.144267
0.138531
0.13352
0.12921
0.125472
0.122599
0.119251
0.116075
0.113148
0.110688
0.109134
0.107599
0.10582
0.104094
0.102405
0.101029
0.0993511
0.0973993
0.0960017
0.0950558
0.0944632
0.0937437
0.0928924
0.0917594
0.0901872
0.088356
0.0869071
0.0860996
0.0854283
0.0846052
0.0839493
0.0836523
0.0835655
0.0829869
0.0822629
0.0813605
0.0806128
0.0798707
0.079022
0.0782052
0.0774626
0.0765203
0.0756969
0.0749839
0.0742449
0.0734905
0.0727142
0.0720221
0.0712949
0.070722
0.070269
0.0698178
0.0692096
0.0688119
0.0682199
0.0677475
0.0671078
0.0665935
0.0660327
0.0655658
0.0651164
0.0645533
0.0640976
0.0635109
0.0629205
0.0623062
0.0617031
0.0609753
0.0602621
0.0594019
0.0586271
0.0576287
0.0564335
0.0552115
0.0535351
0.0513807
0.0485057
0.0438093
0.0353771
0.0179124
0.0310973
0.0303298
0.0298971
0.0295784
0.0293249
0.0291114
0.028919
0.0287563
0.0285996
0.0284745
0.0283603
0.0282839
0.0282255
0.0282003
0.0281984
0.0282346
0.0282816
)
;

boundaryField
{
    inlet
    {
        type            fixedValue;
        value           uniform 0.2;
    }
    outlet
    {
        type            zeroGradient;
    }
    yzfaces
    {
        type            empty;
    }
}


// ************************************************************************* //
