/*--------------------------------*- C++ -*----------------------------------*\
| =========                 |                                                 |
| \\      /  F ield         | foam-extend: Open Source CFD                    |
|  \\    /   O peration     | Version:     5.0                                |
|   \\  /    A nd           | Web:         http://www.foam-extend.org         |
|    \\/     M anipulation  |                                                 |
\*---------------------------------------------------------------------------*/
FoamFile
{
    version     2.0;
    format      ascii;
    class       volScalarField;
    location    "10";
    object      Cl.water;
}
// * * * * * * * * * * * * * * * * * * * * * * * * * * * * * * * * * * * * * //

dimensions      [0 0 0 0 0 0 0];

internalField   nonuniform List<scalar> 
100
(
0.00336288
0.00469497
0.00563196
0.00636492
0.00695418
0.00751581
0.0079998
0.00841525
0.00874283
0.00904967
0.00937291
0.00973944
0.0100488
0.0103273
0.0105468
0.0107529
0.0109653
0.0111393
0.0112851
0.0114365
0.0116088
0.0118039
0.0119472
0.012052
0.012168
0.0122627
0.0123957
0.0125577
0.0127253
0.0129148
0.0130571
0.0131434
0.0132437
0.013286
0.0133232
0.0133641
0.0134355
0.0135146
0.0135812
0.0136789
0.0137709
0.0138624
0.0139441
0.0140142
0.0141081
0.0141996
0.0142928
0.01437
0.0144644
0.0145561
0.014647
0.0147247
0.0147988
0.0148721
0.0149299
0.0150092
0.0150598
0.0151189
0.0151828
0.0152368
0.015299
0.01538
0.0154321
0.0154831
0.0155503
0.0155911
0.0156337
0.0157143
0.0157877
0.0158588
0.0159504
0.016043
0.0161282
0.016233
0.0163446
0.0164844
0.0166191
0.0168181
0.0170683
0.0173921
0.0179035
0.0187983
0.0205292
0.0194161
0.0194933
0.0195363
0.0195718
0.0196029
0.0196178
0.0196368
0.0196576
0.0196824
0.0196957
0.0197088
0.0197142
0.0197207
0.0197252
0.0197271
0.0197207
0.0197215
)
;

boundaryField
{
    inlet
    {
        type            fixedValue;
        value           uniform 0;
    }
    outlet
    {
        type            zeroGradient;
    }
    yzfaces
    {
        type            empty;
    }
}


// ************************************************************************* //
