/*--------------------------------*- C++ -*----------------------------------*\
| =========                 |                                                 |
| \\      /  F ield         | foam-extend: Open Source CFD                    |
|  \\    /   O peration     | Version:     5.0                                |
|   \\  /    A nd           | Web:         http://www.foam-extend.org         |
|    \\/     M anipulation  |                                                 |
\*---------------------------------------------------------------------------*/
FoamFile
{
    version     2.0;
    format      ascii;
    class       volScalarField;
    location    "10";
    object      CO2.gas;
}
// * * * * * * * * * * * * * * * * * * * * * * * * * * * * * * * * * * * * * //

dimensions      [0 0 0 0 0 0 0];

internalField   nonuniform List<scalar> 
100
(
0.170157
0.158475
0.150057
0.143413
0.136426
0.131404
0.127072
0.123288
0.120498
0.116311
0.1128
0.110412
0.108368
0.107918
0.106852
0.105156
0.103556
0.101707
0.100234
0.0982376
0.0958542
0.0948241
0.0941602
0.09381
0.0933793
0.0924974
0.0913703
0.0896717
0.0875644
0.0862861
0.0858283
0.085207
0.0844029
0.0835601
0.0832687
0.0834028
0.0828253
0.0820592
0.0809448
0.0802568
0.0795582
0.0786761
0.0777685
0.0769633
0.0759784
0.0751563
0.0745045
0.0737332
0.0729992
0.0722365
0.0716036
0.0708498
0.0703675
0.0700184
0.069579
0.0690198
0.0686543
0.068033
0.0675984
0.0668845
0.0663726
0.0658747
0.0654199
0.06497
0.0644086
0.0639292
0.0632449
0.0626909
0.0620881
0.0614902
0.0607809
0.0601277
0.0592219
0.058513
0.0574978
0.0563236
0.0550744
0.0534309
0.0512806
0.0484112
0.043724
0.0353082
0.0178775
0.0310219
0.0302597
0.0298318
0.0295067
0.0292356
0.0290278
0.0288223
0.0286389
0.028458
0.0283111
0.0281677
0.0280544
0.0279564
0.0278803
0.0278111
0.0277787
0.0277284
)
;

boundaryField
{
    inlet
    {
        type            fixedValue;
        value           uniform 0.2;
    }
    outlet
    {
        type            zeroGradient;
    }
    yzfaces
    {
        type            empty;
    }
}


// ************************************************************************* //
