/*--------------------------------*- C++ -*----------------------------------*\
| =========                 |                                                 |
| \\      /  F ield         | foam-extend: Open Source CFD                    |
|  \\    /   O peration     | Version:     5.0                                |
|   \\  /    A nd           | Web:         http://www.foam-extend.org         |
|    \\/     M anipulation  |                                                 |
\*---------------------------------------------------------------------------*/
FoamFile
{
    version     2.0;
    format      ascii;
    class       volScalarField;
    location    "10";
    object      CO2.water;
}
// * * * * * * * * * * * * * * * * * * * * * * * * * * * * * * * * * * * * * //

dimensions      [0 0 0 0 0 0 0];

internalField   nonuniform List<scalar> 
100
(
0.000768991
0.00107405
0.00128839
0.00145604
0.00159166
0.00171999
0.00183015
0.00192424
0.0019989
0.00207028
0.00214271
0.00222695
0.00229863
0.00236196
0.00241212
0.00246063
0.00250809
0.00254779
0.00258122
0.00261571
0.0026543
0.00270028
0.00273193
0.00275463
0.00278185
0.00280349
0.00283396
0.00287132
0.00290961
0.00295273
0.00298616
0.00300591
0.00302819
0.00303817
0.00304711
0.00305636
0.00307269
0.00309027
0.00310579
0.00312941
0.00314899
0.00316947
0.00318844
0.0032052
0.00322674
0.00324753
0.0032685
0.00328694
0.00330726
0.00332775
0.00334826
0.00336592
0.00338504
0.00340154
0.00341454
0.00343262
0.00344484
0.00345865
0.00347229
0.00348549
0.00349951
0.00351656
0.00353056
0.00354137
0.00355633
0.00356646
0.00357586
0.00359353
0.00361085
0.00362709
0.00364607
0.00366832
0.00368821
0.00371275
0.00373835
0.00377048
0.00380022
0.00384605
0.00390263
0.00397632
0.00409303
0.00429748
0.00469255
0.000751631
0.000269956
9.49275e-05
3.31686e-05
1.15818e-05
4.04104e-06
1.4062e-06
4.87429e-07
1.68141e-07
5.76978e-08
1.96731e-08
6.66565e-09
2.24172e-09
7.47732e-10
2.47072e-10
8.08301e-11
2.63421e-11
)
;

boundaryField
{
    inlet
    {
        type            fixedValue;
        value           uniform 0;
    }
    outlet
    {
        type            zeroGradient;
    }
    yzfaces
    {
        type            empty;
    }
}


// ************************************************************************* //
