/*--------------------------------*- C++ -*----------------------------------*\
| =========                 |                                                 |
| \\      /  F ield         | foam-extend: Open Source CFD                    |
|  \\    /   O peration     | Version:     5.0                                |
|   \\  /    A nd           | Web:         http://www.foam-extend.org         |
|    \\/     M anipulation  |                                                 |
\*---------------------------------------------------------------------------*/
FoamFile
{
    version     2.0;
    format      ascii;
    class       volScalarField;
    location    "10";
    object      H2O.gas;
}
// * * * * * * * * * * * * * * * * * * * * * * * * * * * * * * * * * * * * * //

dimensions      [0 0 0 0 0 0 0];

internalField   nonuniform List<scalar> 
100
(
1.68631e-07
9.81688e-07
2.87227e-05
6.38378e-05
8.7097e-05
9.84021e-05
0.000102765
0.000104726
0.000106819
0.00010821
0.000109485
0.000111152
0.000111771
0.000112162
0.000109876
0.000105259
9.94956e-05
9.24386e-05
8.55642e-05
7.8492e-05
7.22881e-05
6.94149e-05
7.0509e-05
7.58074e-05
8.43395e-05
9.34013e-05
0.000101358
0.000106506
0.000108762
0.00011033
0.000124583
0.000128482
0.000131076
0.00013904
0.000146242
0.000162741
0.000161615
0.000159293
0.000156821
0.000155328
0.000153963
0.000152449
0.000150773
0.000149394
0.000147625
0.000146241
0.000144963
0.000143558
0.000142244
0.000140901
0.000139596
0.000138023
0.000136956
0.000136202
0.00013532
0.000134408
0.000133883
0.000132691
0.000131846
0.000130458
0.000129594
0.000128636
0.000127715
0.000126847
0.000125631
0.000124778
0.000123498
0.000122534
0.000121334
0.000120077
0.00011881
0.000117569
0.000115738
0.000114175
0.00011228
0.000109903
0.000107502
0.000104258
0.000100062
9.44634e-05
8.53174e-05
6.88959e-05
3.48839e-05
6.33933e-05
6.47779e-05
6.81054e-05
7.31687e-05
8.01972e-05
8.96588e-05
0.000101874
0.000117468
0.000137036
0.00016145
0.000191306
0.000227645
0.00027149
0.000324032
0.000386406
0.000460244
0.000545489
)
;

boundaryField
{
    inlet
    {
        type            fixedValue;
        value           uniform 0;
    }
    outlet
    {
        type            zeroGradient;
    }
    yzfaces
    {
        type            empty;
    }
}


// ************************************************************************* //
