/*--------------------------------*- C++ -*----------------------------------*\
| =========                 |                                                 |
| \\      /  F ield         | foam-extend: Open Source CFD                    |
|  \\    /   O peration     | Version:     5.0                                |
|   \\  /    A nd           | Web:         http://www.foam-extend.org         |
|    \\/     M anipulation  |                                                 |
\*---------------------------------------------------------------------------*/
FoamFile
{
    version     2.0;
    format      ascii;
    class       volScalarField;
    location    "10";
    object      H2O.water;
}
// * * * * * * * * * * * * * * * * * * * * * * * * * * * * * * * * * * * * * //

dimensions      [0 0 0 0 0 0 0];

internalField   nonuniform List<scalar> 
100
(
0.021786
0.0304264
0.0364984
0.0412406
0.0450692
0.0487186
0.0518443
0.0545342
0.0566511
0.0586591
0.0607438
0.0631284
0.0651324
0.0669292
0.0683458
0.0697111
0.071062
0.0721934
0.0731295
0.074114
0.0751831
0.0764899
0.0774075
0.0780343
0.0788209
0.0794385
0.0802821
0.0813328
0.0824306
0.0836565
0.0846078
0.0851557
0.0857881
0.0860985
0.0863275
0.086586
0.0870485
0.0875558
0.0879955
0.0886057
0.0892093
0.0897972
0.0902804
0.0907544
0.091403
0.0920127
0.0926116
0.0931117
0.0936822
0.0942676
0.0948542
0.0953456
0.0958987
0.096375
0.0967211
0.0972362
0.0975789
0.0979777
0.0983762
0.0987461
0.0991224
0.0996355
0.100001
0.100338
0.100755
0.101059
0.101336
0.101831
0.102303
0.102754
0.10332
0.10395
0.104502
0.105181
0.105897
0.106817
0.107677
0.108958
0.110561
0.112648
0.115954
0.121747
0.132939
0.129342
0.130426
0.130943
0.131248
0.131455
0.131643
0.131793
0.131917
0.13203
0.132129
0.132217
0.132276
0.132326
0.132348
0.132344
0.132323
0.132274
)
;

boundaryField
{
    inlet
    {
        type            fixedValue;
        value           uniform 0;
    }
    outlet
    {
        type            zeroGradient;
    }
    yzfaces
    {
        type            empty;
    }
}


// ************************************************************************* //
