/*--------------------------------*- C++ -*----------------------------------*\
| =========                 |                                                 |
| \\      /  F ield         | foam-extend: Open Source CFD                    |
|  \\    /   O peration     | Version:     5.0                                |
|   \\  /    A nd           | Web:         http://www.foam-extend.org         |
|    \\/     M anipulation  |                                                 |
\*---------------------------------------------------------------------------*/
FoamFile
{
    version     2.0;
    format      ascii;
    class       volScalarField;
    location    "10";
    object      Na.water;
}
// * * * * * * * * * * * * * * * * * * * * * * * * * * * * * * * * * * * * * //

dimensions      [0 0 0 0 0 0 0];

internalField   nonuniform List<scalar> 
100
(
0.00336161
0.00469521
0.00563358
0.00636589
0.00695907
0.0075214
0.0080013
0.00841917
0.0087481
0.00905357
0.00937612
0.00974224
0.0100512
0.0103289
0.0105498
0.0107577
0.0109668
0.0111377
0.0112797
0.0114342
0.0116029
0.0118037
0.0119467
0.0120508
0.0121681
0.0122551
0.0123894
0.012553
0.0127157
0.0129043
0.0130553
0.0131422
0.0132378
0.0132821
0.0133197
0.013362
0.0134333
0.0135129
0.0135797
0.0136761
0.0137616
0.0138529
0.0139365
0.0140099
0.0141057
0.0141958
0.0142857
0.0143628
0.0144548
0.0145448
0.0146328
0.0147144
0.0147977
0.0148712
0.0149234
0.0150078
0.0150595
0.0151202
0.0151876
0.0152398
0.0153025
0.0153758
0.015433
0.0154806
0.0155446
0.0155932
0.0156367
0.0157079
0.015778
0.0158487
0.015936
0.0160375
0.0161276
0.0162328
0.016345
0.0164861
0.0166147
0.0168133
0.0170579
0.0173784
0.0178875
0.0187806
0.0205044
0.0193928
0.0194808
0.0195288
0.0195686
0.0196056
0.0196236
0.0196496
0.0196686
0.0196875
0.019701
0.0197135
0.0197264
0.0197279
0.0197266
0.0197306
0.0197217
0.0197233
)
;

boundaryField
{
    inlet
    {
        type            fixedValue;
        value           uniform 0;
    }
    outlet
    {
        type            zeroGradient;
    }
    yzfaces
    {
        type            empty;
    }
}


// ************************************************************************* //
