/*--------------------------------*- C++ -*----------------------------------*\
| =========                 |                                                 |
| \\      /  F ield         | foam-extend: Open Source CFD                    |
|  \\    /   O peration     | Version:     5.0                                |
|   \\  /    A nd           | Web:         http://www.foam-extend.org         |
|    \\/     M anipulation  |                                                 |
\*---------------------------------------------------------------------------*/
FoamFile
{
    version     2.0;
    format      ascii;
    class       volScalarField;
    location    "10";
    object      Ns;
}
// * * * * * * * * * * * * * * * * * * * * * * * * * * * * * * * * * * * * * //

dimensions      [0 -3 0 0 1 0 0];

internalField   nonuniform List<scalar> 
100
(
0.188767
0.564995
0.488001
1.2177
0.905
0.26502
3.26736
0.551699
0.154177
0.432682
1.00067
0.743549
0.276955
0.103848
0.49506
1.2284
0.296797
0.396771
0.464081
0.00353546
1.15545
1.69114
0.723765
1.32578
0.791549
1.06187
0.118938
0.408535
0.0631243
0.879709
0.908774
0.0371627
0.414379
1.55083
1.38253
2.44364
0.853535
0.448048
0.961706
0.137609
0.531862
0.221047
0.482118
0.299489
0.844229
0.420507
0.577689
0.243975
0.520442
0.604774
0.706739
0.667748
0.0621082
0.047899
0.369447
0.0366981
0.814775
0.967372
0.317326
0.371948
0.257431
0.268842
0.111574
0.0686886
0.571637
0.38305
0.454179
1.00299
0.326138
0.247623
0.547341
0.0753842
0.579909
0.47888
0.051957
0.327396
0.62978
1.10461
1.10798
3.67649
13.016
36.9611
126.506
168.528
171.914
171.958
168.158
171.118
178.942
169.916
179.141
176.762
168.158
178.57
173.116
173.692
181.026
172.059
174.359
162.67
)
;

boundaryField
{
    inlet
    {
        type            fixedValue;
        value           uniform 0;
    }
    outlet
    {
        type            zeroGradient;
    }
    yzfaces
    {
        type            empty;
    }
}


// ************************************************************************* //
