/*--------------------------------*- C++ -*----------------------------------*\
| =========                 |                                                 |
| \\      /  F ield         | foam-extend: Open Source CFD                    |
|  \\    /   O peration     | Version:     5.0                                |
|   \\  /    A nd           | Web:         http://www.foam-extend.org         |
|    \\/     M anipulation  |                                                 |
\*---------------------------------------------------------------------------*/
FoamFile
{
    version     2.0;
    format      ascii;
    class       surfaceScalarField;
    location    "10";
    object      phi;
}
// * * * * * * * * * * * * * * * * * * * * * * * * * * * * * * * * * * * * * //

dimensions      [0 3 -1 0 0 0 0];

internalField   nonuniform List<scalar> 
99
(
1.22309e-06
1.21922e-06
1.21285e-06
1.21917e-06
1.2196e-06
1.21814e-06
1.21361e-06
1.22167e-06
1.21073e-06
1.21766e-06
1.21888e-06
1.2194e-06
1.22164e-06
1.23497e-06
1.23335e-06
1.23369e-06
1.22891e-06
1.22763e-06
1.21881e-06
1.21654e-06
1.21888e-06
1.2219e-06
1.22913e-06
1.23335e-06
1.24027e-06
1.23946e-06
1.23863e-06
1.23624e-06
1.22864e-06
1.23169e-06
1.23191e-06
1.23351e-06
1.23602e-06
1.23449e-06
1.23954e-06
1.23873e-06
1.24006e-06
1.23999e-06
1.24123e-06
1.23732e-06
1.2297e-06
1.23017e-06
1.23461e-06
1.23806e-06
1.23895e-06
1.24034e-06
1.24325e-06
1.24006e-06
1.24048e-06
1.24378e-06
1.24735e-06
1.24823e-06
1.25002e-06
1.25363e-06
1.25122e-06
1.25271e-06
1.25168e-06
1.25366e-06
1.25304e-06
1.25525e-06
1.25565e-06
1.2553e-06
1.2564e-06
1.25189e-06
1.25584e-06
1.25481e-06
1.25853e-06
1.25737e-06
1.26132e-06
1.25875e-06
1.26087e-06
1.2571e-06
1.25914e-06
1.25924e-06
1.25698e-06
1.25762e-06
1.2586e-06
1.25731e-06
1.26056e-06
1.25765e-06
1.25607e-06
1.25169e-06
1.25917e-06
1.2613e-06
1.26266e-06
1.26089e-06
1.26007e-06
1.26115e-06
1.2605e-06
1.25867e-06
1.25928e-06
1.26046e-06
1.26052e-06
1.25993e-06
1.2604e-06
1.26049e-06
1.25969e-06
1.25934e-06
1.25929e-06
)
;

boundaryField
{
    inlet
    {
        type            calculated;
        value           uniform -1.225e-06;
    }
    outlet
    {
        type            calculated;
        value           uniform 1.26132e-06;
    }
    yzfaces
    {
        type            empty;
    }
}


// ************************************************************************* //
