/*--------------------------------*- C++ -*----------------------------------*\
| =========                 |                                                 |
| \\      /  F ield         | foam-extend: Open Source CFD                    |
|  \\    /   O peration     | Version:     5.0                                |
|   \\  /    A nd           | Web:         http://www.foam-extend.org         |
|    \\/     M anipulation  |                                                 |
\*---------------------------------------------------------------------------*/
FoamFile
{
    version     2.0;
    format      ascii;
    class       volVectorField;
    location    "10";
    object      U.gas;
}
// * * * * * * * * * * * * * * * * * * * * * * * * * * * * * * * * * * * * * //

dimensions      [0 1 -1 0 0 0 0];

internalField   nonuniform List<vector> 
100
(
(0.00585085 0 0)
(0.00625331 0 0)
(0.00655338 0 0)
(0.00683101 0 0)
(0.00711554 0 0)
(0.00735891 0 0)
(0.00756387 0 0)
(0.00777782 0 0)
(0.00792903 0 0)
(0.00811436 0 0)
(0.00833558 0 0)
(0.00852643 0 0)
(0.00869502 0 0)
(0.00884984 0 0)
(0.00899771 0 0)
(0.00911949 0 0)
(0.00922584 0 0)
(0.00932558 0 0)
(0.00938577 0 0)
(0.00947062 0 0)
(0.00962142 0 0)
(0.00974409 0 0)
(0.00985425 0 0)
(0.00994307 0 0)
(0.0100472 0 0)
(0.0101424 0 0)
(0.0102313 0 0)
(0.0103552 0 0)
(0.0104712 0 0)
(0.0105674 0 0)
(0.0106373 0 0)
(0.0106996 0 0)
(0.0107924 0 0)
(0.01085 0 0)
(0.010883 0 0)
(0.0108878 0 0)
(0.010963 0 0)
(0.0110411 0 0)
(0.0111282 0 0)
(0.0111784 0 0)
(0.0111908 0 0)
(0.011236 0 0)
(0.0113297 0 0)
(0.0114292 0 0)
(0.0115386 0 0)
(0.0116187 0 0)
(0.0116995 0 0)
(0.0117645 0 0)
(0.011818 0 0)
(0.011905 0 0)
(0.0119972 0 0)
(0.0120847 0 0)
(0.0121414 0 0)
(0.0122024 0 0)
(0.0122473 0 0)
(0.012303 0 0)
(0.0123305 0 0)
(0.0123958 0 0)
(0.0124378 0 0)
(0.0125086 0 0)
(0.0125588 0 0)
(0.0126084 0 0)
(0.012647 0 0)
(0.0126659 0 0)
(0.012715 0 0)
(0.0127614 0 0)
(0.0128306 0 0)
(0.0128905 0 0)
(0.0129544 0 0)
(0.0130087 0 0)
(0.0130719 0 0)
(0.0131149 0 0)
(0.0131777 0 0)
(0.013233 0 0)
(0.0133196 0 0)
(0.0133904 0 0)
(0.0134949 0 0)
(0.0136191 0 0)
(0.0137728 0 0)
(0.0140008 0 0)
(0.0142964 0 0)
(0.0148017 0 0)
(0.013548 0 0)
(0.0128279 0 0)
(0.0124588 0 0)
(0.0122672 0 0)
(0.0121504 0 0)
(0.0120754 0 0)
(0.0120196 0 0)
(0.0119596 0 0)
(0.0119073 0 0)
(0.0118777 0 0)
(0.011844 0 0)
(0.0118102 0 0)
(0.0117778 0 0)
(0.0117595 0 0)
(0.0117401 0 0)
(0.0117281 0 0)
(0.0117234 0 0)
(0.0117428 0 0)
)
;

boundaryField
{
    inlet
    {
        type            fixedValue;
        value           uniform (0.005 0 0);
    }
    outlet
    {
        type            zeroGradient;
    }
    yzfaces
    {
        type            empty;
    }
}


// ************************************************************************* //
