/*--------------------------------*- C++ -*----------------------------------*\
| =========                 |                                                 |
| \\      /  F ield         | foam-extend: Open Source CFD                    |
|  \\    /   O peration     | Version:     5.0                                |
|   \\  /    A nd           | Web:         http://www.foam-extend.org         |
|    \\/     M anipulation  |                                                 |
\*---------------------------------------------------------------------------*/
FoamFile
{
    version     2.0;
    format      ascii;
    class       volVectorField;
    location    "10";
    object      U.water;
}
// * * * * * * * * * * * * * * * * * * * * * * * * * * * * * * * * * * * * * //

dimensions      [0 1 -1 0 0 0 0];

internalField   nonuniform List<vector> 
100
(
(2.86411e-05 0 0)
(6.6063e-05 0 0)
(9.85599e-05 0 0)
(0.000128651 0 0)
(0.000157715 0 0)
(0.000187088 0 0)
(0.000215115 0 0)
(0.000242784 0 0)
(0.000267753 0 0)
(0.000291513 0 0)
(0.000321118 0 0)
(0.000350788 0 0)
(0.000379725 0 0)
(0.000405889 0 0)
(0.000425717 0 0)
(0.000445198 0 0)
(0.00046704 0 0)
(0.000488624 0 0)
(0.000508351 0 0)
(0.000527623 0 0)
(0.000554841 0 0)
(0.000584482 0 0)
(0.00060715 0 0)
(0.000623864 0 0)
(0.000637852 0 0)
(0.000653372 0 0)
(0.00067117 0 0)
(0.000694329 0 0)
(0.000724386 0 0)
(0.000758987 0 0)
(0.000787348 0 0)
(0.000805121 0 0)
(0.000822201 0 0)
(0.000840288 0 0)
(0.000854496 0 0)
(0.000860561 0 0)
(0.000865373 0 0)
(0.000883273 0 0)
(0.000904824 0 0)
(0.000925821 0 0)
(0.000941761 0 0)
(0.000960012 0 0)
(0.000985229 0 0)
(0.0010113 0 0)
(0.00103733 0 0)
(0.00106558 0 0)
(0.00109134 0 0)
(0.00111438 0 0)
(0.00113791 0 0)
(0.00116524 0 0)
(0.00119334 0 0)
(0.00122002 0 0)
(0.00124561 0 0)
(0.00126761 0 0)
(0.00128518 0 0)
(0.00130379 0 0)
(0.00132414 0 0)
(0.00134278 0 0)
(0.00136495 0 0)
(0.00138736 0 0)
(0.00141319 0 0)
(0.00143555 0 0)
(0.00145778 0 0)
(0.00147558 0 0)
(0.00149701 0 0)
(0.00152154 0 0)
(0.00154572 0 0)
(0.00157442 0 0)
(0.00160427 0 0)
(0.0016336 0 0)
(0.00166412 0 0)
(0.00169896 0 0)
(0.00173724 0 0)
(0.00177954 0 0)
(0.00182227 0 0)
(0.00187946 0 0)
(0.00194734 0 0)
(0.00203055 0 0)
(0.00214128 0 0)
(0.00229475 0 0)
(0.00253623 0 0)
(0.00297546 0 0)
(0.00347788 0 0)
(0.00372908 0 0)
(0.0038446 0 0)
(0.00389919 0 0)
(0.00392891 0 0)
(0.00395464 0 0)
(0.00397533 0 0)
(0.00398861 0 0)
(0.00400205 0 0)
(0.00401847 0 0)
(0.00403274 0 0)
(0.00404227 0 0)
(0.0040508 0 0)
(0.00405774 0 0)
(0.00406036 0 0)
(0.00405969 0 0)
(0.0040579 0 0)
(0.00405732 0 0)
)
;

boundaryField
{
    inlet
    {
        type            fixedValue;
        value           uniform (0 0 0);
    }
    outlet
    {
        type            zeroGradient;
    }
    yzfaces
    {
        type            empty;
    }
}


// ************************************************************************* //
