/*--------------------------------*- C++ -*----------------------------------*\
| =========                 |                                                 |
| \\      /  F ield         | foam-extend: Open Source CFD                    |
|  \\    /   O peration     | Version:     5.0                                |
|   \\  /    A nd           | Web:         http://www.foam-extend.org         |
|    \\/     M anipulation  |                                                 |
\*---------------------------------------------------------------------------*/
FoamFile
{
    version     2.0;
    format      ascii;
    class       volScalarField;
    location    "4";
    object      alpha.gas;
}
// * * * * * * * * * * * * * * * * * * * * * * * * * * * * * * * * * * * * * //

dimensions      [0 0 0 0 0 0 0];

internalField   nonuniform List<scalar> 
100
(
0.151569
0.13612
0.126002
0.11793
0.11214
0.107026
0.102245
0.09878
0.095013
0.0922523
0.0898959
0.0878053
0.0860431
0.0839512
0.0821489
0.0804029
0.079021
0.0775725
0.0758894
0.0742548
0.0729814
0.0715504
0.0703362
0.0690798
0.067903
0.0667246
0.0656648
0.0646139
0.0635582
0.0624808
0.0616957
0.060873
0.0600032
0.0591288
0.0581354
0.0572437
0.0563901
0.0556153
0.0548416
0.0541053
0.05334
0.0525549
0.0517813
0.0509826
0.0502101
0.0494931
0.0487348
0.0480227
0.0472141
0.0463846
0.0456603
0.0449403
0.0441508
0.0433714
0.0425732
0.0417645
0.0409305
0.0400631
0.0391994
0.0382986
0.0373631
0.0363845
0.0353685
0.0342634
0.0330815
0.0318288
0.0304711
0.0290056
0.0274394
0.0257435
0.0239371
0.0220072
0.0200201
0.0180417
0.0161597
0.0144831
0.0130918
0.0120337
0.0112879
0.0107914
0.0104758
0.0102789
0.0101625
0.010093
0.0100545
0.0100311
0.0100206
0.0100136
0.0100107
0.0100072
0.0100069
0.0100051
0.0100027
0.00999951
0.00999854
0.0100005
0.0100011
0.0100007
0.0100009
0.0100026
)
;

boundaryField
{
    inlet
    {
        type            fixedValue;
        value           uniform 0.2;
    }
    outlet
    {
        type            zeroGradient;
    }
    yzfaces
    {
        type            empty;
    }
}


// ************************************************************************* //
