/*--------------------------------*- C++ -*----------------------------------*\
| =========                 |                                                 |
| \\      /  F ield         | foam-extend: Open Source CFD                    |
|  \\    /   O peration     | Version:     5.0                                |
|   \\  /    A nd           | Web:         http://www.foam-extend.org         |
|    \\/     M anipulation  |                                                 |
\*---------------------------------------------------------------------------*/
FoamFile
{
    version     2.0;
    format      ascii;
    class       volScalarField;
    location    "4";
    object      Cl.water;
}
// * * * * * * * * * * * * * * * * * * * * * * * * * * * * * * * * * * * * * //

dimensions      [0 0 0 0 0 0 0];

internalField   nonuniform List<scalar> 
100
(
0.0101981
0.0134456
0.0155293
0.0171478
0.0184138
0.0194837
0.0204218
0.0212051
0.0218895
0.0225821
0.0231235
0.023616
0.0240608
0.0244505
0.0249657
0.0252389
0.0255912
0.0259237
0.026197
0.026502
0.0268384
0.0271138
0.0273575
0.0275426
0.0278185
0.0280358
0.0282446
0.0284993
0.0287374
0.0289191
0.0291497
0.0293579
0.0294804
0.0296547
0.0298469
0.0300367
0.0302414
0.0303472
0.0305579
0.0307402
0.0308738
0.0310648
0.0311941
0.0313536
0.0315449
0.0316875
0.0318066
0.0319958
0.0321391
0.0322898
0.0324825
0.0326209
0.0327991
0.0329501
0.0331333
0.0333173
0.033509
0.0336767
0.0338755
0.034061
0.0342468
0.0344556
0.0346487
0.0348706
0.0351207
0.0354035
0.0356936
0.0359919
0.0363
0.0366658
0.0370776
0.037465
0.0379125
0.038317
0.038697
0.0390377
0.0393321
0.0395631
0.0396783
0.0397951
0.0398735
0.0399104
0.0399483
0.0399337
0.0399533
0.0399947
0.0400029
0.0399914
0.0400155
0.0400155
0.0400322
0.0400322
0.0400266
0.0400095
0.0399956
0.0400041
0.0400291
0.0400183
0.0400711
0.0400262
)
;

boundaryField
{
    inlet
    {
        type            fixedValue;
        value           uniform 0;
    }
    outlet
    {
        type            zeroGradient;
    }
    yzfaces
    {
        type            empty;
    }
}


// ************************************************************************* //
