/*--------------------------------*- C++ -*----------------------------------*\
| =========                 |                                                 |
| \\      /  F ield         | foam-extend: Open Source CFD                    |
|  \\    /   O peration     | Version:     5.0                                |
|   \\  /    A nd           | Web:         http://www.foam-extend.org         |
|    \\/     M anipulation  |                                                 |
\*---------------------------------------------------------------------------*/
FoamFile
{
    version     2.0;
    format      ascii;
    class       volScalarField;
    location    "4";
    object      H2O.gas;
}
// * * * * * * * * * * * * * * * * * * * * * * * * * * * * * * * * * * * * * //

dimensions      [0 0 0 0 0 0 0];

internalField   nonuniform List<scalar> 
100
(
1.3578e-13
1.04453e-12
4.84251e-12
1.78361e-11
5.59606e-11
1.56597e-10
4.03115e-10
9.83929e-10
2.23709e-09
4.92042e-09
1.03169e-08
2.07573e-08
4.04103e-08
7.53002e-08
1.38557e-07
2.44389e-07
4.22893e-07
7.13874e-07
1.16912e-06
1.88138e-06
2.9956e-06
4.66521e-06
7.16787e-06
1.07838e-05
1.60759e-05
2.35123e-05
3.39894e-05
4.8631e-05
6.86101e-05
9.54724e-05
0.000132174
0.000180593
0.000242977
0.000323709
0.000425569
0.000554654
0.000716356
0.000914395
0.00115857
0.00145384
0.00180356
0.00222059
0.00270442
0.00326546
0.00391466
0.00465045
0.00546392
0.00638488
0.00737784
0.00845013
0.00964307
0.0108926
0.0122
0.0135489
0.0149257
0.0163307
0.0177176
0.0190512
0.0203688
0.0215763
0.0226581
0.0236366
0.024436
0.0250487
0.0254422
0.0256304
0.0255467
0.025187
0.0245485
0.0236407
0.0224833
0.0210403
0.0194319
0.0176959
0.0159727
0.0143855
0.0130467
0.012014
0.0112674
0.0107798
0.0104694
0.0102736
0.0101625
0.0100883
0.0100526
0.0100374
0.0100247
0.0100115
0.010013
0.0100083
0.0100109
0.0100101
0.010006
0.00999808
0.00999348
0.00999601
0.0100021
0.00999816
0.0100101
0.0100028
)
;

boundaryField
{
    inlet
    {
        type            fixedValue;
        value           uniform 0;
    }
    outlet
    {
        type            zeroGradient;
    }
    yzfaces
    {
        type            empty;
    }
}


// ************************************************************************* //
