/*--------------------------------*- C++ -*----------------------------------*\
| =========                 |                                                 |
| \\      /  F ield         | foam-extend: Open Source CFD                    |
|  \\    /   O peration     | Version:     5.0                                |
|   \\  /    A nd           | Web:         http://www.foam-extend.org         |
|    \\/     M anipulation  |                                                 |
\*---------------------------------------------------------------------------*/
FoamFile
{
    version     2.0;
    format      ascii;
    class       volScalarField;
    location    "4";
    object      H2O.water;
}
// * * * * * * * * * * * * * * * * * * * * * * * * * * * * * * * * * * * * * //

dimensions      [0 0 0 0 0 0 0];

internalField   nonuniform List<scalar> 
100
(
0.0280493
0.0369723
0.0427208
0.0471531
0.050616
0.0535511
0.0561561
0.0583336
0.0602482
0.0621363
0.0636103
0.0649498
0.0661918
0.0672717
0.0686804
0.0694126
0.0703434
0.0712345
0.0719686
0.0728346
0.0737409
0.0745261
0.0752154
0.0757526
0.0765372
0.0771355
0.0777929
0.0784665
0.0790518
0.0795599
0.0802194
0.0807594
0.0810871
0.0815712
0.0820538
0.0825635
0.083109
0.0834235
0.0839945
0.0845097
0.0848595
0.0854047
0.0857464
0.0862169
0.0867537
0.0871521
0.0874996
0.0879616
0.088368
0.0887733
0.0893218
0.0897177
0.090194
0.0905922
0.0911114
0.091605
0.0921044
0.0925703
0.0931817
0.0936881
0.0941529
0.0947534
0.0952567
0.0959078
0.0965389
0.0973344
0.0981303
0.0989908
0.0998445
0.100844
0.101941
0.103049
0.104285
0.105376
0.106451
0.107369
0.108191
0.108807
0.109127
0.109462
0.109682
0.109817
0.109931
0.10992
0.109976
0.110066
0.110042
0.109981
0.110032
0.110006
0.110026
0.11004
0.110018
0.109967
0.109918
0.109912
0.109973
0.109938
0.110061
0.10998
)
;

boundaryField
{
    inlet
    {
        type            fixedValue;
        value           uniform 0;
    }
    outlet
    {
        type            zeroGradient;
    }
    yzfaces
    {
        type            empty;
    }
}


// ************************************************************************* //
