/*--------------------------------*- C++ -*----------------------------------*\
| =========                 |                                                 |
| \\      /  F ield         | foam-extend: Open Source CFD                    |
|  \\    /   O peration     | Version:     5.0                                |
|   \\  /    A nd           | Web:         http://www.foam-extend.org         |
|    \\/     M anipulation  |                                                 |
\*---------------------------------------------------------------------------*/
FoamFile
{
    version     2.0;
    format      ascii;
    class       volScalarField;
    location    "4";
    object      Na.water;
}
// * * * * * * * * * * * * * * * * * * * * * * * * * * * * * * * * * * * * * //

dimensions      [0 0 0 0 0 0 0];

internalField   nonuniform List<scalar> 
100
(
0.0101991
0.0134455
0.015539
0.0171512
0.0184139
0.0194719
0.020432
0.021224
0.0219195
0.0225966
0.0231347
0.0236109
0.0240578
0.02446
0.0249602
0.0252258
0.0255779
0.0259162
0.026177
0.0264866
0.0268185
0.0270958
0.0273418
0.0275378
0.027818
0.0280504
0.0282733
0.0285276
0.0287549
0.0289335
0.0291575
0.0293527
0.0294842
0.02966
0.029834
0.03003
0.0302326
0.0303412
0.0305383
0.0307199
0.0308421
0.0310558
0.0311817
0.0313433
0.0315368
0.0316803
0.0317802
0.0319514
0.0321061
0.032264
0.032465
0.0326199
0.032801
0.0329505
0.033125
0.0333149
0.0335
0.0336659
0.0338757
0.0340671
0.0342538
0.0344792
0.0346563
0.0348919
0.0351344
0.0354224
0.03571
0.0360024
0.036297
0.0366486
0.0370701
0.0374685
0.0379149
0.0383145
0.0387014
0.039038
0.0393305
0.0395535
0.0396746
0.0397907
0.0398699
0.0399021
0.0399615
0.0399646
0.0399816
0.0400288
0.0400117
0.0399733
0.0399851
0.0399935
0.0400112
0.0400175
0.0400157
0.0399968
0.0399922
0.0399968
0.0400163
0.0399942
0.0400417
0.0399966
)
;

boundaryField
{
    inlet
    {
        type            fixedValue;
        value           uniform 0;
    }
    outlet
    {
        type            zeroGradient;
    }
    yzfaces
    {
        type            empty;
    }
}


// ************************************************************************* //
