/*--------------------------------*- C++ -*----------------------------------*\
| =========                 |                                                 |
| \\      /  F ield         | foam-extend: Open Source CFD                    |
|  \\    /   O peration     | Version:     5.0                                |
|   \\  /    A nd           | Web:         http://www.foam-extend.org         |
|    \\/     M anipulation  |                                                 |
\*---------------------------------------------------------------------------*/
FoamFile
{
    version     2.0;
    format      ascii;
    class       surfaceScalarField;
    location    "4";
    object      phi;
}
// * * * * * * * * * * * * * * * * * * * * * * * * * * * * * * * * * * * * * //

dimensions      [0 3 -1 0 0 0 0];

internalField   nonuniform List<scalar> 
99
(
1.22249e-06
1.22655e-06
1.23224e-06
1.22906e-06
1.22622e-06
1.21675e-06
1.21392e-06
1.20183e-06
1.20514e-06
1.21116e-06
1.21378e-06
1.22149e-06
1.21426e-06
1.21399e-06
1.21625e-06
1.223e-06
1.2223e-06
1.22167e-06
1.22094e-06
1.22112e-06
1.21875e-06
1.22464e-06
1.22312e-06
1.22092e-06
1.2221e-06
1.22217e-06
1.21869e-06
1.21764e-06
1.21472e-06
1.22037e-06
1.21852e-06
1.21814e-06
1.21836e-06
1.21434e-06
1.21737e-06
1.22017e-06
1.2243e-06
1.22572e-06
1.23058e-06
1.2279e-06
1.22557e-06
1.22331e-06
1.22337e-06
1.22395e-06
1.22703e-06
1.22666e-06
1.22381e-06
1.22021e-06
1.22197e-06
1.22739e-06
1.2262e-06
1.22376e-06
1.22455e-06
1.2234e-06
1.22317e-06
1.22297e-06
1.2225e-06
1.22455e-06
1.22376e-06
1.22542e-06
1.22491e-06
1.22453e-06
1.22364e-06
1.22258e-06
1.22421e-06
1.22228e-06
1.22241e-06
1.2227e-06
1.22377e-06
1.22558e-06
1.22425e-06
1.22582e-06
1.22663e-06
1.22534e-06
1.22544e-06
1.22438e-06
1.22538e-06
1.22506e-06
1.22329e-06
1.22492e-06
1.2268e-06
1.22605e-06
1.22612e-06
1.22635e-06
1.22688e-06
1.22567e-06
1.22631e-06
1.22749e-06
1.22595e-06
1.2256e-06
1.22379e-06
1.223e-06
1.22413e-06
1.22427e-06
1.22533e-06
1.225e-06
1.22432e-06
1.22618e-06
1.22586e-06
)
;

boundaryField
{
    inlet
    {
        type            calculated;
        value           uniform -1.225e-06;
    }
    outlet
    {
        type            calculated;
        value           uniform 1.2261e-06;
    }
    yzfaces
    {
        type            empty;
    }
}


// ************************************************************************* //
