/*--------------------------------*- C++ -*----------------------------------*\
| =========                 |                                                 |
| \\      /  F ield         | foam-extend: Open Source CFD                    |
|  \\    /   O peration     | Version:     5.0                                |
|   \\  /    A nd           | Web:         http://www.foam-extend.org         |
|    \\/     M anipulation  |                                                 |
\*---------------------------------------------------------------------------*/
FoamFile
{
    version     2.0;
    format      ascii;
    class       surfaceScalarField;
    location    "4";
    object      phi.water;
}
// * * * * * * * * * * * * * * * * * * * * * * * * * * * * * * * * * * * * * //

dimensions      [0 3 -1 0 0 0 0];

internalField   nonuniform List<scalar> 
99
(
1.25689e-07
2.20009e-07
3.04843e-07
3.89892e-07
4.59325e-07
5.28531e-07
6.05934e-07
6.60477e-07
7.39702e-07
8.02522e-07
8.57988e-07
9.15279e-07
9.55045e-07
1.01259e-06
1.06811e-06
1.13188e-06
1.17561e-06
1.22389e-06
1.28777e-06
1.35081e-06
1.39766e-06
1.46507e-06
1.51746e-06
1.57381e-06
1.62996e-06
1.6871e-06
1.73598e-06
1.78662e-06
1.84156e-06
1.90875e-06
1.94755e-06
1.99558e-06
2.04771e-06
2.09436e-06
2.16418e-06
2.22586e-06
2.29185e-06
2.3472e-06
2.40717e-06
2.45366e-06
2.50338e-06
2.55766e-06
2.61624e-06
2.67677e-06
2.74473e-06
2.80156e-06
2.85838e-06
2.90718e-06
2.97987e-06
3.06373e-06
3.12152e-06
3.17736e-06
3.25092e-06
3.31818e-06
3.38902e-06
3.4623e-06
3.53946e-06
3.62791e-06
3.70663e-06
3.80077e-06
3.89239e-06
3.98902e-06
4.08914e-06
4.19814e-06
4.3223e-06
4.43999e-06
4.57757e-06
4.72719e-06
4.88672e-06
5.056e-06
5.21795e-06
5.395e-06
5.56319e-06
5.71024e-06
5.84234e-06
5.94029e-06
6.01954e-06
6.07137e-06
6.09666e-06
6.12254e-06
6.14278e-06
6.14453e-06
6.14894e-06
6.15315e-06
6.15377e-06
6.14675e-06
6.15291e-06
6.15969e-06
6.15089e-06
6.14885e-06
6.13856e-06
6.13486e-06
6.14253e-06
6.14597e-06
6.15234e-06
6.1487e-06
6.14465e-06
6.15143e-06
6.14904e-06
)
;

boundaryField
{
    inlet
    {
        type            fixedValue;
        value           uniform 0;
    }
    outlet
    {
        type            calculated;
        value           uniform 6.15278e-06;
    }
    yzfaces
    {
        type            empty;
    }
}


// ************************************************************************* //
