/*--------------------------------*- C++ -*----------------------------------*\
| =========                 |                                                 |
| \\      /  F ield         | foam-extend: Open Source CFD                    |
|  \\    /   O peration     | Version:     5.0                                |
|   \\  /    A nd           | Web:         http://www.foam-extend.org         |
|    \\/     M anipulation  |                                                 |
\*---------------------------------------------------------------------------*/
FoamFile
{
    version     2.0;
    format      ascii;
    class       volVectorField;
    location    "4";
    object      U.gas;
}
// * * * * * * * * * * * * * * * * * * * * * * * * * * * * * * * * * * * * * //

dimensions      [0 1 -1 0 0 0 0];

internalField   nonuniform List<vector> 
100
(
(0.00657188 0 0)
(0.00727702 0 0)
(0.00783913 0 0)
(0.00832282 0 0)
(0.0086664 0 0)
(0.00896814 0 0)
(0.00926409 0 0)
(0.00945492 0 0)
(0.00971364 0 0)
(0.00995931 0 0)
(0.010182 0 0)
(0.0103958 0 0)
(0.0105407 0 0)
(0.0106928 0 0)
(0.0108514 0 0)
(0.0110427 0 0)
(0.0111823 0 0)
(0.0113063 0 0)
(0.0114566 0 0)
(0.011598 0 0)
(0.0116879 0 0)
(0.0118365 0 0)
(0.0119569 0 0)
(0.012049 0 0)
(0.0121408 0 0)
(0.0122484 0 0)
(0.0123136 0 0)
(0.0123757 0 0)
(0.0124398 0 0)
(0.0125393 0 0)
(0.0126019 0 0)
(0.012653 0 0)
(0.0127201 0 0)
(0.0127643 0 0)
(0.0128345 0 0)
(0.012915 0 0)
(0.0130017 0 0)
(0.0130703 0 0)
(0.0131479 0 0)
(0.0131962 0 0)
(0.0132109 0 0)
(0.0132237 0 0)
(0.0132429 0 0)
(0.0132812 0 0)
(0.0133231 0 0)
(0.0133518 0 0)
(0.0133581 0 0)
(0.0133299 0 0)
(0.0133452 0 0)
(0.0133958 0 0)
(0.0134065 0 0)
(0.0133841 0 0)
(0.0133773 0 0)
(0.0133598 0 0)
(0.0133364 0 0)
(0.0133104 0 0)
(0.0132778 0 0)
(0.0132491 0 0)
(0.0132046 0 0)
(0.0131556 0 0)
(0.0130937 0 0)
(0.0130086 0 0)
(0.0129053 0 0)
(0.0127842 0 0)
(0.0126471 0 0)
(0.0124765 0 0)
(0.012265 0 0)
(0.0120176 0 0)
(0.0117198 0 0)
(0.0113689 0 0)
(0.0109239 0 0)
(0.0103927 0 0)
(0.00977013 0 0)
(0.00905248 0 0)
(0.00827064 0 0)
(0.00747592 0 0)
(0.00673412 0 0)
(0.00609866 0 0)
(0.00559993 0 0)
(0.00524869 0 0)
(0.00502209 0 0)
(0.00487628 0 0)
(0.00478304 0 0)
(0.00472954 0 0)
(0.00469902 0 0)
(0.00467955 0 0)
(0.00466734 0 0)
(0.00466538 0 0)
(0.00466175 0 0)
(0.00465737 0 0)
(0.00465111 0 0)
(0.00464594 0 0)
(0.00464602 0 0)
(0.00464729 0 0)
(0.00464777 0 0)
(0.00464881 0 0)
(0.00464788 0 0)
(0.00465074 0 0)
(0.00465352 0 0)
(0.00465423 0 0)
)
;

boundaryField
{
    inlet
    {
        type            fixedValue;
        value           uniform (0.005 0 0);
    }
    outlet
    {
        type            zeroGradient;
    }
    yzfaces
    {
        type            empty;
    }
}


// ************************************************************************* //
