/*--------------------------------*- C++ -*----------------------------------*\
| =========                 |                                                 |
| \\      /  F ield         | foam-extend: Open Source CFD                    |
|  \\    /   O peration     | Version:     5.0                                |
|   \\  /    A nd           | Web:         http://www.foam-extend.org         |
|    \\/     M anipulation  |                                                 |
\*---------------------------------------------------------------------------*/
FoamFile
{
    version     2.0;
    format      ascii;
    class       volVectorField;
    location    "4";
    object      U.water;
}
// * * * * * * * * * * * * * * * * * * * * * * * * * * * * * * * * * * * * * //

dimensions      [0 1 -1 0 0 0 0];

internalField   nonuniform List<vector> 
100
(
(5.94832e-05 0 0)
(0.00014185 0 0)
(0.000214041 0 0)
(0.000281432 0 0)
(0.000344951 0 0)
(0.000401298 0 0)
(0.000459298 0 0)
(0.000514369 0 0)
(0.000566895 0 0)
(0.000626268 0 0)
(0.000676182 0 0)
(0.000723617 0 0)
(0.00076547 0 0)
(0.000805213 0 0)
(0.000852807 0 0)
(0.000900899 0 0)
(0.000945962 0 0)
(0.000984089 0 0)
(0.00102767 0 0)
(0.001078 0 0)
(0.00112476 0 0)
(0.00117084 0 0)
(0.00121919 0 0)
(0.00126202 0 0)
(0.0013078 0 0)
(0.00135355 0 0)
(0.00139725 0 0)
(0.00143867 0 0)
(0.00148158 0 0)
(0.00153033 0 0)
(0.0015761 0 0)
(0.00161242 0 0)
(0.00165177 0 0)
(0.00169091 0 0)
(0.00173682 0 0)
(0.00179053 0 0)
(0.00184233 0 0)
(0.00189145 0 0)
(0.0019394 0 0)
(0.00198415 0 0)
(0.00202336 0 0)
(0.00206568 0 0)
(0.00211117 0 0)
(0.00215945 0 0)
(0.00221273 0 0)
(0.00226359 0 0)
(0.00230848 0 0)
(0.00235182 0 0)
(0.00240027 0 0)
(0.00246315 0 0)
(0.00252247 0 0)
(0.00256995 0 0)
(0.00262236 0 0)
(0.00267977 0 0)
(0.00273668 0 0)
(0.00279661 0 0)
(0.00285839 0 0)
(0.00292613 0 0)
(0.00299561 0 0)
(0.0030663 0 0)
(0.00314145 0 0)
(0.00321765 0 0)
(0.00329711 0 0)
(0.00338143 0 0)
(0.00347659 0 0)
(0.00357645 0 0)
(0.0036814 0 0)
(0.00379794 0 0)
(0.00392312 0 0)
(0.00405757 0 0)
(0.00419421 0 0)
(0.00433342 0 0)
(0.00447495 0 0)
(0.00460261 0 0)
(0.00471424 0 0)
(0.00480632 0 0)
(0.00487803 0 0)
(0.00493062 0 0)
(0.00496053 0 0)
(0.00498196 0 0)
(0.0050025 0 0)
(0.00501285 0 0)
(0.00501627 0 0)
(0.00501967 0 0)
(0.00502288 0 0)
(0.0050224 0 0)
(0.00502179 0 0)
(0.00502579 0 0)
(0.00502519 0 0)
(0.00502137 0 0)
(0.00501706 0 0)
(0.00501173 0 0)
(0.00501245 0 0)
(0.00501512 0 0)
(0.00501768 0 0)
(0.0050192 0 0)
(0.00501707 0 0)
(0.00501945 0 0)
(0.00502261 0 0)
(0.00502241 0 0)
)
;

boundaryField
{
    inlet
    {
        type            fixedValue;
        value           uniform (0 0 0);
    }
    outlet
    {
        type            zeroGradient;
    }
    yzfaces
    {
        type            empty;
    }
}


// ************************************************************************* //
