/*--------------------------------*- C++ -*----------------------------------*\
| =========                 |                                                 |
| \\      /  F ield         | foam-extend: Open Source CFD                    |
|  \\    /   O peration     | Version:     5.0                                |
|   \\  /    A nd           | Web:         http://www.foam-extend.org         |
|    \\/     M anipulation  |                                                 |
\*---------------------------------------------------------------------------*/
FoamFile
{
    version     2.0;
    format      ascii;
    class       volScalarField;
    location    "9.68857";
    object      CO2.water;
}
// * * * * * * * * * * * * * * * * * * * * * * * * * * * * * * * * * * * * * //

dimensions      [0 0 0 0 0 0 0];

internalField   nonuniform List<scalar> 
100
(
5.69902e-05
8.60875e-05
1.01043e-05
1.31362e-06
2.26178e-07
4.38542e-08
8.60145e-09
1.65876e-09
3.1349e-10
5.81657e-11
1.06207e-11
1.91221e-12
3.40029e-13
5.97864e-14
1.04038e-14
1.79321e-15
3.06427e-16
5.19469e-17
8.73978e-18
1.45997e-18
2.42257e-19
3.9948e-20
6.54802e-21
1.06706e-21
1.72943e-22
2.78848e-23
4.47369e-24
7.14193e-25
1.13493e-25
1.79558e-26
2.82829e-27
4.43586e-28
6.93006e-29
1.07836e-29
1.67125e-30
2.58077e-31
3.97074e-32
6.08737e-33
9.29999e-34
1.41621e-34
2.14921e-35
3.2511e-36
4.90303e-37
7.37084e-38
1.10472e-38
1.65099e-39
2.46007e-40
3.65531e-41
5.41644e-42
8.00301e-43
1.17943e-43
1.73356e-44
2.54125e-45
3.71595e-46
5.42017e-47
7.88569e-48
1.14462e-48
1.65737e-49
2.3941e-50
3.4505e-51
4.96121e-52
7.11792e-53
1.01894e-53
1.45537e-54
2.07445e-55
2.95044e-56
4.18727e-57
5.93102e-58
8.38294e-59
1.18249e-59
1.66459e-60
2.33844e-61
3.2794e-62
4.59004e-63
6.41238e-64
8.94133e-65
1.24433e-65
1.72869e-66
2.39711e-67
3.31809e-68
4.58484e-69
6.3243e-70
8.70941e-71
1.19724e-71
1.64292e-72
2.25077e-73
3.07861e-74
4.20397e-75
5.73137e-76
7.80079e-77
1.06025e-77
1.4386e-78
1.94925e-79
2.6368e-80
3.5615e-81
4.80436e-82
6.47059e-83
8.70263e-84
1.16873e-84
1.56726e-85
)
;

boundaryField
{
    inlet
    {
        type            fixedValue;
        value           uniform 0;
    }
    outlet
    {
        type            zeroGradient;
    }
    yzfaces
    {
        type            empty;
    }
}


// ************************************************************************* //
