/*--------------------------------*- C++ -*----------------------------------*\
| =========                 |                                                 |
| \\      /  F ield         | foam-extend: Open Source CFD                    |
|  \\    /   O peration     | Version:     5.0                                |
|   \\  /    A nd           | Web:         http://www.foam-extend.org         |
|    \\/     M anipulation  |                                                 |
\*---------------------------------------------------------------------------*/
FoamFile
{
    version     2.0;
    format      ascii;
    class       volScalarField;
    location    "9";
    object      alpha.gas;
}
// * * * * * * * * * * * * * * * * * * * * * * * * * * * * * * * * * * * * * //

dimensions      [0 0 0 0 0 0 0];

internalField   nonuniform List<scalar> 
100
(
0.167208
0.155819
0.148325
0.144749
0.139122
0.133634
0.128107
0.12497
0.124218
0.122027
0.118774
0.115021
0.11201
0.108885
0.106403
0.104151
0.101801
0.0999266
0.0979513
0.0959449
0.0945606
0.0932482
0.0918412
0.0906471
0.0892944
0.0879812
0.0871429
0.0868203
0.0864223
0.0861644
0.0854487
0.0847798
0.0841907
0.0833976
0.0824049
0.0813742
0.0805103
0.079442
0.0784933
0.077452
0.0766462
0.0759727
0.0753942
0.0749051
0.0743975
0.0738672
0.0732019
0.0725774
0.0720216
0.0713363
0.0706513
0.0701446
0.069757
0.0692523
0.0686861
0.0681563
0.0676118
0.0671296
0.0665194
0.0660381
0.0655493
0.0651136
0.0646843
0.0642635
0.0638068
0.0633237
0.0629099
0.0624335
0.062011
0.0616791
0.0612766
0.0608689
0.0605348
0.060091
0.0596967
0.0592479
0.0588269
0.058447
0.0581063
0.0578457
0.0575494
0.0571841
0.0567521
0.0564147
0.0561085
0.0558075
0.0555033
0.0551675
0.0548337
0.0546118
0.0543798
0.0540914
0.053773
0.0534539
0.053241
0.0530333
0.052711
0.0523501
0.0520588
0.0516617
)
;

boundaryField
{
    inlet
    {
        type            fixedValue;
        value           uniform 0.2;
    }
    outlet
    {
        type            zeroGradient;
    }
    yzfaces
    {
        type            empty;
    }
}


// ************************************************************************* //
