/*--------------------------------*- C++ -*----------------------------------*\
| =========                 |                                                 |
| \\      /  F ield         | foam-extend: Open Source CFD                    |
|  \\    /   O peration     | Version:     5.0                                |
|   \\  /    A nd           | Web:         http://www.foam-extend.org         |
|    \\/     M anipulation  |                                                 |
\*---------------------------------------------------------------------------*/
FoamFile
{
    version     2.0;
    format      ascii;
    class       volScalarField;
    location    "9";
    object      alpha.gas;
}
// * * * * * * * * * * * * * * * * * * * * * * * * * * * * * * * * * * * * * //

dimensions      [0 0 0 0 0 0 0];

internalField   nonuniform List<scalar> 
100
(
0.167274
0.155837
0.148265
0.144188
0.13904
0.133099
0.127621
0.124359
0.124384
0.12265
0.118526
0.115033
0.111633
0.108578
0.106342
0.103979
0.101826
0.0997713
0.0976807
0.0966007
0.0951442
0.0937743
0.0921595
0.0908268
0.089327
0.0883306
0.0874996
0.0869037
0.0863683
0.0857713
0.0852376
0.0845582
0.0839585
0.0831999
0.0822267
0.0811588
0.0800443
0.0789497
0.0781934
0.0773794
0.076692
0.0759884
0.0752343
0.0747555
0.0740974
0.0733829
0.0728225
0.0722313
0.0717214
0.0711088
0.0706293
0.0701071
0.06955
0.06913
0.0687481
0.0681114
0.0676243
0.0671321
0.0666532
0.0661181
0.0656566
0.06517
0.0647231
0.0642815
0.0639163
0.0635714
0.0630374
0.0625636
0.0620505
0.061681
0.0613064
0.0610079
0.0605848
0.0601371
0.0597056
0.059262
0.0589035
0.0585449
0.058277
0.0578377
0.05743
0.0570549
0.0567345
0.0564128
0.0561583
0.0557813
0.0554895
0.0551474
0.0548399
0.0545789
0.0543144
0.0540132
0.0536977
0.0533934
0.0531667
0.0528682
0.0525492
0.0522885
0.0520283
0.051655
)
;

boundaryField
{
    inlet
    {
        type            fixedValue;
        value           uniform 0.2;
    }
    outlet
    {
        type            zeroGradient;
    }
    yzfaces
    {
        type            empty;
    }
}


// ************************************************************************* //
