/*--------------------------------*- C++ -*----------------------------------*\
| =========                 |                                                 |
| \\      /  F ield         | foam-extend: Open Source CFD                    |
|  \\    /   O peration     | Version:     5.0                                |
|   \\  /    A nd           | Web:         http://www.foam-extend.org         |
|    \\/     M anipulation  |                                                 |
\*---------------------------------------------------------------------------*/
FoamFile
{
    version     2.0;
    format      ascii;
    class       volScalarField;
    location    "9";
    object      Cl.water;
}
// * * * * * * * * * * * * * * * * * * * * * * * * * * * * * * * * * * * * * //

dimensions      [0 0 0 0 0 0 0];

internalField   nonuniform List<scalar> 
100
(
0.00613595
0.00886153
0.0109489
0.0126992
0.0136266
0.0143827
0.015404
0.0160766
0.0168686
0.0169669
0.0170036
0.0175856
0.0180045
0.0185345
0.0189599
0.0192335
0.019665
0.020049
0.0203951
0.0207969
0.0211362
0.0213909
0.0216505
0.0218223
0.0221368
0.0225831
0.0229198
0.0231941
0.0232706
0.0233496
0.0234594
0.023565
0.0237698
0.0238191
0.0238345
0.0239266
0.0242101
0.0244196
0.0246468
0.0248198
0.0250517
0.0252219
0.0254012
0.0255833
0.0256624
0.0257609
0.0258772
0.025964
0.0260002
0.0261064
0.0262631
0.0263617
0.0264794
0.0265939
0.0266929
0.0267934
0.0269939
0.0270552
0.0271376
0.0272305
0.0273479
0.0274165
0.0274913
0.0275899
0.0277004
0.0277988
0.0278937
0.0280348
0.0281373
0.0282736
0.0283663
0.0284874
0.0285386
0.0286628
0.0287192
0.0287921
0.0289344
0.0289746
0.029015
0.0290098
0.0291592
0.0292807
0.0293583
0.0294485
0.0295473
0.0295569
0.0296022
0.0296527
0.0297003
0.0297769
0.029825
0.0298464
0.0299212
0.0299824
0.0300688
0.030116
0.0301965
0.0302641
0.0303194
0.0303189
)
;

boundaryField
{
    inlet
    {
        type            fixedValue;
        value           uniform 0;
    }
    outlet
    {
        type            zeroGradient;
    }
    yzfaces
    {
        type            empty;
    }
}


// ************************************************************************* //
