/*--------------------------------*- C++ -*----------------------------------*\
| =========                 |                                                 |
| \\      /  F ield         | foam-extend: Open Source CFD                    |
|  \\    /   O peration     | Version:     5.0                                |
|   \\  /    A nd           | Web:         http://www.foam-extend.org         |
|    \\/     M anipulation  |                                                 |
\*---------------------------------------------------------------------------*/
FoamFile
{
    version     2.0;
    format      ascii;
    class       volScalarField;
    location    "9";
    object      H2O.gas;
}
// * * * * * * * * * * * * * * * * * * * * * * * * * * * * * * * * * * * * * //

dimensions      [0 0 0 0 0 0 0];

internalField   nonuniform List<scalar> 
100
(
0.000325762
0.000303487
0.000288741
0.000280802
0.000270776
0.000259207
0.000248538
0.000242185
0.000242234
0.000238857
0.000230826
0.000224024
0.000217402
0.000211452
0.000207098
0.000202495
0.000198304
0.000194302
0.00019023
0.000188127
0.000185291
0.000182623
0.000179478
0.000176882
0.000173962
0.000172021
0.000170403
0.000169242
0.0001682
0.000167037
0.000165998
0.000164675
0.000163507
0.000162029
0.000160134
0.000158054
0.000155884
0.000153752
0.000152279
0.000150694
0.000149355
0.000147985
0.000146517
0.000145584
0.000144303
0.000142911
0.00014182
0.000140668
0.000139675
0.000138482
0.000137548
0.000136532
0.000135447
0.000134629
0.000133885
0.000132645
0.000131696
0.000130738
0.000129805
0.000128763
0.000127864
0.000126917
0.000126046
0.000125186
0.000124475
0.000123803
0.000122764
0.000121841
0.000120842
0.000120122
0.000119392
0.000118811
0.000117987
0.000117115
0.000116275
0.000115411
0.000114713
0.000114015
0.000113493
0.000112637
0.000111843
0.000111113
0.000110489
0.000109862
0.000109367
0.000108633
0.000108064
0.000107398
0.000106799
0.000106291
0.000105776
0.000105189
0.000104575
0.000103982
0.000103541
0.000102959
0.000102338
0.00010183
0.000101324
0.000100597
)
;

boundaryField
{
    inlet
    {
        type            fixedValue;
        value           uniform 0;
    }
    outlet
    {
        type            zeroGradient;
    }
    yzfaces
    {
        type            empty;
    }
}


// ************************************************************************* //
