/*--------------------------------*- C++ -*----------------------------------*\
| =========                 |                                                 |
| \\      /  F ield         | foam-extend: Open Source CFD                    |
|  \\    /   O peration     | Version:     5.0                                |
|   \\  /    A nd           | Web:         http://www.foam-extend.org         |
|    \\/     M anipulation  |                                                 |
\*---------------------------------------------------------------------------*/
FoamFile
{
    version     2.0;
    format      ascii;
    class       volScalarField;
    location    "9";
    object      H2O.gas;
}
// * * * * * * * * * * * * * * * * * * * * * * * * * * * * * * * * * * * * * //

dimensions      [0 0 0 0 0 0 0];

internalField   nonuniform List<scalar> 
100
(
0.000325632
0.000303453
0.000288858
0.000281895
0.000270937
0.000260249
0.000249484
0.000243375
0.000241912
0.000237645
0.000231308
0.000224001
0.000218136
0.000212051
0.000207216
0.000202831
0.000198255
0.000194604
0.000190757
0.00018685
0.000184154
0.000181598
0.000178858
0.000176532
0.000173898
0.000171341
0.000169708
0.00016908
0.000168305
0.000167803
0.000166409
0.000165106
0.000163959
0.000162414
0.000160481
0.000158474
0.000156791
0.000154711
0.000152863
0.000150835
0.000149266
0.000147955
0.000146828
0.000145875
0.000144887
0.000143854
0.000142558
0.000141342
0.00014026
0.000138925
0.000137591
0.000136605
0.00013585
0.000134867
0.000133764
0.000132732
0.000131672
0.000130733
0.000129545
0.000128607
0.000127655
0.000126807
0.000125971
0.000125151
0.000124262
0.000123321
0.000122515
0.000121587
0.000120765
0.000120118
0.000119334
0.00011854
0.00011789
0.000117025
0.000116258
0.000115384
0.000114564
0.000113824
0.00011316
0.000112653
0.000112076
0.000111364
0.000110523
0.000109866
0.00010927
0.000108684
0.000108091
0.000107437
0.000106787
0.000106355
0.000105903
0.000105341
0.000104721
0.0001041
0.000103685
0.000103281
0.000102653
0.00010195
0.000101383
0.00010061
)
;

boundaryField
{
    inlet
    {
        type            fixedValue;
        value           uniform 0;
    }
    outlet
    {
        type            zeroGradient;
    }
    yzfaces
    {
        type            empty;
    }
}


// ************************************************************************* //
