/*--------------------------------*- C++ -*----------------------------------*\
| =========                 |                                                 |
| \\      /  F ield         | foam-extend: Open Source CFD                    |
|  \\    /   O peration     | Version:     5.0                                |
|   \\  /    A nd           | Web:         http://www.foam-extend.org         |
|    \\/     M anipulation  |                                                 |
\*---------------------------------------------------------------------------*/
FoamFile
{
    version     2.0;
    format      ascii;
    class       volScalarField;
    location    "9";
    object      Na.water;
}
// * * * * * * * * * * * * * * * * * * * * * * * * * * * * * * * * * * * * * //

dimensions      [0 0 0 0 0 0 0];

internalField   nonuniform List<scalar> 
100
(
0.0061364
0.00886777
0.01096
0.0127118
0.013632
0.0143815
0.015408
0.0160734
0.0168697
0.0169688
0.0170057
0.0175909
0.0179986
0.0185195
0.0189495
0.0192357
0.0196805
0.0200578
0.0204043
0.0208037
0.0211302
0.0213958
0.0216556
0.0218333
0.022155
0.0226086
0.0229401
0.0232199
0.0232988
0.0233735
0.0234812
0.0235751
0.023769
0.0238069
0.0238353
0.0239235
0.0242109
0.0244262
0.0246483
0.0248226
0.0250393
0.0252065
0.0253901
0.0255679
0.0256458
0.0257443
0.0258605
0.0259533
0.0259918
0.0260965
0.0262616
0.026358
0.0264731
0.0265753
0.0266805
0.0267892
0.0269992
0.0270666
0.0271459
0.0272314
0.0273515
0.0274328
0.0275061
0.027597
0.0277045
0.0277934
0.0278877
0.0280107
0.0281098
0.0282363
0.0283282
0.0284496
0.028498
0.0286203
0.0286786
0.028753
0.0288942
0.0289475
0.0289962
0.028997
0.0291557
0.0292712
0.0293421
0.0294406
0.0295511
0.0295645
0.0296184
0.0296679
0.029729
0.0298065
0.0298433
0.0298546
0.029927
0.0299942
0.0300753
0.0301302
0.0302223
0.0302791
0.0303354
0.0303428
)
;

boundaryField
{
    inlet
    {
        type            fixedValue;
        value           uniform 0;
    }
    outlet
    {
        type            zeroGradient;
    }
    yzfaces
    {
        type            empty;
    }
}


// ************************************************************************* //
