/*--------------------------------*- C++ -*----------------------------------*\
| =========                 |                                                 |
| \\      /  F ield         | foam-extend: Open Source CFD                    |
|  \\    /   O peration     | Version:     5.0                                |
|   \\  /    A nd           | Web:         http://www.foam-extend.org         |
|    \\/     M anipulation  |                                                 |
\*---------------------------------------------------------------------------*/
FoamFile
{
    version     2.0;
    format      ascii;
    class       surfaceScalarField;
    location    "9";
    object      phi;
}
// * * * * * * * * * * * * * * * * * * * * * * * * * * * * * * * * * * * * * //

dimensions      [0 3 -1 0 0 0 0];

internalField   nonuniform List<scalar> 
99
(
1.2193e-06
1.22378e-06
1.22836e-06
1.21308e-06
1.21191e-06
1.19921e-06
1.2057e-06
1.20078e-06
1.18145e-06
1.16764e-06
1.15977e-06
1.14768e-06
1.15399e-06
1.15314e-06
1.16073e-06
1.15277e-06
1.15342e-06
1.15302e-06
1.1559e-06
1.15532e-06
1.15603e-06
1.14906e-06
1.14943e-06
1.14212e-06
1.14632e-06
1.13865e-06
1.14078e-06
1.14487e-06
1.14304e-06
1.13887e-06
1.1351e-06
1.13572e-06
1.13274e-06
1.12746e-06
1.12505e-06
1.11677e-06
1.12051e-06
1.11918e-06
1.12364e-06
1.12341e-06
1.12091e-06
1.12027e-06
1.1229e-06
1.12384e-06
1.12491e-06
1.12372e-06
1.12357e-06
1.12413e-06
1.12634e-06
1.12527e-06
1.12545e-06
1.12488e-06
1.12874e-06
1.13257e-06
1.12709e-06
1.12753e-06
1.1256e-06
1.12644e-06
1.12409e-06
1.12692e-06
1.12823e-06
1.13002e-06
1.13191e-06
1.13228e-06
1.1343e-06
1.13116e-06
1.13206e-06
1.12971e-06
1.13172e-06
1.13116e-06
1.13109e-06
1.12782e-06
1.12652e-06
1.12335e-06
1.12244e-06
1.12098e-06
1.12149e-06
1.12104e-06
1.12156e-06
1.12113e-06
1.12351e-06
1.12597e-06
1.12646e-06
1.12442e-06
1.12334e-06
1.12327e-06
1.11835e-06
1.11999e-06
1.12042e-06
1.12003e-06
1.12192e-06
1.12161e-06
1.12235e-06
1.12295e-06
1.11944e-06
1.11664e-06
1.11384e-06
1.11179e-06
1.10814e-06
)
;

boundaryField
{
    inlet
    {
        type            calculated;
        value           uniform -1.225e-06;
    }
    outlet
    {
        type            calculated;
        value           uniform 1.10578e-06;
    }
    yzfaces
    {
        type            empty;
    }
}


// ************************************************************************* //
