/*--------------------------------*- C++ -*----------------------------------*\
| =========                 |                                                 |
| \\      /  F ield         | foam-extend: Open Source CFD                    |
|  \\    /   O peration     | Version:     5.0                                |
|   \\  /    A nd           | Web:         http://www.foam-extend.org         |
|    \\/     M anipulation  |                                                 |
\*---------------------------------------------------------------------------*/
FoamFile
{
    version     2.0;
    format      ascii;
    class       surfaceScalarField;
    location    "9";
    object      phi.water;
}
// * * * * * * * * * * * * * * * * * * * * * * * * * * * * * * * * * * * * * //

dimensions      [0 3 -1 0 0 0 0];

internalField   nonuniform List<scalar> 
99
(
6.92367e-08
1.17132e-07
1.58737e-07
1.76173e-07
2.09461e-07
2.46851e-07
2.95556e-07
3.30144e-07
3.3563e-07
3.53724e-07
3.83794e-07
4.2665e-07
4.62042e-07
5.08123e-07
5.47869e-07
5.81583e-07
6.26544e-07
6.61157e-07
7.00739e-07
7.43389e-07
7.70528e-07
7.99947e-07
8.3931e-07
8.66556e-07
8.99555e-07
9.36498e-07
9.67011e-07
9.73176e-07
9.80528e-07
9.82253e-07
1.00454e-06
1.02844e-06
1.04361e-06
1.0673e-06
1.10103e-06
1.13489e-06
1.15962e-06
1.19177e-06
1.22042e-06
1.25873e-06
1.28896e-06
1.31465e-06
1.33461e-06
1.35071e-06
1.37474e-06
1.39058e-06
1.41574e-06
1.44144e-06
1.46178e-06
1.48961e-06
1.51909e-06
1.54307e-06
1.55948e-06
1.58138e-06
1.6087e-06
1.63063e-06
1.65994e-06
1.68392e-06
1.71388e-06
1.74482e-06
1.76835e-06
1.79441e-06
1.81554e-06
1.84238e-06
1.86154e-06
1.89639e-06
1.92082e-06
1.95001e-06
1.97825e-06
1.99698e-06
2.01786e-06
2.03548e-06
2.05036e-06
2.07793e-06
2.09771e-06
2.12669e-06
2.15415e-06
2.18515e-06
2.20816e-06
2.21857e-06
2.2327e-06
2.25495e-06
2.28777e-06
2.31506e-06
2.33217e-06
2.34839e-06
2.37077e-06
2.40027e-06
2.42764e-06
2.43644e-06
2.44449e-06
2.45813e-06
2.48638e-06
2.51162e-06
2.52679e-06
2.53461e-06
2.555e-06
2.58345e-06
2.59748e-06
)
;

boundaryField
{
    inlet
    {
        type            fixedValue;
        value           uniform 0;
    }
    outlet
    {
        type            calculated;
        value           uniform 2.6364e-06;
    }
    yzfaces
    {
        type            empty;
    }
}


// ************************************************************************* //
