/*--------------------------------*- C++ -*----------------------------------*\
| =========                 |                                                 |
| \\      /  F ield         | foam-extend: Open Source CFD                    |
|  \\    /   O peration     | Version:     5.0                                |
|   \\  /    A nd           | Web:         http://www.foam-extend.org         |
|    \\/     M anipulation  |                                                 |
\*---------------------------------------------------------------------------*/
FoamFile
{
    version     2.0;
    format      ascii;
    class       volScalarField;
    location    "0.444226";
    object      alpha.gas;
}
// * * * * * * * * * * * * * * * * * * * * * * * * * * * * * * * * * * * * * //

dimensions      [0 0 0 0 0 0 0];

internalField   nonuniform List<scalar> 
100
(
0.0857461
0.0679827
0.0578735
0.0336301
0.036367
0.0355852
0.0330701
0.0298158
0.026266
0.0227011
0.0193525
0.0164196
0.014076
0.0124053
0.0113323
0.0107069
0.010364
0.0101866
0.0100935
0.0100454
0.0100219
0.0100107
0.0100041
0.0100021
0.0100009
0.0099999
0.0100001
0.00999985
0.0100006
0.010001
0.00999977
0.00999956
0.0100016
0.0100009
0.0100006
0.0100007
0.00999979
0.00999921
0.00999904
0.0100009
0.0099992
0.0099994
0.00999728
0.00999842
0.0099974
0.01
0.010001
0.01
0.00999917
0.0099981
0.00999978
0.00999948
0.00999867
0.0100001
0.0100012
0.00999884
0.00999991
0.0100006
0.0100011
0.0100001
0.0100008
0.0100015
0.00999992
0.0100017
0.0100001
0.01
0.0100013
0.00999997
0.00999988
0.0100003
0.00999939
0.00999853
0.0100002
0.0100017
0.0100031
0.00999955
0.0100006
0.0100006
0.0100015
0.0100011
0.0100018
0.0100038
0.0100038
0.01
0.0100001
0.0100001
0.00999969
0.00999973
0.00999786
0.00999786
0.00999746
0.00999685
0.00999721
0.00999909
0.00999861
0.00999953
0.00999905
0.00999992
0.00999981
0.0100017
)
;

boundaryField
{
    inlet
    {
        type            fixedValue;
        value           uniform 0.2;
    }
    outlet
    {
        type            zeroGradient;
    }
    yzfaces
    {
        type            empty;
    }
}


// ************************************************************************* //
