/*--------------------------------*- C++ -*----------------------------------*\
| =========                 |                                                 |
| \\      /  F ield         | foam-extend: Open Source CFD                    |
|  \\    /   O peration     | Version:     5.0                                |
|   \\  /    A nd           | Web:         http://www.foam-extend.org         |
|    \\/     M anipulation  |                                                 |
\*---------------------------------------------------------------------------*/
FoamFile
{
    version     2.0;
    format      ascii;
    class       volScalarField;
    location    "0.444226";
    object      Cl.water;
}
// * * * * * * * * * * * * * * * * * * * * * * * * * * * * * * * * * * * * * //

dimensions      [0 0 0 0 0 0 0];

internalField   nonuniform List<scalar> 
100
(
0
0.0103504
0.0151514
0.00154363
0.0159026
0.0191283
0.0200213
0.0205747
0.0210239
0.0214669
0.0218676
0.0222144
0.022498
0.0227065
0.0228202
0.0229352
0.0229669
0.02299
0.0229927
0.0229945
0.0229864
0.0229915
0.0230041
0.0229777
0.0229999
0.0229938
0.02298
0.0229899
0.0230018
0.0230071
0.0229983
0.0230074
0.0229808
0.023018
0.0230045
0.0230054
0.0230212
0.0230016
0.0229998
0.0229781
0.0230084
0.0229984
0.0230041
0.0229891
0.02299
0.0229862
0.0229757
0.0230121
0.0229937
0.023009
0.0230093
0.0230159
0.0230142
0.0230056
0.0229999
0.0230098
0.0230014
0.0229965
0.0230069
0.0229874
0.0229915
0.0229761
0.0230192
0.0229856
0.022996
0.0229977
0.0230179
0.0230029
0.0230158
0.0230162
0.0230139
0.0230088
0.0229879
0.0230023
0.0229952
0.0230149
0.0230108
0.0229856
0.0230023
0.0229866
0.0229934
0.0230061
0.0229937
0.0230016
0.0229982
0.0230124
0.0230036
0.022987
0.0229834
0.023005
0.0229913
0.0229869
0.0229756
0.023013
0.0230014
0.0230244
0.0230183
0.0230164
0.023001
0.0230081
)
;

boundaryField
{
    inlet
    {
        type            fixedValue;
        value           uniform 0;
    }
    outlet
    {
        type            zeroGradient;
    }
    yzfaces
    {
        type            empty;
    }
}


// ************************************************************************* //
