/*--------------------------------*- C++ -*----------------------------------*\
| =========                 |                                                 |
| \\      /  F ield         | foam-extend: Open Source CFD                    |
|  \\    /   O peration     | Version:     5.0                                |
|   \\  /    A nd           | Web:         http://www.foam-extend.org         |
|    \\/     M anipulation  |                                                 |
\*---------------------------------------------------------------------------*/
FoamFile
{
    version     2.0;
    format      ascii;
    class       volScalarField;
    location    "0.444226";
    object      H2O.gas;
}
// * * * * * * * * * * * * * * * * * * * * * * * * * * * * * * * * * * * * * //

dimensions      [0 0 0 0 0 0 0];

internalField   nonuniform List<scalar> 
100
(
1.1646e-06
0.000306171
0.00106688
0.00052592
0.0032813
0.00587403
0.00839504
0.0107315
0.0125909
0.0137531
0.014084
0.0136821
0.0128371
0.0119166
0.0111492
0.0106592
0.0103476
0.0101845
0.0100953
0.0100475
0.0100209
0.0100111
0.0100077
0.00999511
0.0100002
0.00999746
0.00999183
0.00999659
0.0100013
0.0100047
0.0100003
0.0100044
0.00999457
0.0100091
0.0100023
0.0100011
0.0100081
0.00999982
0.00999882
0.00998975
0.0100004
0.00999565
0.00999768
0.00999455
0.00999491
0.00999265
0.00998784
0.0100009
0.00999321
0.00999749
0.0100008
0.0100054
0.0100039
0.0100027
0.0100009
0.010003
0.00999984
0.0100002
0.0100071
0.00999842
0.00999805
0.00999396
0.0100087
0.00999554
0.0099987
0.00999894
0.0100079
0.00999929
0.0100046
0.0100058
0.0100039
0.0100045
0.00999762
0.0100025
0.010003
0.0100075
0.0100057
0.00999747
0.0100031
0.00999462
0.0099971
0.0100026
0.00999769
0.00999797
0.00999648
0.0100028
0.0100009
0.00999595
0.00999047
0.0100026
0.00999619
0.00999442
0.00998988
0.010005
0.0099986
0.0100083
0.010003
0.0100034
0.0100018
0.0100026
)
;

boundaryField
{
    inlet
    {
        type            fixedValue;
        value           uniform 0;
    }
    outlet
    {
        type            zeroGradient;
    }
    yzfaces
    {
        type            empty;
    }
}


// ************************************************************************* //
