/*--------------------------------*- C++ -*----------------------------------*\
| =========                 |                                                 |
| \\      /  F ield         | foam-extend: Open Source CFD                    |
|  \\    /   O peration     | Version:     5.0                                |
|   \\  /    A nd           | Web:         http://www.foam-extend.org         |
|    \\/     M anipulation  |                                                 |
\*---------------------------------------------------------------------------*/
FoamFile
{
    version     2.0;
    format      ascii;
    class       volScalarField;
    location    "0.444226";
    object      Na.water;
}
// * * * * * * * * * * * * * * * * * * * * * * * * * * * * * * * * * * * * * //

dimensions      [0 0 0 0 0 0 0];

internalField   nonuniform List<scalar> 
100
(
0
0.0103518
0.0151501
0.001545
0.0159058
0.0191338
0.020025
0.0205706
0.0210193
0.0214666
0.021861
0.02221
0.022499
0.0227088
0.0228166
0.0229329
0.0229521
0.0229798
0.0229927
0.0230008
0.0229981
0.0229987
0.0230045
0.0229808
0.0230008
0.0230026
0.0229895
0.022993
0.0229997
0.0230071
0.0230025
0.0230107
0.0229794
0.0230133
0.0229976
0.0229946
0.0230118
0.0229895
0.0229871
0.0229626
0.0229909
0.0229828
0.0229902
0.0229853
0.0229904
0.0229819
0.0229733
0.0230087
0.0229931
0.0229987
0.0229986
0.0230101
0.023015
0.0230077
0.0230021
0.0230068
0.0229992
0.0229993
0.023009
0.0229882
0.0229908
0.0229746
0.0230192
0.0229856
0.0229863
0.0229925
0.0230069
0.0229878
0.0230075
0.0230122
0.023009
0.0230124
0.0229861
0.023002
0.023002
0.0230194
0.0230186
0.0230052
0.0230146
0.0229967
0.0229953
0.0229991
0.0229874
0.0229922
0.0229934
0.0230128
0.0230031
0.0229902
0.0229761
0.0230023
0.0229944
0.0229907
0.0229834
0.0230167
0.0230039
0.0230282
0.0230113
0.0230147
0.0230098
0.0230165
)
;

boundaryField
{
    inlet
    {
        type            fixedValue;
        value           uniform 0;
    }
    outlet
    {
        type            zeroGradient;
    }
    yzfaces
    {
        type            empty;
    }
}


// ************************************************************************* //
