/*--------------------------------*- C++ -*----------------------------------*\
| =========                 |                                                 |
| \\      /  F ield         | foam-extend: Open Source CFD                    |
|  \\    /   O peration     | Version:     5.0                                |
|   \\  /    A nd           | Web:         http://www.foam-extend.org         |
|    \\/     M anipulation  |                                                 |
\*---------------------------------------------------------------------------*/
FoamFile
{
    version     2.0;
    format      ascii;
    class       surfaceScalarField;
    location    "0.444226";
    object      phi;
}
// * * * * * * * * * * * * * * * * * * * * * * * * * * * * * * * * * * * * * //

dimensions      [0 3 -1 0 0 0 0];

internalField   nonuniform List<scalar> 
99
(
1.21977e-06
1.22081e-06
1.22515e-06
1.21954e-06
1.22344e-06
1.2241e-06
1.22602e-06
1.22503e-06
1.22547e-06
1.22668e-06
1.22696e-06
1.22599e-06
1.22897e-06
1.2284e-06
1.22967e-06
1.22958e-06
1.22874e-06
1.22778e-06
1.22716e-06
1.22708e-06
1.22631e-06
1.2261e-06
1.22603e-06
1.22713e-06
1.2295e-06
1.22934e-06
1.22919e-06
1.23026e-06
1.22975e-06
1.22904e-06
1.22666e-06
1.22747e-06
1.22945e-06
1.22835e-06
1.22769e-06
1.22802e-06
1.22891e-06
1.22885e-06
1.22801e-06
1.22901e-06
1.22756e-06
1.23052e-06
1.23121e-06
1.23123e-06
1.23277e-06
1.23332e-06
1.23181e-06
1.23171e-06
1.23248e-06
1.23333e-06
1.23332e-06
1.23413e-06
1.23217e-06
1.23249e-06
1.23054e-06
1.23095e-06
1.23114e-06
1.23137e-06
1.23102e-06
1.22902e-06
1.22887e-06
1.22967e-06
1.23139e-06
1.23115e-06
1.23136e-06
1.23211e-06
1.23088e-06
1.2321e-06
1.23319e-06
1.23032e-06
1.23025e-06
1.22941e-06
1.23029e-06
1.23023e-06
1.23136e-06
1.23098e-06
1.23147e-06
1.23054e-06
1.23164e-06
1.2317e-06
1.23189e-06
1.23191e-06
1.23191e-06
1.23148e-06
1.23201e-06
1.23086e-06
1.23178e-06
1.23218e-06
1.23013e-06
1.23085e-06
1.22908e-06
1.23091e-06
1.23e-06
1.22974e-06
1.23133e-06
1.23204e-06
1.23074e-06
1.23122e-06
1.23131e-06
)
;

boundaryField
{
    inlet
    {
        type            calculated;
        value           uniform -1.225e-06;
    }
    outlet
    {
        type            calculated;
        value           uniform 1.23028e-06;
    }
    yzfaces
    {
        type            empty;
    }
}


// ************************************************************************* //
