/*--------------------------------*- C++ -*----------------------------------*\
| =========                 |                                                 |
| \\      /  F ield         | foam-extend: Open Source CFD                    |
|  \\    /   O peration     | Version:     5.0                                |
|   \\  /    A nd           | Web:         http://www.foam-extend.org         |
|    \\/     M anipulation  |                                                 |
\*---------------------------------------------------------------------------*/
FoamFile
{
    version     2.0;
    format      ascii;
    class       volScalarField;
    location    "0.444226";
    object      S.gas;
}
// * * * * * * * * * * * * * * * * * * * * * * * * * * * * * * * * * * * * * //

dimensions      [0 0 0 0 0 0 0];

internalField   nonuniform List<scalar> 
100
(
0.428731
0.339913
0.289368
0.168151
0.181835
0.177926
0.16535
0.149079
0.13133
0.113505
0.0967624
0.0820978
0.0703801
0.0620267
0.0566617
0.0535347
0.0518202
0.0509332
0.0504676
0.050227
0.0501093
0.0500537
0.0500203
0.0500105
0.0500045
0.0499995
0.0500004
0.0499993
0.0500028
0.0500049
0.0499989
0.0499978
0.0500078
0.0500043
0.0500031
0.0500034
0.049999
0.0499961
0.0499952
0.0500043
0.049996
0.049997
0.0499864
0.0499921
0.049987
0.05
0.050005
0.0500001
0.0499959
0.0499905
0.0499989
0.0499974
0.0499934
0.0500004
0.0500059
0.0499942
0.0499995
0.0500032
0.0500054
0.0500006
0.050004
0.0500073
0.0499996
0.0500083
0.0500007
0.0500001
0.0500066
0.0499999
0.0499994
0.0500017
0.0499969
0.0499926
0.0500011
0.0500084
0.0500157
0.0499977
0.0500029
0.0500032
0.0500073
0.0500055
0.050009
0.050019
0.0500188
0.0500001
0.0500004
0.0500003
0.0499985
0.0499987
0.0499893
0.0499893
0.0499873
0.0499843
0.0499861
0.0499955
0.0499931
0.0499977
0.0499952
0.0499996
0.0499991
0.0500084
)
;

boundaryField
{
    inlet
    {
        type            calculated;
        value           uniform 1;
    }
    outlet
    {
        type            calculated;
        value           uniform 0.0500084;
    }
    yzfaces
    {
        type            empty;
    }
}


// ************************************************************************* //
