/*--------------------------------*- C++ -*----------------------------------*\
| =========                 |                                                 |
| \\      /  F ield         | foam-extend: Open Source CFD                    |
|  \\    /   O peration     | Version:     5.0                                |
|   \\  /    A nd           | Web:         http://www.foam-extend.org         |
|    \\/     M anipulation  |                                                 |
\*---------------------------------------------------------------------------*/
FoamFile
{
    version     2.0;
    format      ascii;
    class       volVectorField;
    location    "0.444226";
    object      U.gas;
}
// * * * * * * * * * * * * * * * * * * * * * * * * * * * * * * * * * * * * * //

dimensions      [0 1 -1 0 0 0 0];

internalField   nonuniform List<vector> 
100
(
(0.011105 0 0)
(0.0126882 0 0)
(0.0135272 0 0)
(0.017267 0 0)
(0.0121098 0 0)
(0.0128696 0 0)
(0.0130091 0 0)
(0.012739 0 0)
(0.0121396 0 0)
(0.0112591 0 0)
(0.0101423 0 0)
(0.00888779 0 0)
(0.00765338 0 0)
(0.00659343 0 0)
(0.00580611 0 0)
(0.00529778 0 0)
(0.00499842 0 0)
(0.00483219 0 0)
(0.00474526 0 0)
(0.00469999 0 0)
(0.00467622 0 0)
(0.00466352 0 0)
(0.00465826 0 0)
(0.00465715 0 0)
(0.00466228 0 0)
(0.00466589 0 0)
(0.00466448 0 0)
(0.00466635 0 0)
(0.00466807 0 0)
(0.00466618 0 0)
(0.0046599 0 0)
(0.00465646 0 0)
(0.00466209 0 0)
(0.0046648 0 0)
(0.0046609 0 0)
(0.00466014 0 0)
(0.0046622 0 0)
(0.00466302 0 0)
(0.0046618 0 0)
(0.00466179 0 0)
(0.00466172 0 0)
(0.00466437 0 0)
(0.00467132 0 0)
(0.0046719 0 0)
(0.0046752 0 0)
(0.00467858 0 0)
(0.00467794 0 0)
(0.00467493 0 0)
(0.00467503 0 0)
(0.004678 0 0)
(0.00467973 0 0)
(0.00468197 0 0)
(0.00467961 0 0)
(0.00467604 0 0)
(0.0046737 0 0)
(0.00467145 0 0)
(0.00467114 0 0)
(0.00467231 0 0)
(0.00467284 0 0)
(0.00466868 0 0)
(0.00466413 0 0)
(0.00466578 0 0)
(0.00467045 0 0)
(0.00467193 0 0)
(0.00467265 0 0)
(0.00467366 0 0)
(0.00467322 0 0)
(0.00467375 0 0)
(0.00467734 0 0)
(0.00467409 0 0)
(0.00466886 0 0)
(0.00466675 0 0)
(0.00466663 0 0)
(0.00466871 0 0)
(0.00467132 0 0)
(0.00467416 0 0)
(0.00467211 0 0)
(0.00467151 0 0)
(0.00467231 0 0)
(0.00467498 0 0)
(0.00467443 0 0)
(0.0046753 0 0)
(0.0046774 0 0)
(0.00467644 0 0)
(0.00467378 0 0)
(0.00467236 0 0)
(0.00467264 0 0)
(0.0046749 0 0)
(0.00467156 0 0)
(0.00466827 0 0)
(0.00466682 0 0)
(0.00466644 0 0)
(0.00466736 0 0)
(0.00466553 0 0)
(0.00466906 0 0)
(0.00467363 0 0)
(0.00467314 0 0)
(0.00467126 0 0)
(0.00467256 0 0)
(0.0046705 0 0)
)
;

boundaryField
{
    inlet
    {
        type            fixedValue;
        value           uniform (0.005 0 0);
    }
    outlet
    {
        type            zeroGradient;
    }
    yzfaces
    {
        type            empty;
    }
}


// ************************************************************************* //
