/*--------------------------------*- C++ -*----------------------------------*\
| =========                 |                                                 |
| \\      /  F ield         | foam-extend: Open Source CFD                    |
|  \\    /   O peration     | Version:     5.0                                |
|   \\  /    A nd           | Web:         http://www.foam-extend.org         |
|    \\/     M anipulation  |                                                 |
\*---------------------------------------------------------------------------*/
FoamFile
{
    version     2.0;
    format      ascii;
    class       volVectorField;
    location    "0.444226";
    object      U.water;
}
// * * * * * * * * * * * * * * * * * * * * * * * * * * * * * * * * * * * * * //

dimensions      [0 1 -1 0 0 0 0];

internalField   nonuniform List<vector> 
100
(
(0.000399602 0 0)
(0.00101181 0 0)
(0.00151616 0 0)
(0.00250732 0 0)
(0.00340235 0 0)
(0.00329063 0 0)
(0.00341363 0 0)
(0.00364666 0 0)
(0.00392177 0 0)
(0.00420355 0 0)
(0.00445734 0 0)
(0.00465883 0 0)
(0.00480999 0 0)
(0.00491066 0 0)
(0.00496904 0 0)
(0.0050031 0 0)
(0.00501799 0 0)
(0.00502301 0 0)
(0.00502415 0 0)
(0.00502499 0 0)
(0.00502436 0 0)
(0.00502291 0 0)
(0.00502258 0 0)
(0.00502485 0 0)
(0.00503203 0 0)
(0.00503658 0 0)
(0.00503598 0 0)
(0.00503786 0 0)
(0.00503896 0 0)
(0.00503645 0 0)
(0.00503014 0 0)
(0.00502695 0 0)
(0.00503266 0 0)
(0.0050344 0 0)
(0.00503083 0 0)
(0.00503015 0 0)
(0.00503265 0 0)
(0.0050344 0 0)
(0.00503253 0 0)
(0.00503289 0 0)
(0.00503193 0 0)
(0.00503503 0 0)
(0.0050425 0 0)
(0.00504398 0 0)
(0.00504715 0 0)
(0.00505146 0 0)
(0.00504945 0 0)
(0.00504615 0 0)
(0.00504758 0 0)
(0.0050509 0 0)
(0.00505262 0 0)
(0.00505423 0 0)
(0.00505189 0 0)
(0.00504855 0 0)
(0.00504516 0 0)
(0.00504197 0 0)
(0.00504328 0 0)
(0.00504412 0 0)
(0.00504384 0 0)
(0.005039 0 0)
(0.00503462 0 0)
(0.00503595 0 0)
(0.00504111 0 0)
(0.00504421 0 0)
(0.00504409 0 0)
(0.0050461 0 0)
(0.0050451 0 0)
(0.00504506 0 0)
(0.00504983 0 0)
(0.00504618 0 0)
(0.00504014 0 0)
(0.00503828 0 0)
(0.00503838 0 0)
(0.00504004 0 0)
(0.00504221 0 0)
(0.00504367 0 0)
(0.005044 0 0)
(0.00504308 0 0)
(0.00504341 0 0)
(0.00504577 0 0)
(0.00504633 0 0)
(0.00504672 0 0)
(0.00504667 0 0)
(0.00504581 0 0)
(0.00504616 0 0)
(0.00504489 0 0)
(0.00504438 0 0)
(0.0050471 0 0)
(0.00504372 0 0)
(0.00504104 0 0)
(0.00503887 0 0)
(0.00503902 0 0)
(0.00504093 0 0)
(0.00503852 0 0)
(0.00504121 0 0)
(0.0050459 0 0)
(0.00504465 0 0)
(0.005043 0 0)
(0.00504416 0 0)
(0.00504225 0 0)
)
;

boundaryField
{
    inlet
    {
        type            fixedValue;
        value           uniform (0 0 0);
    }
    outlet
    {
        type            zeroGradient;
    }
    yzfaces
    {
        type            empty;
    }
}


// ************************************************************************* //
