/*--------------------------------*- C++ -*----------------------------------*\
| =========                 |                                                 |
| \\      /  F ield         | foam-extend: Open Source CFD                    |
|  \\    /   O peration     | Version:     5.0                                |
|   \\  /    A nd           | Web:         http://www.foam-extend.org         |
|    \\/     M anipulation  |                                                 |
\*---------------------------------------------------------------------------*/
FoamFile
{
    version     2.0;
    format      ascii;
    class       volScalarField;
    location    "10";
    object      H2O.gas;
}
// * * * * * * * * * * * * * * * * * * * * * * * * * * * * * * * * * * * * * //

dimensions      [0 0 0 0 0 0 0];

internalField   nonuniform List<scalar> 
100
(
3.02104e-06
0.000112146
0.000186672
0.000283829
0.000255752
0.000258487
0.000253859
0.000232529
0.000217343
0.000203119
0.000188715
0.00017613
0.000169434
0.000168833
0.000171918
0.00017612
0.000181858
0.000187343
0.000198487
0.000193164
0.000189391
0.000185944
0.000184246
0.000183263
0.0001811
0.000177741
0.000175527
0.000172104
0.000167598
0.000163719
0.000161685
0.000161328
0.000160817
0.000160948
0.000162708
0.000160952
0.000161236
0.000160624
0.000158152
0.000155129
0.000154112
0.000153604
0.00015168
0.00014963
0.000148587
0.000146765
0.000146345
0.000145942
0.000144905
0.000143976
0.000142404
0.00014083
0.000139093
0.000137704
0.000136646
0.00013586
0.000135642
0.000134943
0.000134108
0.000132642
0.000131244
0.000130531
0.000129014
0.00012814
0.000127406
0.000126429
0.000125384
0.000124557
0.000123503
0.00012227
0.000121756
0.000120551
0.000119646
0.000118657
0.000117304
0.000116203
0.000115005
0.000113764
0.000112638
0.000111383
0.000110004
0.000108471
0.000107027
0.000105074
0.000102953
0.000100214
9.70002e-05
9.22274e-05
8.49126e-05
7.28008e-05
4.80364e-05
0.000277183
0.000564771
0.000888967
0.00125089
0.00165418
0.00209658
0.00257765
0.00309795
0.00364688
)
;

boundaryField
{
    inlet
    {
        type            fixedValue;
        value           uniform 0;
    }
    outlet
    {
        type            zeroGradient;
    }
    yzfaces
    {
        type            empty;
    }
}


// ************************************************************************* //
