/*--------------------------------*- C++ -*----------------------------------*\
| =========                 |                                                 |
| \\      /  F ield         | foam-extend: Open Source CFD                    |
|  \\    /   O peration     | Version:     5.0                                |
|   \\  /    A nd           | Web:         http://www.foam-extend.org         |
|    \\/     M anipulation  |                                                 |
\*---------------------------------------------------------------------------*/
FoamFile
{
    version     2.0;
    format      ascii;
    class       volScalarField;
    location    "10";
    object      Ns;
}
// * * * * * * * * * * * * * * * * * * * * * * * * * * * * * * * * * * * * * //

dimensions      [0 -3 0 0 1 0 0];

internalField   nonuniform List<scalar> 
100
(
0.156341
0.0191551
0.00742172
4.66883
1.013
0.35192
1.92161
2.96821
0.519747
2.75156
0.0519464
0.746981
0.409906
2.19697
0.270102
0.21299
1.3534
0.757203
2.12729
0.173188
1.51364
0.48626
0.0541448
0.555032
0.540392
1.094
1.16481
1.11227
0.825282
0.539735
1.00098
0.281064
0.797199
0.224611
2.91004
0.182901
3.55508
4.95877
0.72507
0.170901
1.13117
0.316293
0.773168
0.352637
0.138585
0.260499
0.549162
2.20378
0.172453
0.286147
0.459546
0.327273
0.1193
0.799515
0.283139
1.26577
0.411424
0.882142
1.73797
0.548017
0.0629042
0.280075
0.850932
0.163082
0.409155
0.11594
0.677804
0.494417
0.171941
0.0455114
0.00574674
0.346399
0.403323
0.300728
0.389721
0.905023
0.0759244
0.434291
0.517927
0.603543
0.683936
0.402843
2.24872
0.443095
1.95274
1.01014
2.37994
1.8475
1.55394
6.27731
18.8161
2
2
2
2
2
2
2
2
2
)
;

boundaryField
{
    inlet
    {
        type            fixedValue;
        value           uniform 0;
    }
    outlet
    {
        type            zeroGradient;
    }
    yzfaces
    {
        type            empty;
    }
}


// ************************************************************************* //
