/*--------------------------------*- C++ -*----------------------------------*\
| =========                 |                                                 |
| \\      /  F ield         | foam-extend: Open Source CFD                    |
|  \\    /   O peration     | Version:     5.0                                |
|   \\  /    A nd           | Web:         http://www.foam-extend.org         |
|    \\/     M anipulation  |                                                 |
\*---------------------------------------------------------------------------*/
FoamFile
{
    version     2.0;
    format      ascii;
    class       surfaceScalarField;
    location    "10";
    object      phi;
}
// * * * * * * * * * * * * * * * * * * * * * * * * * * * * * * * * * * * * * //

dimensions      [0 3 -1 0 0 0 0];

internalField   nonuniform List<scalar> 
99
(
1.2264e-06
1.21256e-06
1.2335e-06
1.23236e-06
1.22397e-06
1.23185e-06
1.23772e-06
1.2331e-06
1.22499e-06
1.22142e-06
1.21195e-06
1.20952e-06
1.21798e-06
1.22238e-06
1.22719e-06
1.22423e-06
1.2289e-06
1.22434e-06
1.22327e-06
1.21655e-06
1.20625e-06
1.20574e-06
1.21066e-06
1.20518e-06
1.21138e-06
1.21111e-06
1.20339e-06
1.20629e-06
1.19685e-06
1.19059e-06
1.19024e-06
1.19225e-06
1.20051e-06
1.19566e-06
1.19553e-06
1.1936e-06
1.19176e-06
1.18284e-06
1.17604e-06
1.18323e-06
1.18783e-06
1.18519e-06
1.18249e-06
1.18644e-06
1.18499e-06
1.18989e-06
1.18992e-06
1.18918e-06
1.19041e-06
1.18621e-06
1.18638e-06
1.18963e-06
1.18984e-06
1.18958e-06
1.19165e-06
1.19636e-06
1.19559e-06
1.19121e-06
1.18512e-06
1.18515e-06
1.18473e-06
1.18158e-06
1.18295e-06
1.18078e-06
1.18284e-06
1.18095e-06
1.17928e-06
1.17589e-06
1.17831e-06
1.17923e-06
1.17775e-06
1.17848e-06
1.17707e-06
1.17354e-06
1.17689e-06
1.1791e-06
1.17827e-06
1.17593e-06
1.17734e-06
1.1784e-06
1.17841e-06
1.18087e-06
1.18339e-06
1.18403e-06
1.18307e-06
1.18413e-06
1.18024e-06
1.17999e-06
1.18347e-06
1.18385e-06
1.1812e-06
1.18181e-06
1.1841e-06
1.18491e-06
1.18465e-06
1.18563e-06
1.18692e-06
1.18581e-06
1.18571e-06
)
;

boundaryField
{
    inlet
    {
        type            calculated;
        value           uniform -1.225e-06;
    }
    outlet
    {
        type            calculated;
        value           uniform 1.18674e-06;
    }
    yzfaces
    {
        type            empty;
    }
}


// ************************************************************************* //
