/*--------------------------------*- C++ -*----------------------------------*\
| =========                 |                                                 |
| \\      /  F ield         | foam-extend: Open Source CFD                    |
|  \\    /   O peration     | Version:     5.0                                |
|   \\  /    A nd           | Web:         http://www.foam-extend.org         |
|    \\/     M anipulation  |                                                 |
\*---------------------------------------------------------------------------*/
FoamFile
{
    version     2.0;
    format      ascii;
    class       volVectorField;
    location    "10";
    object      U.gas;
}
// * * * * * * * * * * * * * * * * * * * * * * * * * * * * * * * * * * * * * //

dimensions      [0 1 -1 0 0 0 0];

internalField   nonuniform List<vector> 
100
(
(0.00583067 0 0)
(0.00620281 0 0)
(0.00659346 0 0)
(0.00685188 0 0)
(0.00710818 0 0)
(0.00733951 0 0)
(0.00758375 0 0)
(0.00776222 0 0)
(0.00790668 0 0)
(0.00805088 0 0)
(0.00821978 0 0)
(0.00840732 0 0)
(0.00858492 0 0)
(0.00874621 0 0)
(0.00890094 0 0)
(0.00905475 0 0)
(0.00916269 0 0)
(0.00926844 0 0)
(0.00931245 0 0)
(0.00940358 0 0)
(0.0094921 0 0)
(0.00957901 0 0)
(0.00968898 0 0)
(0.00973949 0 0)
(0.00981546 0 0)
(0.00994554 0 0)
(0.00998472 0 0)
(0.010064 0 0)
(0.0101713 0 0)
(0.0102598 0 0)
(0.0103049 0 0)
(0.0103655 0 0)
(0.0104559 0 0)
(0.0105189 0 0)
(0.0105194 0 0)
(0.0105923 0 0)
(0.0105597 0 0)
(0.0105483 0 0)
(0.0105812 0 0)
(0.0106948 0 0)
(0.0107944 0 0)
(0.0108377 0 0)
(0.0108951 0 0)
(0.010986 0 0)
(0.0110392 0 0)
(0.011128 0 0)
(0.0111752 0 0)
(0.0111978 0 0)
(0.0112431 0 0)
(0.0112702 0 0)
(0.0113245 0 0)
(0.0114003 0 0)
(0.0114794 0 0)
(0.0115379 0 0)
(0.0116038 0 0)
(0.0116772 0 0)
(0.0116947 0 0)
(0.0116978 0 0)
(0.0116814 0 0)
(0.0117129 0 0)
(0.0117662 0 0)
(0.0117856 0 0)
(0.0118525 0 0)
(0.0118857 0 0)
(0.0119126 0 0)
(0.0119532 0 0)
(0.0119858 0 0)
(0.0119773 0 0)
(0.0120212 0 0)
(0.0120831 0 0)
(0.0121041 0 0)
(0.0121403 0 0)
(0.0121772 0 0)
(0.0121877 0 0)
(0.0122384 0 0)
(0.0122939 0 0)
(0.012346 0 0)
(0.0123763 0 0)
(0.0124131 0 0)
(0.0124641 0 0)
(0.0125147 0 0)
(0.0125776 0 0)
(0.0126403 0 0)
(0.01273 0 0)
(0.0127967 0 0)
(0.0128831 0 0)
(0.0129704 0 0)
(0.0130968 0 0)
(0.0133253 0 0)
(0.0136936 0 0)
(0.0144706 0 0)
(0.0103971 0 0)
(0.00949619 0 0)
(0.00949028 0 0)
(0.00964316 0 0)
(0.00977184 0 0)
(0.00986259 0 0)
(0.00990427 0 0)
(0.00992065 0 0)
(0.00992973 0 0)
)
;

boundaryField
{
    inlet
    {
        type            fixedValue;
        value           uniform (0.005 0 0);
    }
    outlet
    {
        type            zeroGradient;
    }
    yzfaces
    {
        type            empty;
    }
}


// ************************************************************************* //
