/*--------------------------------*- C++ -*----------------------------------*\
| =========                 |                                                 |
| \\      /  F ield         | foam-extend: Open Source CFD                    |
|  \\    /   O peration     | Version:     5.0                                |
|   \\  /    A nd           | Web:         http://www.foam-extend.org         |
|    \\/     M anipulation  |                                                 |
\*---------------------------------------------------------------------------*/
FoamFile
{
    version     2.0;
    format      ascii;
    class       volVectorField;
    location    "10";
    object      U.water;
}
// * * * * * * * * * * * * * * * * * * * * * * * * * * * * * * * * * * * * * //

dimensions      [0 1 -1 0 0 0 0];

internalField   nonuniform List<vector> 
100
(
(2.75518e-05 0 0)
(6.34715e-05 0 0)
(9.71434e-05 0 0)
(0.000128206 0 0)
(0.000151141 0 0)
(0.000180512 0 0)
(0.00020825 0 0)
(0.000232654 0 0)
(0.000254494 0 0)
(0.000278317 0 0)
(0.000303757 0 0)
(0.000334387 0 0)
(0.000367469 0 0)
(0.000393648 0 0)
(0.000415515 0 0)
(0.000437713 0 0)
(0.000461816 0 0)
(0.000481668 0 0)
(0.000498488 0 0)
(0.000513014 0 0)
(0.000534796 0 0)
(0.000561999 0 0)
(0.000588248 0 0)
(0.000606362 0 0)
(0.000620203 0 0)
(0.000640775 0 0)
(0.000660237 0 0)
(0.000677563 0 0)
(0.000701108 0 0)
(0.000730258 0 0)
(0.00076161 0 0)
(0.000783358 0 0)
(0.000801407 0 0)
(0.000815497 0 0)
(0.000825302 0 0)
(0.000837084 0 0)
(0.000849152 0 0)
(0.000848635 0 0)
(0.000858006 0 0)
(0.000886117 0 0)
(0.00091741 0 0)
(0.000934694 0 0)
(0.000949432 0 0)
(0.000975221 0 0)
(0.000999885 0 0)
(0.00102037 0 0)
(0.00104175 0 0)
(0.00105402 0 0)
(0.0010666 0 0)
(0.00107922 0 0)
(0.0010954 0 0)
(0.00112136 0 0)
(0.00114685 0 0)
(0.00117051 0 0)
(0.00119517 0 0)
(0.0012207 0 0)
(0.00123682 0 0)
(0.0012421 0 0)
(0.00124893 0 0)
(0.00126339 0 0)
(0.00128626 0 0)
(0.0013068 0 0)
(0.00133055 0 0)
(0.00135755 0 0)
(0.0013777 0 0)
(0.00139657 0 0)
(0.00141611 0 0)
(0.00143379 0 0)
(0.00145118 0 0)
(0.00147652 0 0)
(0.00149953 0 0)
(0.00152002 0 0)
(0.00154252 0 0)
(0.00156368 0 0)
(0.00159028 0 0)
(0.00162145 0 0)
(0.00164771 0 0)
(0.00167485 0 0)
(0.00170631 0 0)
(0.00174019 0 0)
(0.00177472 0 0)
(0.00181515 0 0)
(0.00185946 0 0)
(0.00190701 0 0)
(0.00196395 0 0)
(0.00203403 0 0)
(0.00212214 0 0)
(0.00224351 0 0)
(0.00243931 0 0)
(0.00277861 0 0)
(0.00344594 0 0)
(0.00411189 0 0)
(0.00423303 0 0)
(0.00422704 0 0)
(0.00419629 0 0)
(0.00417293 0 0)
(0.00416193 0 0)
(0.00415473 0 0)
(0.00414958 0 0)
(0.00415099 0 0)
)
;

boundaryField
{
    inlet
    {
        type            fixedValue;
        value           uniform (0 0 0);
    }
    outlet
    {
        type            zeroGradient;
    }
    yzfaces
    {
        type            empty;
    }
}


// ************************************************************************* //
