/*--------------------------------*- C++ -*----------------------------------*\
| =========                 |                                                 |
| \\      /  F ield         | foam-extend: Open Source CFD                    |
|  \\    /   O peration     | Version:     5.0                                |
|   \\  /    A nd           | Web:         http://www.foam-extend.org         |
|    \\/     M anipulation  |                                                 |
\*---------------------------------------------------------------------------*/
FoamFile
{
    version     2.0;
    format      ascii;
    class       volScalarField;
    location    "5";
    object      alpha.gas;
}
// * * * * * * * * * * * * * * * * * * * * * * * * * * * * * * * * * * * * * //

dimensions      [0 0 0 0 0 0 0];

internalField   nonuniform List<scalar> 
100
(
0.177387
0.167585
0.160275
0.154403
0.149398
0.14513
0.141369
0.138076
0.135024
0.132306
0.129835
0.127559
0.125397
0.123457
0.121647
0.119931
0.118308
0.116793
0.115353
0.113974
0.112654
0.111449
0.11028
0.10911
0.108091
0.107031
0.106046
0.105083
0.104171
0.103288
0.102434
0.101549
0.100753
0.100017
0.0992217
0.0985098
0.097844
0.0971304
0.0964458
0.0957913
0.0951422
0.0945027
0.0938893
0.0933002
0.0926964
0.0921353
0.091593
0.0910927
0.090556
0.0900599
0.089599
0.0891006
0.0886416
0.0881783
0.0877701
0.0873631
0.0869788
0.0865978
0.0861859
0.0858225
0.0854669
0.0851088
0.0847387
0.0843852
0.0840274
0.0836702
0.0833191
0.0829653
0.0826316
0.0823169
0.0820296
0.0816631
0.0813281
0.0809922
0.0806546
0.0803004
0.0799946
0.0796684
0.0793562
0.0790525
0.0787465
0.0784418
0.0781377
0.0778436
0.0775795
0.0772808
0.0769794
0.076694
0.0764217
0.0761618
0.0759443
0.0756772
0.0754211
0.0751535
0.0749178
0.0746835
0.0744575
0.0742227
0.073996
0.0737456
)
;

boundaryField
{
    inlet
    {
        type            fixedValue;
        value           uniform 0.2;
    }
    outlet
    {
        type            zeroGradient;
    }
    yzfaces
    {
        type            empty;
    }
}


// ************************************************************************* //
