/*--------------------------------*- C++ -*----------------------------------*\
| =========                 |                                                 |
| \\      /  F ield         | foam-extend: Open Source CFD                    |
|  \\    /   O peration     | Version:     5.0                                |
|   \\  /    A nd           | Web:         http://www.foam-extend.org         |
|    \\/     M anipulation  |                                                 |
\*---------------------------------------------------------------------------*/
FoamFile
{
    version     2.0;
    format      ascii;
    class       volScalarField;
    location    "5";
    object      CO2.gas;
}
// * * * * * * * * * * * * * * * * * * * * * * * * * * * * * * * * * * * * * //

dimensions      [0 0 0 0 0 0 0];

internalField   nonuniform List<scalar> 
100
(
0.177373
0.167641
0.160387
0.154642
0.14946
0.145193
0.141365
0.138163
0.134972
0.132241
0.129797
0.12753
0.125282
0.123383
0.12162
0.119899
0.118266
0.116753
0.115306
0.113906
0.112564
0.111397
0.110241
0.10902
0.108081
0.106971
0.10599
0.105019
0.104114
0.103241
0.102392
0.101444
0.100658
0.0999629
0.0991207
0.0984201
0.0977963
0.09704
0.0963484
0.0956883
0.0950279
0.0943724
0.0937434
0.0931514
0.0925276
0.0919556
0.091413
0.0909364
0.0903711
0.0898816
0.0894457
0.088941
0.0884997
0.0880354
0.0876666
0.0872756
0.0869273
0.0865667
0.086154
0.085828
0.0854956
0.0851612
0.0847968
0.0844528
0.0841028
0.0837446
0.083404
0.0830497
0.0827172
0.0824209
0.0821561
0.081749
0.081424
0.0810746
0.0807223
0.080343
0.0800511
0.0797117
0.0794068
0.0791034
0.0787867
0.0784712
0.0781586
0.0778462
0.0775944
0.0772732
0.0769617
0.0766653
0.0763821
0.0761216
0.0759332
0.0756502
0.0753909
0.0751057
0.0748781
0.0746429
0.0744234
0.0741838
0.073953
0.0736933
)
;

boundaryField
{
    inlet
    {
        type            fixedValue;
        value           uniform 0.2;
    }
    outlet
    {
        type            zeroGradient;
    }
    yzfaces
    {
        type            empty;
    }
}


// ************************************************************************* //
