/*--------------------------------*- C++ -*----------------------------------*\
| =========                 |                                                 |
| \\      /  F ield         | foam-extend: Open Source CFD                    |
|  \\    /   O peration     | Version:     5.0                                |
|   \\  /    A nd           | Web:         http://www.foam-extend.org         |
|    \\/     M anipulation  |                                                 |
\*---------------------------------------------------------------------------*/
FoamFile
{
    version     2.0;
    format      ascii;
    class       surfaceScalarField;
    location    "5";
    object      phi;
}
// * * * * * * * * * * * * * * * * * * * * * * * * * * * * * * * * * * * * * //

dimensions      [0 3 -1 0 0 0 0];

internalField   nonuniform List<scalar> 
99
(
1.22496e-05
1.22666e-05
1.22553e-05
1.22661e-05
1.22699e-05
1.22525e-05
1.22322e-05
1.2256e-05
1.22552e-05
1.22539e-05
1.2251e-05
1.22519e-05
1.22461e-05
1.2249e-05
1.22473e-05
1.22513e-05
1.22598e-05
1.2253e-05
1.22556e-05
1.22532e-05
1.22494e-05
1.22506e-05
1.22528e-05
1.22522e-05
1.22475e-05
1.22391e-05
1.22384e-05
1.22403e-05
1.22401e-05
1.22355e-05
1.22281e-05
1.22281e-05
1.22303e-05
1.22252e-05
1.22293e-05
1.2225e-05
1.22247e-05
1.22267e-05
1.22225e-05
1.22207e-05
1.22216e-05
1.22203e-05
1.22244e-05
1.22166e-05
1.22119e-05
1.22047e-05
1.22054e-05
1.22028e-05
1.22069e-05
1.22064e-05
1.22106e-05
1.22057e-05
1.22045e-05
1.22093e-05
1.22086e-05
1.22167e-05
1.22148e-05
1.22136e-05
1.22238e-05
1.22229e-05
1.22266e-05
1.22234e-05
1.22225e-05
1.22252e-05
1.22292e-05
1.22331e-05
1.22352e-05
1.22388e-05
1.22444e-05
1.22502e-05
1.22479e-05
1.22493e-05
1.22445e-05
1.22419e-05
1.22425e-05
1.22434e-05
1.22474e-05
1.22467e-05
1.22404e-05
1.22375e-05
1.22336e-05
1.22325e-05
1.22327e-05
1.22298e-05
1.22293e-05
1.2233e-05
1.2228e-05
1.2233e-05
1.22331e-05
1.22316e-05
1.22312e-05
1.22296e-05
1.22251e-05
1.22233e-05
1.22185e-05
1.22184e-05
1.22194e-05
1.22198e-05
1.22225e-05
)
;

boundaryField
{
    inlet
    {
        type            calculated;
        value           uniform -1.225e-05;
    }
    outlet
    {
        type            calculated;
        value           uniform 1.22244e-05;
    }
    yzfaces
    {
        type            empty;
    }
}


// ************************************************************************* //
