/*--------------------------------*- C++ -*----------------------------------*\
| =========                 |                                                 |
| \\      /  F ield         | foam-extend: Open Source CFD                    |
|  \\    /   O peration     | Version:     5.0                                |
|   \\  /    A nd           | Web:         http://www.foam-extend.org         |
|    \\/     M anipulation  |                                                 |
\*---------------------------------------------------------------------------*/
FoamFile
{
    version     2.0;
    format      ascii;
    class       surfaceScalarField;
    location    "5";
    object      phi.gas;
}
// * * * * * * * * * * * * * * * * * * * * * * * * * * * * * * * * * * * * * //

dimensions      [0 3 -1 0 0 0 0];

internalField   nonuniform List<scalar> 
99
(
7.09889e-05
7.47408e-05
7.77205e-05
8.05477e-05
8.31161e-05
8.53009e-05
8.72565e-05
8.94267e-05
9.13532e-05
9.30987e-05
9.47299e-05
9.63781e-05
9.78854e-05
9.93184e-05
0.000100684
0.00010208
0.000103462
0.000104667
0.000105933
0.000107136
0.000108244
0.000109331
0.000110478
0.000111509
0.000112471
0.000113436
0.000114418
0.0001154
0.000116327
0.000117195
0.000118094
0.000119041
0.000119877
0.000120691
0.000121608
0.000122322
0.000123125
0.000123999
0.000124762
0.000125541
0.000126355
0.000127134
0.00012794
0.000128628
0.00012934
0.00012998
0.000130646
0.000131305
0.000132048
0.000132656
0.000133338
0.000133924
0.00013453
0.000135152
0.000135669
0.000136272
0.000136745
0.000137283
0.000137919
0.000138378
0.000138899
0.00013937
0.000139876
0.000140419
0.000140991
0.000141557
0.000142106
0.000142666
0.000143207
0.0001437
0.000144202
0.000144788
0.000145261
0.000145784
0.000146379
0.000146921
0.000147478
0.00014799
0.000148406
0.000148879
0.000149354
0.000149862
0.000150388
0.000150819
0.000151301
0.000151887
0.000152343
0.000152902
0.000153372
0.00015373
0.00015414
0.000154594
0.000155018
0.000155446
0.000155793
0.000156192
0.000156616
0.000157042
0.000157526
)
;

boundaryField
{
    inlet
    {
        type            fixedValue;
        value           uniform -6.125e-05;
    }
    outlet
    {
        type            calculated;
        value           uniform 0.000157745;
    }
    yzfaces
    {
        type            empty;
    }
}


// ************************************************************************* //
