/*--------------------------------*- C++ -*----------------------------------*\
| =========                 |                                                 |
| \\      /  F ield         | foam-extend: Open Source CFD                    |
|  \\    /   O peration     | Version:     5.0                                |
|   \\  /    A nd           | Web:         http://www.foam-extend.org         |
|    \\/     M anipulation  |                                                 |
\*---------------------------------------------------------------------------*/
FoamFile
{
    version     2.0;
    format      ascii;
    class       volVectorField;
    location    "5";
    object      U.gas;
}
// * * * * * * * * * * * * * * * * * * * * * * * * * * * * * * * * * * * * * //

dimensions      [0 1 -1 0 0 0 0];

internalField   nonuniform List<vector> 
100
(
(0.056365 0 0)
(0.0596823 0 0)
(0.0623943 0 0)
(0.0647375 0 0)
(0.0669151 0 0)
(0.0688108 0 0)
(0.0704973 0 0)
(0.072152 0 0)
(0.0738138 0 0)
(0.0752836 0 0)
(0.0766628 0 0)
(0.0779825 0 0)
(0.0792682 0 0)
(0.0804605 0 0)
(0.0816183 0 0)
(0.0827495 0 0)
(0.0838826 0 0)
(0.0849308 0 0)
(0.0859303 0 0)
(0.0869232 0 0)
(0.0878717 0 0)
(0.0887646 0 0)
(0.0896705 0 0)
(0.0905889 0 0)
(0.0913739 0 0)
(0.0921811 0 0)
(0.0929528 0 0)
(0.0937592 0 0)
(0.0945366 0 0)
(0.0952758 0 0)
(0.0959727 0 0)
(0.0967263 0 0)
(0.0974457 0 0)
(0.0981006 0 0)
(0.0988307 0 0)
(0.099491 0 0)
(0.100099 0 0)
(0.100789 0 0)
(0.10144 0 0)
(0.102053 0 0)
(0.102691 0 0)
(0.103328 0 0)
(0.103959 0 0)
(0.104545 0 0)
(0.105115 0 0)
(0.105646 0 0)
(0.106188 0 0)
(0.106709 0 0)
(0.107293 0 0)
(0.107844 0 0)
(0.108361 0 0)
(0.10891 0 0)
(0.10939 0 0)
(0.109925 0 0)
(0.110401 0 0)
(0.110898 0 0)
(0.111365 0 0)
(0.11179 0 0)
(0.112313 0 0)
(0.112779 0 0)
(0.113211 0 0)
(0.113639 0 0)
(0.114063 0 0)
(0.114495 0 0)
(0.114961 0 0)
(0.115434 0 0)
(0.115894 0 0)
(0.116359 0 0)
(0.116816 0 0)
(0.117264 0 0)
(0.117641 0 0)
(0.118108 0 0)
(0.118517 0 0)
(0.118913 0 0)
(0.11934 0 0)
(0.11981 0 0)
(0.120229 0 0)
(0.120677 0 0)
(0.121055 0 0)
(0.121413 0 0)
(0.12179 0 0)
(0.122175 0 0)
(0.122584 0 0)
(0.12297 0 0)
(0.12331 0 0)
(0.123742 0 0)
(0.124153 0 0)
(0.124548 0 0)
(0.124954 0 0)
(0.125311 0 0)
(0.125604 0 0)
(0.125979 0 0)
(0.126311 0 0)
(0.126663 0 0)
(0.126965 0 0)
(0.127278 0 0)
(0.12761 0 0)
(0.12796 0 0)
(0.128308 0 0)
(0.128704 0 0)
)
;

boundaryField
{
    inlet
    {
        type            fixedValue;
        value           uniform (0.05 0 0);
    }
    outlet
    {
        type            zeroGradient;
    }
    yzfaces
    {
        type            empty;
    }
}


// ************************************************************************* //
