/*--------------------------------*- C++ -*----------------------------------*\
| =========                 |                                                 |
| \\      /  F ield         | foam-extend: Open Source CFD                    |
|  \\    /   O peration     | Version:     5.0                                |
|   \\  /    A nd           | Web:         http://www.foam-extend.org         |
|    \\/     M anipulation  |                                                 |
\*---------------------------------------------------------------------------*/
FoamFile
{
    version     2.0;
    format      ascii;
    class       volVectorField;
    location    "5";
    object      U.water;
}
// * * * * * * * * * * * * * * * * * * * * * * * * * * * * * * * * * * * * * //

dimensions      [0 1 -1 0 0 0 0];

internalField   nonuniform List<vector> 
100
(
(6.32018e-05 0 0)
(0.000145742 0 0)
(0.00021893 0 0)
(0.000286707 0 0)
(0.000351014 0 0)
(0.000412641 0 0)
(0.000471066 0 0)
(0.00052831 0 0)
(0.0005842 0 0)
(0.000638928 0 0)
(0.000691433 0 0)
(0.000742682 0 0)
(0.000793126 0 0)
(0.000843176 0 0)
(0.000891168 0 0)
(0.000938525 0 0)
(0.000985896 0 0)
(0.00103234 0 0)
(0.00107763 0 0)
(0.00112291 0 0)
(0.00116783 0 0)
(0.00121178 0 0)
(0.00125425 0 0)
(0.00129729 0 0)
(0.00134004 0 0)
(0.00137986 0 0)
(0.00142113 0 0)
(0.00146227 0 0)
(0.00150314 0 0)
(0.00154273 0 0)
(0.00158184 0 0)
(0.00162168 0 0)
(0.00166301 0 0)
(0.00170141 0 0)
(0.00173934 0 0)
(0.00177865 0 0)
(0.00181499 0 0)
(0.00185224 0 0)
(0.00189115 0 0)
(0.00192878 0 0)
(0.00196625 0 0)
(0.0020043 0 0)
(0.00204262 0 0)
(0.00207945 0 0)
(0.00211582 0 0)
(0.0021526 0 0)
(0.00218831 0 0)
(0.0022232 0 0)
(0.00225784 0 0)
(0.00229412 0 0)
(0.00232827 0 0)
(0.00236189 0 0)
(0.00239633 0 0)
(0.00243061 0 0)
(0.00246433 0 0)
(0.00249591 0 0)
(0.00252734 0 0)
(0.00255703 0 0)
(0.00258865 0 0)
(0.00262099 0 0)
(0.00265087 0 0)
(0.00268043 0 0)
(0.00271017 0 0)
(0.00274111 0 0)
(0.00277215 0 0)
(0.0028043 0 0)
(0.00283617 0 0)
(0.00286798 0 0)
(0.00290031 0 0)
(0.00293133 0 0)
(0.00296007 0 0)
(0.00298962 0 0)
(0.00302247 0 0)
(0.00305386 0 0)
(0.0030864 0 0)
(0.00312033 0 0)
(0.00315434 0 0)
(0.00318627 0 0)
(0.0032184 0 0)
(0.00324908 0 0)
(0.00327986 0 0)
(0.00331126 0 0)
(0.00334313 0 0)
(0.00337513 0 0)
(0.0034058 0 0)
(0.00343677 0 0)
(0.0034698 0 0)
(0.00350326 0 0)
(0.00353605 0 0)
(0.00356662 0 0)
(0.00359459 0 0)
(0.0036218 0 0)
(0.00365243 0 0)
(0.00368265 0 0)
(0.00371182 0 0)
(0.00373964 0 0)
(0.00376845 0 0)
(0.00379743 0 0)
(0.00382681 0 0)
(0.00385709 0 0)
)
;

boundaryField
{
    inlet
    {
        type            fixedValue;
        value           uniform (0 0 0);
    }
    outlet
    {
        type            zeroGradient;
    }
    yzfaces
    {
        type            empty;
    }
}


// ************************************************************************* //
