/*--------------------------------*- C++ -*----------------------------------*\
| =========                 |                                                 |
| \\      /  F ield         | foam-extend: Open Source CFD                    |
|  \\    /   O peration     | Version:     5.0                                |
|   \\  /    A nd           | Web:         http://www.foam-extend.org         |
|    \\/     M anipulation  |                                                 |
\*---------------------------------------------------------------------------*/
FoamFile
{
    version     2.0;
    format      ascii;
    class       volScalarField;
    location    "1";
    object      CO2.water;
}
// * * * * * * * * * * * * * * * * * * * * * * * * * * * * * * * * * * * * * //

dimensions      [0 0 0 0 0 0 0];

internalField   nonuniform List<scalar> 
100
(
0.00228823
0.0027786
0.00308379
0.00331566
0.00351321
0.00368637
0.00387102
0.00409551
0.00442912
0.00510543
0.000682134
0.000211124
6.26191e-05
1.87178e-05
5.76166e-06
1.82227e-06
5.83165e-07
1.85529e-07
5.86279e-08
1.91136e-08
7.04555e-09
2.8057e-09
1.1526e-09
4.76332e-10
1.9591e-10
8.00082e-11
3.24323e-11
1.30629e-11
5.23324e-12
2.08571e-12
8.29221e-13
3.28979e-13
1.30142e-13
5.13108e-14
2.10573e-14
9.68065e-15
5.09512e-15
2.93848e-15
1.75418e-15
1.0459e-15
6.03542e-16
3.29953e-16
1.72935e-16
8.8546e-17
4.47737e-17
2.2417e-17
1.11348e-17
5.47405e-18
2.66208e-18
1.27715e-18
6.04685e-19
2.82654e-19
1.30343e-19
5.93864e-20
2.67244e-20
1.18886e-20
5.22577e-21
2.27013e-21
9.76185e-22
4.14394e-22
1.73664e-22
7.22808e-23
3.00078e-23
1.25284e-23
5.32247e-24
2.26133e-24
9.5243e-25
3.97469e-25
1.64025e-25
6.70778e-26
2.72439e-26
1.09834e-26
4.40528e-27
1.76057e-27
7.00199e-28
2.77808e-28
1.09818e-28
4.32816e-29
1.70011e-29
6.65892e-30
2.60307e-30
1.01542e-30
3.9559e-31
1.53874e-31
5.96515e-32
2.31456e-32
8.9651e-33
3.46704e-33
1.33898e-33
5.16644e-34
1.99121e-34
7.66643e-35
2.94846e-35
1.13278e-35
4.34362e-36
1.6643e-36
6.37898e-37
2.44203e-37
9.33988e-38
3.97633e-38
)
;

boundaryField
{
    inlet
    {
        type            fixedValue;
        value           uniform 0;
    }
    outlet
    {
        type            zeroGradient;
    }
    yzfaces
    {
        type            empty;
    }
}


// ************************************************************************* //
