/*--------------------------------*- C++ -*----------------------------------*\
| =========                 |                                                 |
| \\      /  F ield         | foam-extend: Open Source CFD                    |
|  \\    /   O peration     | Version:     5.0                                |
|   \\  /    A nd           | Web:         http://www.foam-extend.org         |
|    \\/     M anipulation  |                                                 |
\*---------------------------------------------------------------------------*/
FoamFile
{
    version     2.0;
    format      ascii;
    class       volScalarField;
    location    "1";
    object      Na.water;
}
// * * * * * * * * * * * * * * * * * * * * * * * * * * * * * * * * * * * * * //

dimensions      [0 0 0 0 0 0 0];

internalField   nonuniform List<scalar> 
100
(
0.0100029
0.0121454
0.0134777
0.0144925
0.015356
0.0161087
0.016922
0.017899
0.0193459
0.0220824
0.0207418
0.0208274
0.0208483
0.0208732
0.0209327
0.0210543
0.0212416
0.0214572
0.0216981
0.021972
0.0222477
0.0224666
0.0226368
0.0227545
0.0228577
0.0229231
0.0229685
0.0229879
0.023001
0.0229903
0.0229852
0.022985
0.0229767
0.0229809
0.0229842
0.0229884
0.0230019
0.0230038
0.0230024
0.0230097
0.0230031
0.0230059
0.0230085
0.0230226
0.0230212
0.0230042
0.0229895
0.0230003
0.0230097
0.0229966
0.0229977
0.0230056
0.0229933
0.0229974
0.0230008
0.0230073
0.0230078
0.0229998
0.0229994
0.0230041
0.022987
0.0229976
0.0230099
0.0229976
0.0229965
0.0230006
0.0229982
0.0230078
0.023006
0.0230093
0.0230075
0.0230031
0.0230005
0.0229993
0.0229977
0.0229948
0.0230051
0.0230002
0.0230056
0.0230075
0.0230057
0.0230032
0.0229997
0.0230131
0.0230134
0.0230003
0.0230075
0.0229965
0.0230028
0.022992
0.0229974
0.0229927
0.0229841
0.022999
0.0229969
0.02298
0.0229939
0.0230023
0.0230138
0.0230152
)
;

boundaryField
{
    inlet
    {
        type            fixedValue;
        value           uniform 0;
    }
    outlet
    {
        type            zeroGradient;
    }
    yzfaces
    {
        type            empty;
    }
}


// ************************************************************************* //
