/*--------------------------------*- C++ -*----------------------------------*\
| =========                 |                                                 |
| \\      /  F ield         | foam-extend: Open Source CFD                    |
|  \\    /   O peration     | Version:     5.0                                |
|   \\  /    A nd           | Web:         http://www.foam-extend.org         |
|    \\/     M anipulation  |                                                 |
\*---------------------------------------------------------------------------*/
FoamFile
{
    version     2.0;
    format      ascii;
    class       surfaceScalarField;
    location    "1";
    object      phi;
}
// * * * * * * * * * * * * * * * * * * * * * * * * * * * * * * * * * * * * * //

dimensions      [0 3 -1 0 0 0 0];

internalField   nonuniform List<scalar> 
99
(
1.22621e-06
1.22261e-06
1.21736e-06
1.21653e-06
1.21757e-06
1.21796e-06
1.21471e-06
1.21445e-06
1.21258e-06
1.2085e-06
1.20992e-06
1.21257e-06
1.21402e-06
1.21637e-06
1.2169e-06
1.21753e-06
1.21697e-06
1.21748e-06
1.2169e-06
1.21825e-06
1.21637e-06
1.21424e-06
1.21154e-06
1.21005e-06
1.21076e-06
1.2094e-06
1.20855e-06
1.20786e-06
1.20678e-06
1.20613e-06
1.20432e-06
1.20425e-06
1.20309e-06
1.20382e-06
1.20377e-06
1.20361e-06
1.20283e-06
1.2013e-06
1.20152e-06
1.20131e-06
1.19999e-06
1.19862e-06
1.20019e-06
1.20106e-06
1.19983e-06
1.19761e-06
1.19832e-06
1.20069e-06
1.20048e-06
1.20051e-06
1.20064e-06
1.19951e-06
1.20075e-06
1.2025e-06
1.20224e-06
1.20315e-06
1.20391e-06
1.20287e-06
1.20335e-06
1.20439e-06
1.20426e-06
1.20579e-06
1.20634e-06
1.20728e-06
1.20714e-06
1.2077e-06
1.20743e-06
1.20721e-06
1.20785e-06
1.20906e-06
1.20699e-06
1.20622e-06
1.20482e-06
1.20413e-06
1.20429e-06
1.20279e-06
1.2059e-06
1.20521e-06
1.20602e-06
1.2061e-06
1.2059e-06
1.20508e-06
1.20626e-06
1.20672e-06
1.20782e-06
1.20772e-06
1.20848e-06
1.20894e-06
1.20997e-06
1.20978e-06
1.20978e-06
1.20995e-06
1.2089e-06
1.20876e-06
1.20808e-06
1.20935e-06
1.20991e-06
1.21071e-06
1.21032e-06
)
;

boundaryField
{
    inlet
    {
        type            calculated;
        value           uniform -1.225e-06;
    }
    outlet
    {
        type            calculated;
        value           uniform 1.20983e-06;
    }
    yzfaces
    {
        type            empty;
    }
}


// ************************************************************************* //
