/*--------------------------------*- C++ -*----------------------------------*\
| =========                 |                                                 |
| \\      /  F ield         | foam-extend: Open Source CFD                    |
|  \\    /   O peration     | Version:     5.0                                |
|   \\  /    A nd           | Web:         http://www.foam-extend.org         |
|    \\/     M anipulation  |                                                 |
\*---------------------------------------------------------------------------*/
FoamFile
{
    version     2.0;
    format      ascii;
    class       volScalarField;
    location    "1";
    object      S.gas;
}
// * * * * * * * * * * * * * * * * * * * * * * * * * * * * * * * * * * * * * //

dimensions      [0 0 0 0 0 0 0];

internalField   nonuniform List<scalar> 
100
(
0.564568
0.469499
0.411853
0.367803
0.331092
0.297763
0.263145
0.220384
0.157119
0.136275
0.133327
0.135721
0.137714
0.137493
0.134762
0.129686
0.122521
0.113635
0.103428
0.092491
0.0817051
0.0719756
0.0641355
0.0585034
0.0548577
0.0526818
0.0514425
0.0507721
0.0504104
0.0502195
0.0501182
0.0500658
0.0500404
0.0500331
0.0500192
0.0500138
0.0500133
0.0500135
0.0500111
0.0500051
0.049991
0.0499965
0.0500031
0.0499936
0.0499896
0.0499904
0.0499998
0.0500052
0.0499981
0.0499919
0.0499947
0.0499982
0.0499981
0.0499988
0.0500036
0.0499955
0.0499946
0.0500003
0.0500015
0.0500075
0.0500093
0.0500107
0.0500086
0.0500083
0.0500103
0.0500051
0.0500029
0.0500012
0.0499979
0.0499913
0.0499825
0.0499873
0.0499919
0.0499899
0.0499857
0.0499911
0.0499955
0.0499999
0.0499951
0.0499996
0.0499973
0.0499938
0.0499983
0.0499988
0.0499965
0.049991
0.0499955
0.0499979
0.0499942
0.0499966
0.0499998
0.0500046
0.0500066
0.0500046
0.0500015
0.0500095
0.0500076
0.0499978
0.0500005
0.0499937
)
;

boundaryField
{
    inlet
    {
        type            calculated;
        value           uniform 1;
    }
    outlet
    {
        type            calculated;
        value           uniform 0.0499937;
    }
    yzfaces
    {
        type            empty;
    }
}


// ************************************************************************* //
