/*--------------------------------*- C++ -*----------------------------------*\
| =========                 |                                                 |
| \\      /  F ield         | foam-extend: Open Source CFD                    |
|  \\    /   O peration     | Version:     5.0                                |
|   \\  /    A nd           | Web:         http://www.foam-extend.org         |
|    \\/     M anipulation  |                                                 |
\*---------------------------------------------------------------------------*/
FoamFile
{
    version     2.0;
    format      ascii;
    class       volVectorField;
    location    "1";
    object      U.water;
}
// * * * * * * * * * * * * * * * * * * * * * * * * * * * * * * * * * * * * * //

dimensions      [0 1 -1 0 0 0 0];

internalField   nonuniform List<vector> 
100
(
(0.00018806 0 0)
(0.000472548 0 0)
(0.000725703 0 0)
(0.000972741 0 0)
(0.00123318 0 0)
(0.00151641 0 0)
(0.00184693 0 0)
(0.00230065 0 0)
(0.00304332 0 0)
(0.00376333 0 0)
(0.00399006 0 0)
(0.00401352 0 0)
(0.00398435 0 0)
(0.00397103 0 0)
(0.00399371 0 0)
(0.00405252 0 0)
(0.00414334 0 0)
(0.00426036 0 0)
(0.00439367 0 0)
(0.00453344 0 0)
(0.00466174 0 0)
(0.00476245 0 0)
(0.00483461 0 0)
(0.00488171 0 0)
(0.00491469 0 0)
(0.0049334 0 0)
(0.00493997 0 0)
(0.00494286 0 0)
(0.00494242 0 0)
(0.00494058 0 0)
(0.00493647 0 0)
(0.00493311 0 0)
(0.00493082 0 0)
(0.00493004 0 0)
(0.00493146 0 0)
(0.0049311 0 0)
(0.00492921 0 0)
(0.00492449 0 0)
(0.00492179 0 0)
(0.00492183 0 0)
(0.00491872 0 0)
(0.00491326 0 0)
(0.00491364 0 0)
(0.00491859 0 0)
(0.00491789 0 0)
(0.00491088 0 0)
(0.00490781 0 0)
(0.00491404 0 0)
(0.00491843 0 0)
(0.00491812 0 0)
(0.00491845 0 0)
(0.0049164 0 0)
(0.00491663 0 0)
(0.00492273 0 0)
(0.00492577 0 0)
(0.0049271 0 0)
(0.00493057 0 0)
(0.00492997 0 0)
(0.00492881 0 0)
(0.00493194 0 0)
(0.00493375 0 0)
(0.00493663 0 0)
(0.0049409 0 0)
(0.00494394 0 0)
(0.00494556 0 0)
(0.00494644 0 0)
(0.00494707 0 0)
(0.00494606 0 0)
(0.00494694 0 0)
(0.00495073 0 0)
(0.00494897 0 0)
(0.0049432 0 0)
(0.00493873 0 0)
(0.00493443 0 0)
(0.00493334 0 0)
(0.00493066 0 0)
(0.00493397 0 0)
(0.00493888 0 0)
(0.00493907 0 0)
(0.00494093 0 0)
(0.00494067 0 0)
(0.00493858 0 0)
(0.00493932 0 0)
(0.00494265 0 0)
(0.00494588 0 0)
(0.00494794 0 0)
(0.00494931 0 0)
(0.00495182 0 0)
(0.00495482 0 0)
(0.00495652 0 0)
(0.00495615 0 0)
(0.0049565 0 0)
(0.00495468 0 0)
(0.00495223 0 0)
(0.00495056 0 0)
(0.00495177 0 0)
(0.00495549 0 0)
(0.00495831 0 0)
(0.00495918 0 0)
(0.00495731 0 0)
)
;

boundaryField
{
    inlet
    {
        type            fixedValue;
        value           uniform (0 0 0);
    }
    outlet
    {
        type            zeroGradient;
    }
    yzfaces
    {
        type            empty;
    }
}


// ************************************************************************* //
