/*--------------------------------*- C++ -*----------------------------------*\
| =========                 |                                                 |
| \\      /  F ield         | foam-extend: Open Source CFD                    |
|  \\    /   O peration     | Version:     5.0                                |
|   \\  /    A nd           | Web:         http://www.foam-extend.org         |
|    \\/     M anipulation  |                                                 |
\*---------------------------------------------------------------------------*/
FoamFile
{
    version     2.0;
    format      ascii;
    class       volScalarField;
    location    "8";
    object      alpha.gas;
}
// * * * * * * * * * * * * * * * * * * * * * * * * * * * * * * * * * * * * * //

dimensions      [0 0 0 0 0 0 0];

internalField   nonuniform List<scalar> 
100
(
0.165856
0.15287
0.14395
0.137083
0.131047
0.12587
0.1214
0.118031
0.114952
0.112337
0.110119
0.108243
0.106008
0.103793
0.101517
0.0997679
0.0979019
0.0956293
0.0932108
0.0912244
0.0896954
0.0884785
0.0870094
0.0857252
0.0847877
0.0842321
0.0843507
0.0845319
0.0845445
0.0840702
0.0831074
0.0821653
0.0817077
0.0816038
0.0814471
0.0808739
0.0800334
0.0788962
0.0778473
0.0766425
0.075773
0.0749366
0.0738616
0.0728033
0.0716859
0.0706755
0.069737
0.0689619
0.0682902
0.0676206
0.0668129
0.0660729
0.0652252
0.0645219
0.063904
0.0633843
0.0628506
0.0623029
0.0617564
0.0613025
0.0608091
0.0603477
0.0598813
0.059353
0.0587615
0.0582573
0.0576596
0.0570695
0.056444
0.0557766
0.0551082
0.0543613
0.0535915
0.0527097
0.0516954
0.0505312
0.0491157
0.0472988
0.0450906
0.0427437
0.040416
0.000533761
0.0365966
0.0352401
0.034304
0.0336937
0.0333663
0.033233
0.0332575
0.0333531
0.0334653
0.0335871
0.0337305
0.0338482
0.0339699
0.0340698
0.0341676
0.0342449
0.0343132
0.0343793
)
;

boundaryField
{
    inlet
    {
        type            fixedValue;
        value           uniform 0.2;
    }
    outlet
    {
        type            zeroGradient;
    }
    yzfaces
    {
        type            empty;
    }
}


// ************************************************************************* //
