/*--------------------------------*- C++ -*----------------------------------*\
| =========                 |                                                 |
| \\      /  F ield         | foam-extend: Open Source CFD                    |
|  \\    /   O peration     | Version:     5.0                                |
|   \\  /    A nd           | Web:         http://www.foam-extend.org         |
|    \\/     M anipulation  |                                                 |
\*---------------------------------------------------------------------------*/
FoamFile
{
    version     2.0;
    format      ascii;
    class       volScalarField;
    location    "8";
    object      Cl.water;
}
// * * * * * * * * * * * * * * * * * * * * * * * * * * * * * * * * * * * * * //

dimensions      [0 0 0 0 0 0 0];

internalField   nonuniform List<scalar> 
100
(
8.36633e-16
0.00142341
0.00306747
0.00403776
0.00446701
0.00479144
0.00530675
0.00587899
0.00631453
0.00657827
0.00674808
0.00690021
0.00704486
0.00716972
0.00727499
0.00740041
0.00752857
0.00765145
0.00781778
0.00798832
0.00813892
0.00824638
0.00834282
0.00846984
0.00858982
0.00867
0.00871252
0.00875875
0.00886912
0.00905338
0.00926155
0.00945451
0.00956764
0.00956843
0.00948276
0.00936678
0.00928115
0.00923025
0.00920819
0.00918793
0.00920847
0.00924096
0.00926531
0.00931115
0.00944124
0.00969854
0.00998089
0.0101826
0.0102672
0.0103163
0.0103256
0.0102331
0.0101813
0.0103419
0.0106573
0.0108949
0.0109258
0.0109289
0.0111829
0.0114989
0.0115025
0.0112773
0.0112182
0.0116546
0.0118813
0.0115123
0.0111125
0.0113902
0.0110376
0.0102797
0.0103147
0.0114806
0.0104978
0.00968161
0.0107628
0.0129808
0.00916405
0.00953936
0.0128169
0.0159103
0.0178975
5.45397e-15
0.0195555
0.019864
0.0200398
0.0201275
0.0201845
0.0202047
0.0202015
0.0201959
0.0201701
0.0201662
0.0201503
0.0201337
0.0201368
0.0201137
0.0200944
0.0200797
0.0200761
0.0200632
)
;

boundaryField
{
    inlet
    {
        type            fixedValue;
        value           uniform 0;
    }
    outlet
    {
        type            zeroGradient;
    }
    yzfaces
    {
        type            empty;
    }
}


// ************************************************************************* //
