/*--------------------------------*- C++ -*----------------------------------*\
| =========                 |                                                 |
| \\      /  F ield         | foam-extend: Open Source CFD                    |
|  \\    /   O peration     | Version:     5.0                                |
|   \\  /    A nd           | Web:         http://www.foam-extend.org         |
|    \\/     M anipulation  |                                                 |
\*---------------------------------------------------------------------------*/
FoamFile
{
    version     2.0;
    format      ascii;
    class       volScalarField;
    location    "8";
    object      CO2.water;
}
// * * * * * * * * * * * * * * * * * * * * * * * * * * * * * * * * * * * * * //

dimensions      [0 0 0 0 0 0 0];

internalField   nonuniform List<scalar> 
100
(
0.000899116
0.000927644
0.00080432
0.000770989
0.0008187
0.000875998
0.00089371
0.000876456
0.00086591
0.000881538
0.000904415
0.000918891
0.000933301
0.000959547
0.000989378
0.00101262
0.00102602
0.00104106
0.00106611
0.00109029
0.00110967
0.00112849
0.00115143
0.00117657
0.00119531
0.00120785
0.00121739
0.00121627
0.00119485
0.00115916
0.00112697
0.00111303
0.00111046
0.00111943
0.00114103
0.00117103
0.00119898
0.00122148
0.00124481
0.00126548
0.00127885
0.00128785
0.00130063
0.00131723
0.00131448
0.00128454
0.00124605
0.00122634
0.00122054
0.00122302
0.00124467
0.00128199
0.00131723
0.00130612
0.00125472
0.00122222
0.00123198
0.00124612
0.00120496
0.00115099
0.00116202
0.00122662
0.00125052
0.00116716
0.00113049
0.00122353
0.00131913
0.00127853
0.00137061
0.00155282
0.0015628
0.00132433
0.00156073
0.00176128
0.00155278
0.00110116
0.00197221
0.00193597
0.00128226
0.000675148
0.000305827
0.00520382
4.58351e-05
1.56628e-05
4.98145e-06
1.48191e-06
4.16015e-07
1.10814e-07
2.82136e-08
6.89844e-09
1.63012e-09
3.74641e-10
8.40211e-11
1.84236e-11
3.96006e-12
8.34381e-13
1.72513e-13
3.48946e-14
6.87293e-15
1.22226e-15
)
;

boundaryField
{
    inlet
    {
        type            fixedValue;
        value           uniform 0;
    }
    outlet
    {
        type            zeroGradient;
    }
    yzfaces
    {
        type            empty;
    }
}


// ************************************************************************* //
