/*--------------------------------*- C++ -*----------------------------------*\
| =========                 |                                                 |
| \\      /  F ield         | foam-extend: Open Source CFD                    |
|  \\    /   O peration     | Version:     5.0                                |
|   \\  /    A nd           | Web:         http://www.foam-extend.org         |
|    \\/     M anipulation  |                                                 |
\*---------------------------------------------------------------------------*/
FoamFile
{
    version     2.0;
    format      ascii;
    class       volScalarField;
    location    "8";
    object      CO2.gas;
}
// * * * * * * * * * * * * * * * * * * * * * * * * * * * * * * * * * * * * * //

dimensions      [0 0 0 0 0 0 0];

internalField   nonuniform List<scalar> 
100
(
0.166257
0.152601
0.143701
0.136582
0.12933
0.123885
0.12031
0.118004
0.115119
0.11268
0.11051
0.108509
0.105661
0.10329
0.100731
0.0992034
0.0970726
0.0942317
0.0917731
0.0901428
0.0890369
0.0881219
0.086882
0.0861522
0.085764
0.085628
0.0863288
0.0868988
0.0869821
0.0862615
0.0849046
0.0840302
0.0838074
0.0838688
0.0836548
0.0827821
0.0815847
0.0799797
0.0786985
0.0770985
0.0761059
0.0751128
0.0737943
0.0727308
0.0715153
0.0704953
0.069538
0.0688335
0.0681066
0.0673496
0.0665809
0.0658195
0.0650029
0.0643921
0.0637715
0.06333
0.0628392
0.062309
0.061748
0.0613374
0.0608092
0.0604159
0.0599248
0.0593318
0.0587062
0.0582047
0.0574873
0.0569704
0.0563273
0.0556659
0.0550093
0.0541748
0.0534426
0.0525525
0.0515056
0.0503075
0.0489454
0.047067
0.0448106
0.0424187
0.04
0.000532722
0.0357819
0.0341622
0.0329165
0.0319191
0.031182
0.0305717
0.0300519
0.029551
0.0289933
0.0284173
0.0277904
0.0270735
0.0263324
0.0254846
0.0245844
0.0236413
0.0226567
0.0216242
)
;

boundaryField
{
    inlet
    {
        type            fixedValue;
        value           uniform 0.2;
    }
    outlet
    {
        type            zeroGradient;
    }
    yzfaces
    {
        type            empty;
    }
}


// ************************************************************************* //
