/*--------------------------------*- C++ -*----------------------------------*\
| =========                 |                                                 |
| \\      /  F ield         | foam-extend: Open Source CFD                    |
|  \\    /   O peration     | Version:     5.0                                |
|   \\  /    A nd           | Web:         http://www.foam-extend.org         |
|    \\/     M anipulation  |                                                 |
\*---------------------------------------------------------------------------*/
FoamFile
{
    version     2.0;
    format      ascii;
    class       volScalarField;
    location    "8";
    object      Na.water;
}
// * * * * * * * * * * * * * * * * * * * * * * * * * * * * * * * * * * * * * //

dimensions      [0 0 0 0 0 0 0];

internalField   nonuniform List<scalar> 
100
(
8.36565e-16
0.00142307
0.00306584
0.00403585
0.00446365
0.00479058
0.00530831
0.0058801
0.00631268
0.00657383
0.0067443
0.00689886
0.00704457
0.00717485
0.00728293
0.00740599
0.00753182
0.00765871
0.00782386
0.00799267
0.00813773
0.00824639
0.00834689
0.0084737
0.00859094
0.00867184
0.00871022
0.0087557
0.00887138
0.00905383
0.00925968
0.00945778
0.00956486
0.00957422
0.0094848
0.00936658
0.00927977
0.00923164
0.00920697
0.0091906
0.00921353
0.00924406
0.00926105
0.00930333
0.00943093
0.00968993
0.00997419
0.010177
0.010267
0.0103157
0.0103237
0.0102298
0.0101787
0.0103348
0.0106496
0.0108859
0.0109176
0.0109245
0.0111765
0.0114871
0.01149
0.0112638
0.0112044
0.0116413
0.0118709
0.0115037
0.011107
0.0113819
0.0110325
0.0102755
0.0103121
0.0114797
0.0104956
0.00967819
0.0107624
0.0129797
0.00915955
0.00953552
0.0128128
0.0159076
0.017895
5.45397e-15
0.0195523
0.0198611
0.0200336
0.0201119
0.0201664
0.0201844
0.020185
0.0201695
0.0201488
0.0201474
0.0201333
0.0201168
0.0201173
0.0200971
0.0200829
0.0200766
0.0200778
0.0200547
)
;

boundaryField
{
    inlet
    {
        type            fixedValue;
        value           uniform 0;
    }
    outlet
    {
        type            zeroGradient;
    }
    yzfaces
    {
        type            empty;
    }
}


// ************************************************************************* //
