/*--------------------------------*- C++ -*----------------------------------*\
| =========                 |                                                 |
| \\      /  F ield         | foam-extend: Open Source CFD                    |
|  \\    /   O peration     | Version:     5.0                                |
|   \\  /    A nd           | Web:         http://www.foam-extend.org         |
|    \\/     M anipulation  |                                                 |
\*---------------------------------------------------------------------------*/
FoamFile
{
    version     2.0;
    format      ascii;
    class       surfaceScalarField;
    location    "8";
    object      phi;
}
// * * * * * * * * * * * * * * * * * * * * * * * * * * * * * * * * * * * * * //

dimensions      [0 3 -1 0 0 0 0];

internalField   nonuniform List<scalar> 
99
(
1.23641e-06
1.22654e-06
1.22937e-06
1.22867e-06
1.23597e-06
1.23542e-06
1.2337e-06
1.24147e-06
1.2408e-06
1.23674e-06
1.23628e-06
1.23022e-06
1.22837e-06
1.22742e-06
1.23227e-06
1.22999e-06
1.22812e-06
1.22583e-06
1.22993e-06
1.23397e-06
1.2364e-06
1.23365e-06
1.23753e-06
1.24575e-06
1.24595e-06
1.25058e-06
1.25214e-06
1.25602e-06
1.24948e-06
1.24176e-06
1.23392e-06
1.24085e-06
1.24501e-06
1.23994e-06
1.23419e-06
1.23262e-06
1.2225e-06
1.21455e-06
1.19888e-06
1.19321e-06
1.19315e-06
1.18597e-06
1.18847e-06
1.18254e-06
1.18177e-06
1.18354e-06
1.18185e-06
1.18069e-06
1.18145e-06
1.17705e-06
1.18028e-06
1.18339e-06
1.18925e-06
1.19197e-06
1.19547e-06
1.19339e-06
1.19789e-06
1.19555e-06
1.19903e-06
1.19685e-06
1.19714e-06
1.19388e-06
1.19309e-06
1.19272e-06
1.19338e-06
1.19245e-06
1.19228e-06
1.19507e-06
1.1906e-06
1.1901e-06
1.1918e-06
1.18915e-06
1.18877e-06
1.18989e-06
1.19192e-06
1.19071e-06
1.19332e-06
1.19007e-06
1.19091e-06
1.19095e-06
1.19168e-06
1.19081e-06
1.19065e-06
1.19167e-06
1.19157e-06
1.1929e-06
1.1946e-06
1.19444e-06
1.19306e-06
1.19264e-06
1.19303e-06
1.19514e-06
1.19478e-06
1.19432e-06
1.19302e-06
1.19367e-06
1.19314e-06
1.19268e-06
1.19334e-06
)
;

boundaryField
{
    inlet
    {
        type            calculated;
        value           uniform -1.225e-06;
    }
    outlet
    {
        type            calculated;
        value           uniform 1.19314e-06;
    }
    yzfaces
    {
        type            empty;
    }
}


// ************************************************************************* //
