/*--------------------------------*- C++ -*----------------------------------*\
| =========                 |                                                 |
| \\      /  F ield         | foam-extend: Open Source CFD                    |
|  \\    /   O peration     | Version:     5.0                                |
|   \\  /    A nd           | Web:         http://www.foam-extend.org         |
|    \\/     M anipulation  |                                                 |
\*---------------------------------------------------------------------------*/
FoamFile
{
    version     2.0;
    format      ascii;
    class       volVectorField;
    location    "8";
    object      U.gas;
}
// * * * * * * * * * * * * * * * * * * * * * * * * * * * * * * * * * * * * * //

dimensions      [0 1 -1 0 0 0 0];

internalField   nonuniform List<vector> 
100
(
(0.0060501 0 0)
(0.00655059 0 0)
(0.00691521 0 0)
(0.00724424 0 0)
(0.00757148 0 0)
(0.00787483 0 0)
(0.00812534 0 0)
(0.00834602 0 0)
(0.00856356 0 0)
(0.00871565 0 0)
(0.00884607 0 0)
(0.00894853 0 0)
(0.009078 0 0)
(0.00922563 0 0)
(0.00940795 0 0)
(0.00954466 0 0)
(0.0096723 0 0)
(0.00983766 0 0)
(0.0100402 0 0)
(0.0102304 0 0)
(0.0103769 0 0)
(0.0104714 0 0)
(0.0106053 0 0)
(0.0107651 0 0)
(0.0108756 0 0)
(0.0109367 0 0)
(0.0109391 0 0)
(0.010946 0 0)
(0.0109377 0 0)
(0.010926 0 0)
(0.0109503 0 0)
(0.0110286 0 0)
(0.0111079 0 0)
(0.0111045 0 0)
(0.011071 0 0)
(0.0110983 0 0)
(0.0111254 0 0)
(0.0111504 0 0)
(0.0111313 0 0)
(0.0111403 0 0)
(0.0111775 0 0)
(0.0112143 0 0)
(0.0112916 0 0)
(0.0113653 0 0)
(0.0114302 0 0)
(0.0115165 0 0)
(0.0115926 0 0)
(0.0116361 0 0)
(0.0116848 0 0)
(0.0117215 0 0)
(0.0117874 0 0)
(0.0118744 0 0)
(0.0119924 0 0)
(0.0120842 0 0)
(0.0121591 0 0)
(0.0122003 0 0)
(0.0122547 0 0)
(0.0123079 0 0)
(0.0123538 0 0)
(0.0123878 0 0)
(0.0124151 0 0)
(0.0124312 0 0)
(0.0124423 0 0)
(0.0124753 0 0)
(0.012521 0 0)
(0.0125469 0 0)
(0.0125867 0 0)
(0.0126358 0 0)
(0.0126665 0 0)
(0.012683 0 0)
(0.0127274 0 0)
(0.0127666 0 0)
(0.0127897 0 0)
(0.0128465 0 0)
(0.0129205 0 0)
(0.0129855 0 0)
(0.0130666 0 0)
(0.0131544 0 0)
(0.01322 0 0)
(0.0132378 0 0)
(0.0131817 0 0)
(0.0130342 0 0)
(0.0128332 0 0)
(0.0126214 0 0)
(0.0124217 0 0)
(0.012269 0 0)
(0.0121668 0 0)
(0.0121063 0 0)
(0.0120613 0 0)
(0.0120485 0 0)
(0.0120612 0 0)
(0.0120882 0 0)
(0.0121123 0 0)
(0.0121308 0 0)
(0.0121351 0 0)
(0.012152 0 0)
(0.0121684 0 0)
(0.0121787 0 0)
(0.0121916 0 0)
(0.0121989 0 0)
)
;

boundaryField
{
    inlet
    {
        type            fixedValue;
        value           uniform (0.005 0 0);
    }
    outlet
    {
        type            zeroGradient;
    }
    yzfaces
    {
        type            empty;
    }
}


// ************************************************************************* //
