/*--------------------------------*- C++ -*----------------------------------*\
| =========                 |                                                 |
| \\      /  F ield         | foam-extend: Open Source CFD                    |
|  \\    /   O peration     | Version:     5.0                                |
|   \\  /    A nd           | Web:         http://www.foam-extend.org         |
|    \\/     M anipulation  |                                                 |
\*---------------------------------------------------------------------------*/
FoamFile
{
    version     2.0;
    format      ascii;
    class       volVectorField;
    location    "8";
    object      U.water;
}
// * * * * * * * * * * * * * * * * * * * * * * * * * * * * * * * * * * * * * //

dimensions      [0 1 -1 0 0 0 0];

internalField   nonuniform List<vector> 
100
(
(3.55461e-05 0 0)
(8.27388e-05 0 0)
(0.000124362 0 0)
(0.000162439 0 0)
(0.000199442 0 0)
(0.000236449 0 0)
(0.000272143 0 0)
(0.000307246 0 0)
(0.000338366 0 0)
(0.000366754 0 0)
(0.000392493 0 0)
(0.000415444 0 0)
(0.000437934 0 0)
(0.000465678 0 0)
(0.000496445 0 0)
(0.000526299 0 0)
(0.000552152 0 0)
(0.000582992 0 0)
(0.000622682 0 0)
(0.000665718 0 0)
(0.000703076 0 0)
(0.000732497 0 0)
(0.000760084 0 0)
(0.000794074 0 0)
(0.000823704 0 0)
(0.000844513 0 0)
(0.000854299 0 0)
(0.000852647 0 0)
(0.000848218 0 0)
(0.000847798 0 0)
(0.000859166 0 0)
(0.000882083 0 0)
(0.000904848 0 0)
(0.000912963 0 0)
(0.000912198 0 0)
(0.000917517 0 0)
(0.000931005 0 0)
(0.000949522 0 0)
(0.000970376 0 0)
(0.000993412 0 0)
(0.00102291 0 0)
(0.0010451 0 0)
(0.00107137 0 0)
(0.00110322 0 0)
(0.001135 0 0)
(0.00117145 0 0)
(0.00120549 0 0)
(0.00123518 0 0)
(0.00126172 0 0)
(0.00128449 0 0)
(0.0013111 0 0)
(0.0013454 0 0)
(0.00138169 0 0)
(0.00141891 0 0)
(0.00145081 0 0)
(0.0014767 0 0)
(0.00150067 0 0)
(0.00152578 0 0)
(0.00155128 0 0)
(0.00157543 0 0)
(0.00159625 0 0)
(0.00161637 0 0)
(0.00163584 0 0)
(0.00165914 0 0)
(0.00168626 0 0)
(0.00171338 0 0)
(0.0017396 0 0)
(0.00177225 0 0)
(0.00180274 0 0)
(0.00183257 0 0)
(0.00186912 0 0)
(0.00190749 0 0)
(0.0019477 0 0)
(0.00199435 0 0)
(0.00205142 0 0)
(0.00211636 0 0)
(0.00219568 0 0)
(0.00229616 0 0)
(0.00242551 0 0)
(0.00258404 0 0)
(0.00275561 0 0)
(0.00292406 0 0)
(0.00307442 0 0)
(0.00320221 0 0)
(0.00329904 0 0)
(0.00336646 0 0)
(0.00341184 0 0)
(0.00343468 0 0)
(0.00343862 0 0)
(0.00343182 0 0)
(0.00342338 0 0)
(0.00341774 0 0)
(0.00340966 0 0)
(0.00339769 0 0)
(0.00338611 0 0)
(0.00337578 0 0)
(0.00336754 0 0)
(0.00335885 0 0)
(0.00335303 0 0)
(0.00334912 0 0)
)
;

boundaryField
{
    inlet
    {
        type            fixedValue;
        value           uniform (0 0 0);
    }
    outlet
    {
        type            zeroGradient;
    }
    yzfaces
    {
        type            empty;
    }
}


// ************************************************************************* //
