/*--------------------------------*- C++ -*----------------------------------*\
| =========                 |                                                 |
| \\      /  F ield         | foam-extend: Open Source CFD                    |
|  \\    /   O peration     | Version:     5.0                                |
|   \\  /    A nd           | Web:         http://www.foam-extend.org         |
|    \\/     M anipulation  |                                                 |
\*---------------------------------------------------------------------------*/
FoamFile
{
    version     2.0;
    format      ascii;
    class       volScalarField;
    location    "100";
    object      alpha.water;
}
// * * * * * * * * * * * * * * * * * * * * * * * * * * * * * * * * * * * * * //

dimensions      [0 0 0 0 0 0 0];

internalField   nonuniform List<scalar> 
100
(
0.00687258
0.0134003
0.0267585
0.0378535
0.0374599
0.0350205
0.0345206
0.0350005
0.0345403
0.0352841
0.0340989
0.0356607
0.0340208
0.0354443
0.0340143
0.0351748
0.0344302
0.0350744
0.0343106
0.0350176
0.034356
0.0350366
0.0350744
0.0348736
0.0355814
0.0351191
0.0381206
0.042623
0.0473755
0.0526407
0.0506279
0.0512894
0.0527549
0.0539897
0.0539164
0.0546373
0.0542261
0.0546569
0.0538834
0.0541078
0.0548072
0.0552736
0.053914
0.0542212
0.0543925
0.0543743
0.0551515
0.054
0.0553787
0.0569044
0.0552799
0.0517432
0.0487709
0.0491414
0.052029
0.0522665
0.0507411
0.0501629
0.0499064
0.0507901
0.0521552
0.0530781
0.0531412
0.0545078
0.0546415
0.0529222
0.0516391
0.0505152
0.0503995
0.0513624
0.0522105
0.0513756
0.0520513
0.0496386
0.0477016
0.0467114
0.0463894
0.0475445
0.0478162
0.0483445
0.0491063
0.0501703
0.0500044
0.0513016
0.052948
0.0529865
0.0539896
0.0546372
0.055481
0.0571602
0.0591364
0.062143
0.0637268
0.0673546
0.0702236
0.071723
0.0732514
0.0750634
0.0756215
0.0759547
)
;

boundaryField
{
    inlet
    {
        type            fixedValue;
        value           uniform 0;
    }
    outlet
    {
        type            zeroGradient;
    }
    yzfaces
    {
        type            empty;
    }
}


// ************************************************************************* //
