/*--------------------------------*- C++ -*----------------------------------*\
| =========                 |                                                 |
| \\      /  F ield         | foam-extend: Open Source CFD                    |
|  \\    /   O peration     | Version:     5.0                                |
|   \\  /    A nd           | Web:         http://www.foam-extend.org         |
|    \\/     M anipulation  |                                                 |
\*---------------------------------------------------------------------------*/
FoamFile
{
    version     2.0;
    format      ascii;
    class       volScalarField;
    location    "100";
    object      alpha.water;
}
// * * * * * * * * * * * * * * * * * * * * * * * * * * * * * * * * * * * * * //

dimensions      [0 0 0 0 0 0 0];

internalField   nonuniform List<scalar> 
100
(
0.00642959
0.0129036
0.0260083
0.036604
0.0366763
0.0337454
0.0356547
0.0341872
0.035442
0.0338772
0.0356936
0.0340384
0.03545
0.0342611
0.0350881
0.0346397
0.0349156
0.0347277
0.0348585
0.0345776
0.0348191
0.0349878
0.034821
0.0351661
0.0351188
0.0350605
0.0376309
0.0429146
0.0490472
0.0479829
0.0453656
0.0438807
0.0467379
0.0509091
0.0525048
0.0529511
0.0535511
0.054583
0.0548691
0.04766
0.0453545
0.0432491
0.0441568
0.0471782
0.0508355
0.0527389
0.0551969
0.0573855
0.0566236
0.0543569
0.053715
0.0540175
0.0547563
0.054806
0.0549337
0.0547669
0.0550445
0.0550508
0.0554211
0.0544587
0.0505392
0.0484478
0.0480363
0.0482458
0.0487968
0.049171
0.0512293
0.0509745
0.0517987
0.0517282
0.0498385
0.047494
0.0469754
0.0489253
0.0499838
0.0477462
0.0471582
0.0472383
0.0472554
0.0467452
0.0473236
0.0474352
0.0497859
0.0514724
0.0527026
0.0538165
0.0555127
0.0561976
0.0573147
0.0586483
0.0602834
0.0627473
0.0649832
0.0664051
0.0685989
0.0704182
0.07264
0.0740852
0.0757549
0.079229
)
;

boundaryField
{
    inlet
    {
        type            fixedValue;
        value           uniform 0;
    }
    outlet
    {
        type            zeroGradient;
    }
    yzfaces
    {
        type            empty;
    }
}


// ************************************************************************* //
