/*--------------------------------*- C++ -*----------------------------------*\
| =========                 |                                                 |
| \\      /  F ield         | foam-extend: Open Source CFD                    |
|  \\    /   O peration     | Version:     5.0                                |
|   \\  /    A nd           | Web:         http://www.foam-extend.org         |
|    \\/     M anipulation  |                                                 |
\*---------------------------------------------------------------------------*/
FoamFile
{
    version     2.0;
    format      ascii;
    class       volScalarField;
    location    "100";
    object      Cl.water;
}
// * * * * * * * * * * * * * * * * * * * * * * * * * * * * * * * * * * * * * //

dimensions      [0 0 0 0 0 0 0];

internalField   nonuniform List<scalar> 
100
(
0.000440208
0.000259912
0.000116959
0.000105041
0.00039442
0.0014026
0.00190751
0.00309804
0.00352555
0.00437766
0.00449164
0.00519533
0.00503945
0.005566
0.0053268
0.0057441
0.00551363
0.00590339
0.00588625
0.00622279
0.00627054
0.00639484
0.00663691
0.00658699
0.00673485
0.00689429
0.0068864
0.00688363
0.00797482
0.0131252
0.0145044
0.0122695
0.00873114
0.00720942
0.00741979
0.00772918
0.00805798
0.00826835
0.0103291
0.0153725
0.0146296
0.0131445
0.0106374
0.00807932
0.00700641
0.00677661
0.00688209
0.00798228
0.00982565
0.0111381
0.010777
0.0100101
0.00952703
0.00970674
0.00964151
0.00979251
0.00947238
0.0093203
0.00983359
0.0109158
0.0125425
0.0122899
0.0116607
0.0114471
0.011449
0.0109272
0.0102737
0.0104263
0.0103532
0.0105857
0.0115127
0.0122073
0.0116118
0.0106361
0.0111172
0.0122561
0.0119485
0.0119392
0.0119188
0.0121206
0.0120595
0.0121817
0.0114627
0.0115755
0.0117309
0.0117645
0.0118678
0.0119235
0.0122515
0.01252
0.012318
0.0121313
0.0120839
0.0121272
0.012064
0.0120035
0.0121772
0.0122739
0.0124617
0.0124134
)
;

boundaryField
{
    inlet
    {
        type            fixedValue;
        value           uniform 0;
    }
    outlet
    {
        type            zeroGradient;
    }
    yzfaces
    {
        type            empty;
    }
}


// ************************************************************************* //
