/*--------------------------------*- C++ -*----------------------------------*\
| =========                 |                                                 |
| \\      /  F ield         | foam-extend: Open Source CFD                    |
|  \\    /   O peration     | Version:     5.0                                |
|   \\  /    A nd           | Web:         http://www.foam-extend.org         |
|    \\/     M anipulation  |                                                 |
\*---------------------------------------------------------------------------*/
FoamFile
{
    version     2.0;
    format      ascii;
    class       volScalarField;
    location    "100";
    object      Cl.water;
}
// * * * * * * * * * * * * * * * * * * * * * * * * * * * * * * * * * * * * * //

dimensions      [0 0 0 0 0 0 0];

internalField   nonuniform List<scalar> 
100
(
0.000379127
0.000249528
0.000110403
0.00010356
0.000351268
0.00126436
0.00222098
0.00282224
0.00383116
0.00403349
0.00505172
0.00469046
0.00552557
0.00514438
0.00574946
0.00555549
0.0060225
0.00592086
0.00617265
0.00597267
0.00620587
0.00637733
0.0071008
0.00735096
0.00717846
0.00698961
0.00656789
0.00628074
0.00667441
0.00931421
0.0121687
0.0105447
0.00907391
0.00836593
0.00853699
0.00936618
0.0105057
0.0101011
0.00970345
0.00927569
0.00894016
0.00935428
0.0103071
0.0105587
0.00988371
0.00960123
0.00925846
0.00910719
0.00874301
0.00894045
0.0102662
0.0121816
0.0128177
0.0113343
0.0103743
0.0108975
0.0115431
0.0112066
0.0109758
0.0100795
0.00897753
0.00843428
0.00837272
0.00890929
0.0101018
0.0112031
0.011247
0.0112126
0.0108344
0.0104553
0.0103226
0.0104092
0.0106381
0.0118456
0.0125752
0.0123181
0.0119273
0.0116734
0.0116484
0.0117217
0.0113054
0.011309
0.0116571
0.0114381
0.0114311
0.0117392
0.0118792
0.0120057
0.0122298
0.0122699
0.0124857
0.0123727
0.0125284
0.0123374
0.0126813
0.0132443
0.0137354
0.0136647
0.0137331
0.0139122
)
;

boundaryField
{
    inlet
    {
        type            fixedValue;
        value           uniform 0;
    }
    outlet
    {
        type            zeroGradient;
    }
    yzfaces
    {
        type            empty;
    }
}


// ************************************************************************* //
