/*--------------------------------*- C++ -*----------------------------------*\
| =========                 |                                                 |
| \\      /  F ield         | foam-extend: Open Source CFD                    |
|  \\    /   O peration     | Version:     5.0                                |
|   \\  /    A nd           | Web:         http://www.foam-extend.org         |
|    \\/     M anipulation  |                                                 |
\*---------------------------------------------------------------------------*/
FoamFile
{
    version     2.0;
    format      ascii;
    class       volScalarField;
    location    "100";
    object      CO2.water;
}
// * * * * * * * * * * * * * * * * * * * * * * * * * * * * * * * * * * * * * //

dimensions      [0 0 0 0 0 0 0];

internalField   nonuniform List<scalar> 
100
(
0.000180505
0.000351954
0.000702799
0.000994205
0.000983868
0.000919796
0.000906667
0.000919272
0.000907186
0.000926722
0.000895592
0.000936612
0.000893542
0.000930929
0.000893369
0.000923851
0.000904294
0.000921212
0.000901153
0.000919722
0.000902345
0.00092022
0.000921213
0.000915939
0.00093453
0.000922387
0.00100122
0.00111947
0.0012443
0.00138258
0.00132972
0.00134709
0.00138558
0.00141801
0.00141609
0.00143502
0.00142422
0.00143554
0.00141522
0.00142112
0.00143949
0.00145174
0.00141603
0.0014241
0.00142859
0.00142812
0.00144853
0.00141829
0.0014545
0.00149457
0.0014519
0.00135901
0.00128095
0.00129068
0.00136652
0.00137276
0.00133269
0.0013175
0.00131077
0.00133398
0.00136983
0.00139407
0.00139573
0.00143162
0.00143513
0.00138998
0.00135628
0.00132676
0.00132372
0.00134901
0.00137128
0.00134936
0.0013671
0.00130373
0.00125286
0.00122685
0.0012184
0.00124873
0.00125587
0.00126975
0.00128975
0.0013177
0.00131334
0.00134741
0.00139065
0.00139167
0.00141801
0.00143502
0.00145718
0.00150129
0.00155319
0.00163216
0.00167376
0.00176904
0.00184439
0.00188377
0.00192391
0.0019715
0.00198616
0.00199491
)
;

boundaryField
{
    inlet
    {
        type            fixedValue;
        value           uniform 0;
    }
    outlet
    {
        type            zeroGradient;
    }
    yzfaces
    {
        type            empty;
    }
}


// ************************************************************************* //
