/*--------------------------------*- C++ -*----------------------------------*\
| =========                 |                                                 |
| \\      /  F ield         | foam-extend: Open Source CFD                    |
|  \\    /   O peration     | Version:     5.0                                |
|   \\  /    A nd           | Web:         http://www.foam-extend.org         |
|    \\/     M anipulation  |                                                 |
\*---------------------------------------------------------------------------*/
FoamFile
{
    version     2.0;
    format      ascii;
    class       volScalarField;
    location    "100";
    object      CO2.water;
}
// * * * * * * * * * * * * * * * * * * * * * * * * * * * * * * * * * * * * * //

dimensions      [0 0 0 0 0 0 0];

internalField   nonuniform List<scalar> 
100
(
0.00016887
0.000338906
0.000683096
0.000961387
0.000963287
0.000886307
0.000936454
0.000897912
0.000930868
0.00088977
0.000937475
0.000894003
0.000931079
0.000899853
0.000921573
0.000909797
0.000917042
0.000912106
0.000915543
0.000908165
0.000914507
0.000918937
0.000914558
0.000923621
0.000922379
0.000920849
0.000988357
0.00112713
0.0012882
0.00126025
0.00119151
0.00115251
0.00122755
0.0013371
0.00137901
0.00139074
0.0014065
0.0014336
0.00144111
0.00125177
0.00119122
0.00113592
0.00115976
0.00123911
0.00133517
0.00138516
0.00144972
0.0015072
0.00148719
0.00142766
0.0014108
0.00141875
0.00143815
0.00143945
0.00144281
0.00143843
0.00144572
0.00144588
0.00145561
0.00143033
0.00132739
0.00127246
0.00126165
0.00126715
0.00128162
0.00129145
0.00134551
0.00133882
0.00136047
0.00135862
0.00130899
0.00124741
0.00123379
0.001285
0.0013128
0.00125403
0.00123859
0.00124069
0.00124114
0.00122774
0.00124293
0.00124586
0.0013076
0.0013519
0.00138421
0.00141347
0.00145802
0.001476
0.00150534
0.00154037
0.00158332
0.00164803
0.00170675
0.0017441
0.00180172
0.0018495
0.00190786
0.00194581
0.00198967
0.00208091
)
;

boundaryField
{
    inlet
    {
        type            fixedValue;
        value           uniform 0;
    }
    outlet
    {
        type            zeroGradient;
    }
    yzfaces
    {
        type            empty;
    }
}


// ************************************************************************* //
