/*--------------------------------*- C++ -*----------------------------------*\
| =========                 |                                                 |
| \\      /  F ield         | foam-extend: Open Source CFD                    |
|  \\    /   O peration     | Version:     5.0                                |
|   \\  /    A nd           | Web:         http://www.foam-extend.org         |
|    \\/     M anipulation  |                                                 |
\*---------------------------------------------------------------------------*/
FoamFile
{
    version     2.0;
    format      ascii;
    class       volScalarField;
    location    "100";
    object      H2O.gas;
}
// * * * * * * * * * * * * * * * * * * * * * * * * * * * * * * * * * * * * * //

dimensions      [0 0 0 0 0 0 0];

internalField   nonuniform List<scalar> 
100
(
0.000376973
0.000364365
0.000338844
0.000318209
0.000318068
0.000323776
0.000320058
0.000322916
0.000320472
0.000323519
0.000319982
0.000323205
0.000320456
0.000322772
0.000321161
0.000322034
0.000321497
0.000321863
0.000321608
0.000322155
0.000321685
0.000321357
0.000321681
0.000321009
0.000321101
0.000321215
0.000316209
0.000305919
0.000293976
0.000296049
0.000301146
0.000304038
0.000298473
0.00029035
0.000287243
0.000286373
0.000285205
0.000283195
0.000282638
0.000296678
0.000301168
0.000305268
0.0003035
0.000297616
0.000290493
0.000286787
0.000282
0.000277738
0.000279221
0.000283636
0.000284886
0.000284297
0.000282858
0.000282761
0.000282512
0.000282837
0.000282297
0.000282284
0.000281563
0.000283437
0.000291071
0.000295143
0.000295945
0.000295537
0.000294464
0.000293735
0.000289727
0.000290223
0.000288618
0.000288755
0.000292435
0.000297001
0.000298011
0.000294214
0.000292152
0.00029651
0.000297655
0.000297499
0.000297466
0.000298459
0.000297333
0.000297116
0.000292538
0.000289253
0.000286857
0.000284688
0.000281385
0.000280051
0.000277875
0.000275278
0.000272094
0.000267296
0.000262941
0.000260172
0.0002559
0.000252357
0.00024803
0.000245215
0.000241964
0.000235198
)
;

boundaryField
{
    inlet
    {
        type            fixedValue;
        value           uniform 0;
    }
    outlet
    {
        type            zeroGradient;
    }
    yzfaces
    {
        type            empty;
    }
}


// ************************************************************************* //
