/*--------------------------------*- C++ -*----------------------------------*\
| =========                 |                                                 |
| \\      /  F ield         | foam-extend: Open Source CFD                    |
|  \\    /   O peration     | Version:     5.0                                |
|   \\  /    A nd           | Web:         http://www.foam-extend.org         |
|    \\/     M anipulation  |                                                 |
\*---------------------------------------------------------------------------*/
FoamFile
{
    version     2.0;
    format      ascii;
    class       volScalarField;
    location    "100";
    object      H2O.water;
}
// * * * * * * * * * * * * * * * * * * * * * * * * * * * * * * * * * * * * * //

dimensions      [0 0 0 0 0 0 0];

internalField   nonuniform List<scalar> 
100
(
0.00538038
0.0120448
0.0250912
0.0354324
0.034924
0.0300529
0.0309008
0.0270906
0.0274549
0.0242258
0.0257677
0.0227479
0.0244355
0.0222256
0.0235082
0.0222356
0.0229651
0.0219997
0.0221594
0.0212154
0.0213557
0.0212738
0.0206325
0.0210716
0.0207219
0.0203424
0.0228632
0.028012
0.031801
0.0204589
0.0151548
0.018177
0.0280532
0.0351565
0.0362898
0.0361074
0.0360379
0.0366235
0.0327836
0.0156771
0.0149177
0.015836
0.0217296
0.0297861
0.0354926
0.0378037
0.039989
0.0399169
0.035483
0.0306503
0.0307531
0.0325792
0.034263
0.0339507
0.0342056
0.0337454
0.0346578
0.0349718
0.0343146
0.0312135
0.0241441
0.0226128
0.0234614
0.0240916
0.0246192
0.0260281
0.0293412
0.0287831
0.0297314
0.0291886
0.0254967
0.0218179
0.0225046
0.0263559
0.0264249
0.0219684
0.0220157
0.0221056
0.0221715
0.0212663
0.0219535
0.0218108
0.0255497
0.0269657
0.0278659
0.0288812
0.0303263
0.0308719
0.03131
0.0320827
0.0340787
0.0368541
0.0391315
0.0404239
0.04268
0.0445725
0.0463878
0.047602
0.0488591
0.0523355
)
;

boundaryField
{
    inlet
    {
        type            fixedValue;
        value           uniform 0;
    }
    outlet
    {
        type            zeroGradient;
    }
    yzfaces
    {
        type            empty;
    }
}


// ************************************************************************* //
