/*--------------------------------*- C++ -*----------------------------------*\
| =========                 |                                                 |
| \\      /  F ield         | foam-extend: Open Source CFD                    |
|  \\    /   O peration     | Version:     5.0                                |
|   \\  /    A nd           | Web:         http://www.foam-extend.org         |
|    \\/     M anipulation  |                                                 |
\*---------------------------------------------------------------------------*/
FoamFile
{
    version     2.0;
    format      ascii;
    class       volScalarField;
    location    "100";
    object      H2O.water;
}
// * * * * * * * * * * * * * * * * * * * * * * * * * * * * * * * * * * * * * //

dimensions      [0 0 0 0 0 0 0];

internalField   nonuniform List<scalar> 
100
(
0.00593398
0.0125494
0.0258349
0.0366522
0.0357733
0.031571
0.0291697
0.028436
0.0259707
0.0262855
0.0230929
0.0253357
0.0220654
0.0242149
0.0216132
0.0231298
0.0214723
0.0223015
0.0210542
0.0221479
0.0210383
0.0213622
0.0199522
0.0192648
0.0202985
0.0202209
0.0239891
0.0289442
0.0327897
0.0326434
0.0249828
0.0288642
0.0332394
0.0358539
0.035443
0.0344835
0.0318024
0.0330294
0.033072
0.0341346
0.0354772
0.0351046
0.0318711
0.0316768
0.0331977
0.0337528
0.0351965
0.0343759
0.0364561
0.0375454
0.0333107
0.0260423
0.0218789
0.0251972
0.0299245
0.0291128
0.0263328
0.0264343
0.0266494
0.0292962
0.0328297
0.0348168
0.0350028
0.0352615
0.0330057
0.0291312
0.0277794
0.0267594
0.0274071
0.0291141
0.0302009
0.0292194
0.0294176
0.0246652
0.0213251
0.0208725
0.0213413
0.0229671
0.0232806
0.0236409
0.0252088
0.0262407
0.0253919
0.02708
0.0287048
0.0281227
0.0288154
0.0291907
0.0295549
0.0311121
0.0325987
0.035755
0.0369928
0.0409164
0.0430369
0.0433766
0.0438822
0.0457864
0.0462008
0.046168
)
;

boundaryField
{
    inlet
    {
        type            fixedValue;
        value           uniform 0;
    }
    outlet
    {
        type            zeroGradient;
    }
    yzfaces
    {
        type            empty;
    }
}


// ************************************************************************* //
