/*--------------------------------*- C++ -*----------------------------------*\
| =========                 |                                                 |
| \\      /  F ield         | foam-extend: Open Source CFD                    |
|  \\    /   O peration     | Version:     5.0                                |
|   \\  /    A nd           | Web:         http://www.foam-extend.org         |
|    \\/     M anipulation  |                                                 |
\*---------------------------------------------------------------------------*/
FoamFile
{
    version     2.0;
    format      ascii;
    class       volScalarField;
    location    "100";
    object      H2O.gas;
}
// * * * * * * * * * * * * * * * * * * * * * * * * * * * * * * * * * * * * * //

dimensions      [0 0 0 0 0 0 0];

internalField   nonuniform List<scalar> 
100
(
0.00037611
0.000363397
0.000337383
0.000315776
0.000316542
0.000321293
0.000322266
0.000321332
0.000322228
0.000320779
0.000323088
0.000320046
0.00032324
0.000320467
0.000323252
0.000320992
0.000322442
0.000321188
0.000322675
0.000321298
0.000322587
0.000321261
0.000321188
0.000321579
0.0003202
0.000321101
0.000315255
0.000306487
0.000297232
0.000286978
0.000290898
0.00028961
0.000286755
0.000284351
0.000284494
0.00028309
0.00028389
0.000283051
0.000284558
0.000284121
0.000282759
0.00028185
0.000284498
0.0002839
0.000283566
0.000283602
0.000282088
0.000284331
0.000281646
0.000278674
0.000281838
0.000288726
0.000294514
0.000293793
0.000288169
0.000287707
0.000290677
0.000291803
0.000292303
0.000290582
0.000287924
0.000286126
0.000286003
0.000283342
0.000283081
0.00028643
0.000288929
0.000291117
0.000291343
0.000289467
0.000287816
0.000289442
0.000288126
0.000292825
0.000296597
0.000298525
0.000299152
0.000296903
0.000296373
0.000295345
0.000293861
0.000291789
0.000292112
0.000289586
0.00028638
0.000286305
0.000284351
0.00028309
0.000281446
0.000278176
0.000274328
0.000268473
0.000265388
0.000258323
0.000252736
0.000249816
0.000246839
0.00024331
0.000242224
0.000241575
)
;

boundaryField
{
    inlet
    {
        type            fixedValue;
        value           uniform 0;
    }
    outlet
    {
        type            zeroGradient;
    }
    yzfaces
    {
        type            empty;
    }
}


// ************************************************************************* //
