/*--------------------------------*- C++ -*----------------------------------*\
| =========                 |                                                 |
| \\      /  F ield         | foam-extend: Open Source CFD                    |
|  \\    /   O peration     | Version:     5.0                                |
|   \\  /    A nd           | Web:         http://www.foam-extend.org         |
|    \\/     M anipulation  |                                                 |
\*---------------------------------------------------------------------------*/
FoamFile
{
    version     2.0;
    format      ascii;
    class       volScalarField;
    location    "100";
    object      Na.water;
}
// * * * * * * * * * * * * * * * * * * * * * * * * * * * * * * * * * * * * * //

dimensions      [0 0 0 0 0 0 0];

internalField   nonuniform List<scalar> 
100
(
0.000378974
0.000249458
0.000110406
0.000103577
0.00035148
0.00126525
0.00222326
0.00282302
0.00383128
0.00403839
0.00505866
0.00469795
0.0055363
0.00515409
0.00575822
0.00556567
0.0060311
0.00593077
0.00618266
0.00597729
0.00620947
0.00637681
0.00710016
0.00734187
0.00716996
0.00698615
0.0065624
0.00627861
0.00666708
0.0093005
0.0121467
0.0105335
0.00905607
0.00835181
0.00852028
0.00935255
0.0104937
0.0100909
0.0096927
0.00927644
0.00895041
0.00936295
0.0103198
0.0105616
0.00988248
0.00959217
0.009248
0.00909863
0.00872517
0.00892398
0.0102512
0.0121604
0.0127934
0.0113192
0.0103636
0.0108835
0.0115325
0.0112045
0.0109705
0.0100803
0.00897814
0.00843299
0.00836988
0.00890537
0.0100989
0.0111979
0.0112564
0.0112164
0.0108342
0.0104439
0.0103157
0.0103976
0.0106285
0.011824
0.0125484
0.012294
0.0119024
0.0116552
0.0116313
0.0117121
0.0113023
0.0113029
0.011642
0.011436
0.0114214
0.0117329
0.0118771
0.0120057
0.0122392
0.0122769
0.0124988
0.012383
0.0125318
0.0123318
0.012661
0.0132183
0.0137098
0.0136408
0.0137014
0.0138796
)
;

boundaryField
{
    inlet
    {
        type            fixedValue;
        value           uniform 0;
    }
    outlet
    {
        type            zeroGradient;
    }
    yzfaces
    {
        type            empty;
    }
}


// ************************************************************************* //
