/*--------------------------------*- C++ -*----------------------------------*\
| =========                 |                                                 |
| \\      /  F ield         | foam-extend: Open Source CFD                    |
|  \\    /   O peration     | Version:     5.0                                |
|   \\  /    A nd           | Web:         http://www.foam-extend.org         |
|    \\/     M anipulation  |                                                 |
\*---------------------------------------------------------------------------*/
FoamFile
{
    version     2.0;
    format      ascii;
    class       volScalarField;
    location    "100";
    object      Na.water;
}
// * * * * * * * * * * * * * * * * * * * * * * * * * * * * * * * * * * * * * //

dimensions      [0 0 0 0 0 0 0];

internalField   nonuniform List<scalar> 
100
(
0.000440128
0.000259981
0.000117003
0.000105185
0.000394565
0.00140357
0.00190995
0.00310068
0.00353068
0.00438401
0.00449676
0.00520118
0.00504401
0.00556971
0.00533156
0.0057502
0.00551979
0.0059125
0.00589731
0.00623128
0.00627829
0.00640018
0.00663699
0.00658386
0.00673964
0.00690299
0.00689294
0.00689193
0.00798317
0.0131386
0.0145148
0.0122817
0.00872605
0.00720601
0.0074162
0.00772381
0.00804874
0.00825757
0.0103153
0.0153586
0.014616
0.0131326
0.01063
0.00807372
0.00700133
0.00677348
0.00687607
0.00797914
0.00982773
0.0111409
0.0107741
0.0100095
0.00952809
0.00970909
0.00964383
0.0097906
0.00946862
0.00931283
0.00981736
0.0108991
0.0125252
0.0122727
0.0116525
0.0114399
0.0114469
0.0109242
0.0102689
0.0104263
0.0103537
0.0105953
0.0115201
0.0122214
0.0116252
0.0106483
0.011129
0.0122676
0.0119555
0.0119528
0.011924
0.0121306
0.0120676
0.0121968
0.0114659
0.0115793
0.0117216
0.0117573
0.0118606
0.0119261
0.0122479
0.0125053
0.0123034
0.0121139
0.012061
0.0121099
0.0120532
0.0119927
0.0121672
0.0122635
0.0124444
0.0123992
)
;

boundaryField
{
    inlet
    {
        type            fixedValue;
        value           uniform 0;
    }
    outlet
    {
        type            zeroGradient;
    }
    yzfaces
    {
        type            empty;
    }
}


// ************************************************************************* //
