/*--------------------------------*- C++ -*----------------------------------*\
| =========                 |                                                 |
| \\      /  F ield         | foam-extend: Open Source CFD                    |
|  \\    /   O peration     | Version:     5.0                                |
|   \\  /    A nd           | Web:         http://www.foam-extend.org         |
|    \\/     M anipulation  |                                                 |
\*---------------------------------------------------------------------------*/
FoamFile
{
    version     2.0;
    format      ascii;
    class       surfaceScalarField;
    location    "100";
    object      phi;
}
// * * * * * * * * * * * * * * * * * * * * * * * * * * * * * * * * * * * * * //

dimensions      [0 3 -1 0 0 0 0];

internalField   nonuniform List<scalar> 
99
(
1.22797e-06
1.21712e-06
1.22963e-06
1.25058e-06
1.25102e-06
1.23775e-06
1.22901e-06
1.23142e-06
1.20534e-06
1.20757e-06
1.20836e-06
1.21159e-06
1.20622e-06
1.21055e-06
1.21446e-06
1.19552e-06
1.19413e-06
1.19725e-06
1.17465e-06
1.19836e-06
1.19828e-06
1.20613e-06
1.21455e-06
1.21379e-06
1.2014e-06
1.19883e-06
1.18054e-06
1.16911e-06
1.16497e-06
1.17701e-06
1.17254e-06
1.17077e-06
1.16892e-06
1.17731e-06
1.17542e-06
1.16971e-06
1.18246e-06
1.18845e-06
1.19183e-06
1.19215e-06
1.19397e-06
1.18927e-06
1.18224e-06
1.17725e-06
1.18203e-06
1.16961e-06
1.17678e-06
1.17252e-06
1.16231e-06
1.16757e-06
1.14417e-06
1.12873e-06
1.12262e-06
1.13782e-06
1.14142e-06
1.14357e-06
1.1498e-06
1.15077e-06
1.14669e-06
1.15455e-06
1.17138e-06
1.16729e-06
1.16542e-06
1.15957e-06
1.17093e-06
1.15714e-06
1.1625e-06
1.16731e-06
1.17137e-06
1.17838e-06
1.19354e-06
1.20029e-06
1.20826e-06
1.19855e-06
1.206e-06
1.20176e-06
1.21572e-06
1.22331e-06
1.23035e-06
1.24013e-06
1.24019e-06
1.23806e-06
1.23456e-06
1.22036e-06
1.2138e-06
1.20474e-06
1.20113e-06
1.1901e-06
1.18422e-06
1.16818e-06
1.16769e-06
1.15705e-06
1.15728e-06
1.15625e-06
1.1591e-06
1.1717e-06
1.15746e-06
1.15471e-06
1.14453e-06
)
;

boundaryField
{
    inlet
    {
        type            calculated;
        value           uniform -1.225e-06;
    }
    outlet
    {
        type            calculated;
        value           uniform 1.12839e-06;
    }
    yzfaces
    {
        type            empty;
    }
}


// ************************************************************************* //
