/*--------------------------------*- C++ -*----------------------------------*\
| =========                 |                                                 |
| \\      /  F ield         | foam-extend: Open Source CFD                    |
|  \\    /   O peration     | Version:     5.0                                |
|   \\  /    A nd           | Web:         http://www.foam-extend.org         |
|    \\/     M anipulation  |                                                 |
\*---------------------------------------------------------------------------*/
FoamFile
{
    version     2.0;
    format      ascii;
    class       surfaceScalarField;
    location    "100";
    object      phi;
}
// * * * * * * * * * * * * * * * * * * * * * * * * * * * * * * * * * * * * * //

dimensions      [0 3 -1 0 0 0 0];

internalField   nonuniform List<scalar> 
99
(
1.21993e-06
1.22352e-06
1.2375e-06
1.25474e-06
1.24452e-06
1.24035e-06
1.23492e-06
1.24071e-06
1.23317e-06
1.23013e-06
1.25092e-06
1.27803e-06
1.28017e-06
1.27057e-06
1.2837e-06
1.27954e-06
1.27262e-06
1.27884e-06
1.27062e-06
1.28469e-06
1.27349e-06
1.2691e-06
1.26619e-06
1.26955e-06
1.26013e-06
1.25682e-06
1.2518e-06
1.24336e-06
1.24219e-06
1.24896e-06
1.25255e-06
1.25606e-06
1.25036e-06
1.26144e-06
1.26138e-06
1.27635e-06
1.27994e-06
1.27474e-06
1.29962e-06
1.2869e-06
1.29419e-06
1.29752e-06
1.29241e-06
1.29466e-06
1.29653e-06
1.31285e-06
1.31206e-06
1.32321e-06
1.32678e-06
1.33533e-06
1.34065e-06
1.33599e-06
1.33516e-06
1.34438e-06
1.34674e-06
1.35765e-06
1.35222e-06
1.35707e-06
1.35879e-06
1.36625e-06
1.37502e-06
1.36161e-06
1.36609e-06
1.36927e-06
1.38065e-06
1.37714e-06
1.39109e-06
1.39865e-06
1.39162e-06
1.39897e-06
1.40373e-06
1.39942e-06
1.40774e-06
1.41371e-06
1.41979e-06
1.42397e-06
1.42303e-06
1.43488e-06
1.43589e-06
1.4337e-06
1.43888e-06
1.43652e-06
1.43785e-06
1.44784e-06
1.44067e-06
1.41846e-06
1.42593e-06
1.4063e-06
1.3954e-06
1.37871e-06
1.3786e-06
1.37889e-06
1.36984e-06
1.36398e-06
1.35145e-06
1.35532e-06
1.36247e-06
1.34354e-06
1.33988e-06
)
;

boundaryField
{
    inlet
    {
        type            calculated;
        value           uniform -1.225e-06;
    }
    outlet
    {
        type            calculated;
        value           uniform 1.32843e-06;
    }
    yzfaces
    {
        type            empty;
    }
}


// ************************************************************************* //
