/*--------------------------------*- C++ -*----------------------------------*\
| =========                 |                                                 |
| \\      /  F ield         | foam-extend: Open Source CFD                    |
|  \\    /   O peration     | Version:     5.0                                |
|   \\  /    A nd           | Web:         http://www.foam-extend.org         |
|    \\/     M anipulation  |                                                 |
\*---------------------------------------------------------------------------*/
FoamFile
{
    version     2.0;
    format      ascii;
    class       surfaceScalarField;
    location    "100";
    object      phi.water;
}
// * * * * * * * * * * * * * * * * * * * * * * * * * * * * * * * * * * * * * //

dimensions      [0 3 -1 0 0 0 0];

internalField   nonuniform List<scalar> 
99
(
8.7303e-09
1.77494e-08
5.17711e-08
1.02672e-07
1.03719e-07
9.08571e-08
8.70858e-08
8.9941e-08
8.48705e-08
9.05208e-08
8.28863e-08
9.27724e-08
8.26864e-08
9.14605e-08
8.36673e-08
8.82661e-08
8.43562e-08
8.82141e-08
8.20681e-08
8.839e-08
8.45738e-08
8.8239e-08
8.91731e-08
8.71797e-08
8.9865e-08
8.41719e-08
9.1672e-08
1.07772e-07
1.26793e-07
1.64149e-07
1.49208e-07
1.50781e-07
1.58586e-07
1.68457e-07
1.66616e-07
1.71467e-07
1.69843e-07
1.7476e-07
1.69254e-07
1.70152e-07
1.74074e-07
1.7858e-07
1.67448e-07
1.68259e-07
1.70162e-07
1.67667e-07
1.75587e-07
1.65177e-07
1.70962e-07
1.84621e-07
1.75606e-07
1.54415e-07
1.34819e-07
1.35046e-07
1.52887e-07
1.57169e-07
1.487e-07
1.45161e-07
1.42177e-07
1.47389e-07
1.56333e-07
1.62002e-07
1.60067e-07
1.68725e-07
1.73749e-07
1.61951e-07
1.55127e-07
1.4918e-07
1.47604e-07
1.53895e-07
1.62605e-07
1.56198e-07
1.65577e-07
1.51979e-07
1.42084e-07
1.35889e-07
1.33482e-07
1.4159e-07
1.42541e-07
1.46279e-07
1.49516e-07
1.56203e-07
1.527e-07
1.572e-07
1.6743e-07
1.65496e-07
1.69939e-07
1.71536e-07
1.73627e-07
1.80984e-07
1.90763e-07
2.10211e-07
2.16681e-07
2.42551e-07
2.67169e-07
2.81605e-07
2.90577e-07
3.07845e-07
3.09935e-07
)
;

boundaryField
{
    inlet
    {
        type            fixedValue;
        value           uniform 0;
    }
    outlet
    {
        type            calculated;
        value           uniform 3.08672e-07;
    }
    yzfaces
    {
        type            empty;
    }
}


// ************************************************************************* //
