/*--------------------------------*- C++ -*----------------------------------*\
| =========                 |                                                 |
| \\      /  F ield         | foam-extend: Open Source CFD                    |
|  \\    /   O peration     | Version:     5.0                                |
|   \\  /    A nd           | Web:         http://www.foam-extend.org         |
|    \\/     M anipulation  |                                                 |
\*---------------------------------------------------------------------------*/
FoamFile
{
    version     2.0;
    format      ascii;
    class       surfaceScalarField;
    location    "100";
    object      phi.water;
}
// * * * * * * * * * * * * * * * * * * * * * * * * * * * * * * * * * * * * * //

dimensions      [0 3 -1 0 0 0 0];

internalField   nonuniform List<scalar> 
99
(
7.85354e-09
1.7039e-08
5.02078e-08
9.71745e-08
1.0099e-07
8.37128e-08
9.412e-08
8.54742e-08
9.37149e-08
8.37157e-08
9.63557e-08
8.75504e-08
9.65324e-08
8.89839e-08
9.46245e-08
9.1371e-08
9.28566e-08
9.1931e-08
9.2429e-08
9.10556e-08
9.18143e-08
9.25652e-08
9.13176e-08
9.31569e-08
9.23208e-08
8.85219e-08
9.47341e-08
1.14172e-07
1.53014e-07
1.50596e-07
1.36755e-07
1.23674e-07
1.34642e-07
1.60737e-07
1.7147e-07
1.75556e-07
1.78425e-07
1.85694e-07
2.03356e-07
1.52663e-07
1.41973e-07
1.27688e-07
1.28494e-07
1.42409e-07
1.64548e-07
1.75696e-07
1.91604e-07
2.12395e-07
2.09791e-07
1.94379e-07
1.88922e-07
1.89838e-07
1.95076e-07
1.96905e-07
1.9881e-07
1.97915e-07
1.99799e-07
1.99735e-07
2.05598e-07
2.05198e-07
1.79731e-07
1.63564e-07
1.60466e-07
1.60888e-07
1.6605e-07
1.64708e-07
1.8205e-07
1.79574e-07
1.85784e-07
1.89446e-07
1.79009e-07
1.62513e-07
1.56098e-07
1.69394e-07
1.82645e-07
1.66989e-07
1.62211e-07
1.64254e-07
1.64963e-07
1.60128e-07
1.64862e-07
1.6141e-07
1.76216e-07
1.88645e-07
1.94867e-07
1.98918e-07
2.12723e-07
2.12892e-07
2.17867e-07
2.24348e-07
2.34606e-07
2.52676e-07
2.7045e-07
2.79019e-07
2.96162e-07
3.12761e-07
3.35773e-07
3.4608e-07
3.57927e-07
)
;

boundaryField
{
    inlet
    {
        type            fixedValue;
        value           uniform 0;
    }
    outlet
    {
        type            calculated;
        value           uniform 4.02153e-07;
    }
    yzfaces
    {
        type            empty;
    }
}


// ************************************************************************* //
