/*--------------------------------*- C++ -*----------------------------------*\
| =========                 |                                                 |
| \\      /  F ield         | foam-extend: Open Source CFD                    |
|  \\    /   O peration     | Version:     5.0                                |
|   \\  /    A nd           | Web:         http://www.foam-extend.org         |
|    \\/     M anipulation  |                                                 |
\*---------------------------------------------------------------------------*/
FoamFile
{
    version     2.0;
    format      ascii;
    class       volVectorField;
    location    "100";
    object      U.gas;
}
// * * * * * * * * * * * * * * * * * * * * * * * * * * * * * * * * * * * * * //

dimensions      [0 1 -1 0 0 0 0];

internalField   nonuniform List<vector> 
100
(
(0.00518403 0 0)
(0.00534737 0 0)
(0.00575987 0 0)
(0.00622939 0 0)
(0.00626275 0 0)
(0.00614013 0 0)
(0.00606911 0 0)
(0.00607117 0 0)
(0.00599605 0 0)
(0.00596401 0 0)
(0.00592902 0 0)
(0.00599512 0 0)
(0.00593068 0 0)
(0.00597955 0 0)
(0.00594822 0 0)
(0.00595311 0 0)
(0.00587616 0 0)
(0.00590342 0 0)
(0.00582842 0 0)
(0.00585616 0 0)
(0.00589079 0 0)
(0.00593425 0 0)
(0.00597542 0 0)
(0.00598713 0 0)
(0.00598011 0 0)
(0.00592626 0 0)
(0.00598221 0 0)
(0.00607167 0 0)
(0.00621204 0 0)
(0.00644589 0 0)
(0.00637626 0 0)
(0.00638921 0 0)
(0.00644043 0 0)
(0.00650972 0 0)
(0.00652298 0 0)
(0.00653333 0 0)
(0.00653408 0 0)
(0.00660565 0 0)
(0.00659714 0 0)
(0.00661823 0 0)
(0.00665486 0 0)
(0.00666676 0 0)
(0.00657337 0 0)
(0.00655526 0 0)
(0.00656183 0 0)
(0.00653953 0 0)
(0.00655889 0 0)
(0.0065157 0 0)
(0.00653696 0 0)
(0.00658874 0 0)
(0.00646413 0 0)
(0.00621018 0 0)
(0.00603758 0 0)
(0.00607955 0 0)
(0.00624624 0 0)
(0.00626869 0 0)
(0.00622884 0 0)
(0.00622662 0 0)
(0.00620846 0 0)
(0.00625475 0 0)
(0.00637773 0 0)
(0.00645035 0 0)
(0.00643543 0 0)
(0.00647252 0 0)
(0.00649191 0 0)
(0.00641129 0 0)
(0.00633655 0 0)
(0.00631926 0 0)
(0.00633974 0 0)
(0.00641006 0 0)
(0.00650559 0 0)
(0.00652889 0 0)
(0.00659929 0 0)
(0.0064905 0 0)
(0.00640647 0 0)
(0.0063765 0 0)
(0.00639013 0 0)
(0.00649509 0 0)
(0.00654434 0 0)
(0.0066114 0 0)
(0.00666987 0 0)
(0.00670968 0 0)
(0.00668607 0 0)
(0.00669476 0 0)
(0.00670894 0 0)
(0.00666554 0 0)
(0.00667488 0 0)
(0.00666179 0 0)
(0.00665134 0 0)
(0.00666379 0 0)
(0.00670425 0 0)
(0.00680956 0 0)
(0.00684961 0 0)
(0.00702385 0 0)
(0.00716999 0 0)
(0.00729119 0 0)
(0.00736538 0 0)
(0.00740743 0 0)
(0.00739173 0 0)
(0.007324 0 0)
)
;

boundaryField
{
    inlet
    {
        type            fixedValue;
        value           uniform (0.005 0 0);
    }
    outlet
    {
        type            zeroGradient;
    }
    yzfaces
    {
        type            empty;
    }
}


// ************************************************************************* //
