/*--------------------------------*- C++ -*----------------------------------*\
| =========                 |                                                 |
| \\      /  F ield         | foam-extend: Open Source CFD                    |
|  \\    /   O peration     | Version:     5.0                                |
|   \\  /    A nd           | Web:         http://www.foam-extend.org         |
|    \\/     M anipulation  |                                                 |
\*---------------------------------------------------------------------------*/
FoamFile
{
    version     2.0;
    format      ascii;
    class       volVectorField;
    location    "100";
    object      U.gas;
}
// * * * * * * * * * * * * * * * * * * * * * * * * * * * * * * * * * * * * * //

dimensions      [0 1 -1 0 0 0 0];

internalField   nonuniform List<vector> 
100
(
(0.00515522 0 0)
(0.00532964 0 0)
(0.00576879 0 0)
(0.00621281 0 0)
(0.00622812 0 0)
(0.0060846 0 0)
(0.00613211 0 0)
(0.00607857 0 0)
(0.00612069 0 0)
(0.0060372 0 0)
(0.00614778 0 0)
(0.00620396 0 0)
(0.0063297 0 0)
(0.0062658 0 0)
(0.00630612 0 0)
(0.00631092 0 0)
(0.00629424 0 0)
(0.0062853 0 0)
(0.0062854 0 0)
(0.00628927 0 0)
(0.00630556 0 0)
(0.00627328 0 0)
(0.00624894 0 0)
(0.00626302 0 0)
(0.00624609 0 0)
(0.00621251 0 0)
(0.00628847 0 0)
(0.00645973 0 0)
(0.00668644 0 0)
(0.00664991 0 0)
(0.00656818 0 0)
(0.00652797 0 0)
(0.00664258 0 0)
(0.00683576 0 0)
(0.00693347 0 0)
(0.00699305 0 0)
(0.00707165 0 0)
(0.00711506 0 0)
(0.00718229 0 0)
(0.0068831 0 0)
(0.00677706 0 0)
(0.00671767 0 0)
(0.00675319 0 0)
(0.00687534 0 0)
(0.007048 0 0)
(0.00718261 0 0)
(0.00734192 0 0)
(0.00747673 0 0)
(0.00747646 0 0)
(0.00739854 0 0)
(0.00740884 0 0)
(0.00742652 0 0)
(0.00744745 0 0)
(0.00747227 0 0)
(0.00751087 0 0)
(0.00753937 0 0)
(0.00756887 0 0)
(0.00756705 0 0)
(0.00760421 0 0)
(0.00758046 0 0)
(0.00743251 0 0)
(0.00732512 0 0)
(0.00728447 0 0)
(0.00731539 0 0)
(0.00738022 0 0)
(0.00741856 0 0)
(0.00754669 0 0)
(0.00759007 0 0)
(0.00763285 0 0)
(0.00762904 0 0)
(0.00756836 0 0)
(0.00745838 0 0)
(0.00744714 0 0)
(0.00757998 0 0)
(0.00766232 0 0)
(0.00757846 0 0)
(0.00756134 0 0)
(0.00759484 0 0)
(0.00762979 0 0)
(0.00760187 0 0)
(0.00763849 0 0)
(0.00765077 0 0)
(0.00776472 0 0)
(0.00787856 0 0)
(0.00794807 0 0)
(0.00792366 0 0)
(0.00797083 0 0)
(0.00797077 0 0)
(0.00794361 0 0)
(0.00793526 0 0)
(0.00797386 0 0)
(0.0081093 0 0)
(0.00820704 0 0)
(0.00824061 0 0)
(0.00831226 0 0)
(0.00839057 0 0)
(0.00855936 0 0)
(0.00860771 0 0)
(0.0086389 0 0)
(0.00881632 0 0)
)
;

boundaryField
{
    inlet
    {
        type            fixedValue;
        value           uniform (0.005 0 0);
    }
    outlet
    {
        type            zeroGradient;
    }
    yzfaces
    {
        type            empty;
    }
}


// ************************************************************************* //
