/*--------------------------------*- C++ -*----------------------------------*\
| =========                 |                                                 |
| \\      /  F ield         | foam-extend: Open Source CFD                    |
|  \\    /   O peration     | Version:     5.0                                |
|   \\  /    A nd           | Web:         http://www.foam-extend.org         |
|    \\/     M anipulation  |                                                 |
\*---------------------------------------------------------------------------*/
FoamFile
{
    version     2.0;
    format      ascii;
    class       volVectorField;
    location    "100";
    object      U.water;
}
// * * * * * * * * * * * * * * * * * * * * * * * * * * * * * * * * * * * * * //

dimensions      [0 1 -1 0 0 0 0];

internalField   nonuniform List<vector> 
100
(
(5.25712e-06 0 0)
(1.3525e-05 0 0)
(3.08296e-05 0 0)
(5.95964e-05 0 0)
(8.30937e-05 0 0)
(8.07451e-05 0 0)
(7.3233e-05 0 0)
(7.18928e-05 0 0)
(7.20982e-05 0 0)
(7.0621e-05 0 0)
(7.21645e-05 0 0)
(7.00891e-05 0 0)
(7.32548e-05 0 0)
(6.96521e-05 0 0)
(7.29169e-05 0 0)
(6.93831e-05 0 0)
(7.12341e-05 0 0)
(6.97995e-05 0 0)
(7.03754e-05 0 0)
(6.88657e-05 0 0)
(7.11302e-05 0 0)
(7.00586e-05 0 0)
(7.21774e-05 0 0)
(7.24151e-05 0 0)
(7.17063e-05 0 0)
(7.2828e-05 0 0)
(7.27321e-05 0 0)
(8.20454e-05 0 0)
(9.65274e-05 0 0)
(0.000114856 0 0)
(0.000129678 0 0)
(0.000123048 0 0)
(0.000126147 0 0)
(0.000132593 0 0)
(0.000137183 0 0)
(0.000137142 0 0)
(0.000139601 0 0)
(0.000139672 0 0)
(0.000140939 0 0)
(0.000138721 0 0)
(0.00014031 0 0)
(0.000142815 0 0)
(0.000142562 0 0)
(0.000137217 0 0)
(0.000138233 0 0)
(0.000138491 0 0)
(0.00013892 0 0)
(0.000140807 0 0)
(0.000137369 0 0)
(0.00014321 0 0)
(0.000146109 0 0)
(0.000135567 0 0)
(0.000120222 0 0)
(0.00011151 0 0)
(0.000116075 0 0)
(0.000125361 0 0)
(0.000125373 0 0)
(0.000120208 0 0)
(0.000118009 0 0)
(0.000118381 0 0)
(0.000123533 0 0)
(0.00012925 0 0)
(0.000132204 0 0)
(0.000133452 0 0)
(0.000138571 0 0)
(0.000137423 0 0)
(0.000129639 0 0)
(0.000124911 0 0)
(0.00012175 0 0)
(0.000122796 0 0)
(0.000127868 0 0)
(0.00013089 0 0)
(0.000129263 0 0)
(0.000130022 0 0)
(0.000120613 0 0)
(0.000113718 0 0)
(0.000110662 0 0)
(0.000111674 0 0)
(0.000116079 0 0)
(0.000117973 0 0)
(0.000120801 0 0)
(0.000123957 0 0)
(0.000127051 0 0)
(0.000126876 0 0)
(0.000131675 0 0)
(0.000136585 0 0)
(0.000136821 0 0)
(0.000139721 0 0)
(0.000141704 0 0)
(0.000145333 0 0)
(0.000152754 0 0)
(0.000163009 0 0)
(0.000175853 0 0)
(0.00018734 0 0)
(0.00020715 0 0)
(0.000223871 0 0)
(0.000233817 0 0)
(0.000243585 0 0)
(0.000252503 0 0)
(0.000252976 0 0)
)
;

boundaryField
{
    inlet
    {
        type            fixedValue;
        value           uniform (0 0 0);
    }
    outlet
    {
        type            zeroGradient;
    }
    yzfaces
    {
        type            empty;
    }
}


// ************************************************************************* //
