/*--------------------------------*- C++ -*----------------------------------*\
| =========                 |                                                 |
| \\      /  F ield         | foam-extend: Open Source CFD                    |
|  \\    /   O peration     | Version:     5.0                                |
|   \\  /    A nd           | Web:         http://www.foam-extend.org         |
|    \\/     M anipulation  |                                                 |
\*---------------------------------------------------------------------------*/
FoamFile
{
    version     2.0;
    format      ascii;
    class       volVectorField;
    location    "100";
    object      U.water;
}
// * * * * * * * * * * * * * * * * * * * * * * * * * * * * * * * * * * * * * //

dimensions      [0 1 -1 0 0 0 0];

internalField   nonuniform List<vector> 
100
(
(4.82917e-06 0 0)
(1.28815e-05 0 0)
(2.98181e-05 0 0)
(5.72263e-05 0 0)
(7.92816e-05 0 0)
(7.82451e-05 0 0)
(7.09742e-05 0 0)
(7.48128e-05 0 0)
(7.1664e-05 0 0)
(7.4159e-05 0 0)
(7.1489e-05 0 0)
(7.64868e-05 0 0)
(7.36473e-05 0 0)
(7.67832e-05 0 0)
(7.41849e-05 0 0)
(7.62668e-05 0 0)
(7.49039e-05 0 0)
(7.55446e-05 0 0)
(7.50229e-05 0 0)
(7.51658e-05 0 0)
(7.46063e-05 0 0)
(7.51059e-05 0 0)
(7.53026e-05 0 0)
(7.50155e-05 0 0)
(7.57037e-05 0 0)
(7.52489e-05 0 0)
(7.63418e-05 0 0)
(8.62929e-05 0 0)
(0.000105511 0 0)
(0.000122888 0 0)
(0.000118118 0 0)
(0.000108928 0 0)
(0.000106331 0 0)
(0.000119244 0 0)
(0.000134612 0 0)
(0.000141394 0 0)
(0.000144678 0 0)
(0.000148014 0 0)
(0.000152888 0 0)
(0.000150005 0 0)
(0.00012049 0 0)
(0.000111988 0 0)
(0.000105922 0 0)
(0.000111185 0 0)
(0.000124299 0 0)
(0.000139129 0 0)
(0.000149661 0 0)
(0.000162588 0 0)
(0.00017095 0 0)
(0.000166078 0 0)
(0.00015702 0 0)
(0.000154833 0 0)
(0.000156513 0 0)
(0.000159866 0 0)
(0.00016099 0 0)
(0.000161937 0 0)
(0.000162024 0 0)
(0.000163383 0 0)
(0.000164318 0 0)
(0.000165076 0 0)
(0.000158677 0 0)
(0.000141463 0 0)
(0.00013266 0 0)
(0.000131296 0 0)
(0.000133312 0 0)
(0.000136158 0 0)
(0.00013988 0 0)
(0.000148239 0 0)
(0.000148374 0 0)
(0.00015165 0 0)
(0.000150128 0 0)
(0.000140916 0 0)
(0.000131622 0 0)
(0.000132204 0 0)
(0.000141246 0 0)
(0.000143924 0 0)
(0.000134735 0 0)
(0.000133204 0 0)
(0.000134049 0 0)
(0.000133489 0 0)
(0.000132373 0 0)
(0.000134759 0 0)
(0.000137386 0 0)
(0.00014858 0 0)
(0.000156583 0 0)
(0.00016135 0 0)
(0.000167434 0 0)
(0.000174319 0 0)
(0.000176417 0 0)
(0.000181161 0 0)
(0.000188258 0 0)
(0.000198917 0 0)
(0.000212996 0 0)
(0.000225011 0 0)
(0.000234723 0 0)
(0.00024908 0 0)
(0.000264093 0 0)
(0.000278817 0 0)
(0.000289505 0 0)
(0.000307302 0 0)
)
;

boundaryField
{
    inlet
    {
        type            fixedValue;
        value           uniform (0 0 0);
    }
    outlet
    {
        type            zeroGradient;
    }
    yzfaces
    {
        type            empty;
    }
}


// ************************************************************************* //
