/*--------------------------------*- C++ -*----------------------------------*\
| =========                 |                                                 |
| \\      /  F ield         | foam-extend: Open Source CFD                    |
|  \\    /   O peration     | Version:     5.0                                |
|   \\  /    A nd           | Web:         http://www.foam-extend.org         |
|    \\/     M anipulation  |                                                 |
\*---------------------------------------------------------------------------*/
FoamFile
{
    version     2.0;
    format      ascii;
    class       volScalarField;
    location    "0.163671";
    object      alpha.gas;
}
// * * * * * * * * * * * * * * * * * * * * * * * * * * * * * * * * * * * * * //

dimensions      [0 0 0 0 0 0 0];

internalField   nonuniform List<scalar> 
100
(
0.0414773
0.0369651
0.0310196
0.0254568
0.0206985
0.0168768
0.0140792
0.012234
0.0111546
0.0105757
0.0102819
0.0101364
0.0100655
0.0100322
0.0100143
0.0100072
0.0100032
0.0100012
0.0099998
0.00999935
0.00999786
0.0099982
0.00999626
0.00999786
0.0100009
0.0100019
0.00999975
0.0100005
0.0100014
0.0100001
0.0100011
0.010001
0.0099991
0.0099986
0.00999721
0.00999809
0.00999873
0.0100008
0.0100012
0.00999938
0.00999969
0.0099993
0.00999809
0.00999803
0.00999852
0.0100013
0.0100018
0.00999937
0.00999814
0.00999936
0.00999803
0.00999923
0.00999965
0.00999993
0.0100003
0.00999996
0.0100003
0.0100004
0.0100005
0.00999971
0.0100015
0.0100004
0.00999835
0.0100006
0.0100007
0.00999946
0.00999876
0.00999977
0.01
0.0100008
0.0100003
0.0100005
0.0100016
0.0100002
0.00999962
0.0100001
0.0100007
0.0100003
0.0100001
0.0100005
0.010003
0.0100007
0.00999955
0.00999926
0.0099999
0.00999825
0.00999964
0.0099981
0.00999882
0.00999781
0.00999668
0.00999881
0.00999968
0.010001
0.0100004
0.0100004
0.00999898
0.00999926
0.0100021
0.0100018
)
;

boundaryField
{
    inlet
    {
        type            fixedValue;
        value           uniform 0.2;
    }
    outlet
    {
        type            zeroGradient;
    }
    yzfaces
    {
        type            empty;
    }
}


// ************************************************************************* //
