/*--------------------------------*- C++ -*----------------------------------*\
| =========                 |                                                 |
| \\      /  F ield         | foam-extend: Open Source CFD                    |
|  \\    /   O peration     | Version:     5.0                                |
|   \\  /    A nd           | Web:         http://www.foam-extend.org         |
|    \\/     M anipulation  |                                                 |
\*---------------------------------------------------------------------------*/
FoamFile
{
    version     2.0;
    format      ascii;
    class       volScalarField;
    location    "0.163671";
    object      Cl.water;
}
// * * * * * * * * * * * * * * * * * * * * * * * * * * * * * * * * * * * * * //

dimensions      [0 0 0 0 0 0 0];

internalField   nonuniform List<scalar> 
100
(
0
0.0168095
0.0199706
0.0210333
0.0216601
0.0221767
0.0224796
0.0227688
0.0228533
0.0229427
0.022968
0.0229508
0.023025
0.0229689
0.0230315
0.0229933
0.0230188
0.0230081
0.023013
0.0229843
0.0229708
0.0230131
0.0230164
0.0229916
0.0229935
0.0230008
0.0229935
0.0230023
0.0229747
0.0230099
0.0230022
0.0230173
0.0229832
0.0230176
0.0229961
0.0230179
0.0230075
0.0229825
0.0230075
0.02297
0.0230257
0.022969
0.0230046
0.0229969
0.0230013
0.022988
0.0230013
0.0230005
0.0230102
0.0230167
0.0229956
0.0230053
0.0229802
0.0230171
0.0229835
0.0230017
0.0230254
0.0229693
0.0230188
0.0229675
0.0230185
0.0229637
0.0230354
0.0229718
0.0230102
0.0229952
0.0230391
0.0229815
0.0230206
0.0229618
0.0230232
0.0229692
0.0230304
0.0230158
0.023001
0.0230316
0.0229821
0.0229907
0.0230343
0.0229705
0.0230127
0.0229893
0.0230127
0.0229773
0.0230372
0.0229856
0.0230081
0.0230142
0.0229855
0.023021
0.0229674
0.0230004
0.0229911
0.0230359
0.022984
0.0230228
0.0229906
0.0230316
0.0229751
0.0230061
)
;

boundaryField
{
    inlet
    {
        type            fixedValue;
        value           uniform 0;
    }
    outlet
    {
        type            zeroGradient;
    }
    yzfaces
    {
        type            empty;
    }
}


// ************************************************************************* //
