/*--------------------------------*- C++ -*----------------------------------*\
| =========                 |                                                 |
| \\      /  F ield         | foam-extend: Open Source CFD                    |
|  \\    /   O peration     | Version:     5.0                                |
|   \\  /    A nd           | Web:         http://www.foam-extend.org         |
|    \\/     M anipulation  |                                                 |
\*---------------------------------------------------------------------------*/
FoamFile
{
    version     2.0;
    format      ascii;
    class       volScalarField;
    location    "0.163671";
    object      CO2.water;
}
// * * * * * * * * * * * * * * * * * * * * * * * * * * * * * * * * * * * * * //

dimensions      [0 0 0 0 0 0 0];

internalField   nonuniform List<scalar> 
100
(
0.0041176
0.000622319
0.000103156
1.93034e-05
4.02878e-06
8.927e-07
1.90492e-07
3.86953e-08
9.13782e-09
3.54222e-09
1.37245e-09
5.34055e-10
2.07413e-10
8.08738e-11
3.14274e-11
1.2229e-11
4.75662e-12
1.84533e-12
7.17392e-13
2.78297e-13
1.08356e-13
4.20403e-14
1.63241e-14
6.34458e-15
2.45686e-15
9.55949e-16
3.6999e-16
1.43755e-16
5.57375e-17
2.16642e-17
8.39203e-18
3.25216e-18
1.26069e-18
4.88385e-19
1.89182e-19
7.31652e-20
2.83356e-20
1.10072e-20
4.25293e-21
1.65288e-21
6.39755e-22
2.47922e-22
9.60159e-23
3.72982e-23
1.44204e-23
5.59197e-24
2.16926e-24
8.40078e-25
3.25119e-25
1.25773e-25
4.86638e-26
1.88034e-26
7.28769e-27
2.81953e-27
1.09095e-27
4.22722e-28
1.63557e-28
6.31976e-29
2.44786e-29
9.48139e-30
3.67247e-30
1.42291e-30
5.50436e-31
2.13362e-31
8.26263e-32
3.20803e-32
1.24465e-32
4.83517e-33
1.8746e-33
7.28711e-34
2.82724e-34
1.09814e-34
4.25989e-35
1.65397e-35
6.42796e-36
2.49482e-36
9.71079e-37
3.77586e-37
1.46896e-37
5.69836e-38
2.21527e-38
8.58302e-39
3.33357e-39
1.29553e-39
5.02519e-40
1.95107e-40
7.56508e-41
2.94268e-41
1.14073e-41
4.44647e-42
1.72375e-42
6.69114e-43
2.59698e-43
1.01054e-43
3.93493e-44
1.52743e-44
5.94222e-45
2.30228e-45
8.93495e-46
4.296e-46
)
;

boundaryField
{
    inlet
    {
        type            fixedValue;
        value           uniform 0;
    }
    outlet
    {
        type            zeroGradient;
    }
    yzfaces
    {
        type            empty;
    }
}


// ************************************************************************* //
