/*--------------------------------*- C++ -*----------------------------------*\
| =========                 |                                                 |
| \\      /  F ield         | foam-extend: Open Source CFD                    |
|  \\    /   O peration     | Version:     5.0                                |
|   \\  /    A nd           | Web:         http://www.foam-extend.org         |
|    \\/     M anipulation  |                                                 |
\*---------------------------------------------------------------------------*/
FoamFile
{
    version     2.0;
    format      ascii;
    class       volScalarField;
    location    "0.163671";
    object      H2O.gas;
}
// * * * * * * * * * * * * * * * * * * * * * * * * * * * * * * * * * * * * * //

dimensions      [0 0 0 0 0 0 0];

internalField   nonuniform List<scalar> 
100
(
1.24527e-05
0.00388614
0.00697045
0.00941126
0.0110566
0.0118302
0.0117803
0.0113589
0.0108371
0.0104793
0.0102508
0.0101121
0.010078
0.0100168
0.0100252
0.0100019
0.0100104
0.0100057
0.010006
0.00999319
0.00998754
0.0100057
0.010004
0.00999461
0.00999706
0.010001
0.00999788
0.0100043
0.00999183
0.0100028
0.0100014
0.010008
0.00999342
0.0100068
0.00999548
0.0100054
0.0100033
0.00999519
0.010005
0.00998554
0.0100103
0.00998507
0.0100009
0.00999868
0.0100008
0.00999737
0.0100014
0.00999699
0.0100009
0.010006
0.00999802
0.0100024
0.00999139
0.0100082
0.00999182
0.0100012
0.010012
0.00998847
0.0100097
0.00998612
0.0100097
0.00998626
0.0100153
0.00998822
0.0100063
0.00999725
0.0100151
0.00999127
0.0100088
0.00998637
0.0100115
0.0099882
0.0100149
0.0100074
0.0100016
0.0100153
0.00999417
0.00999593
0.0100118
0.00998424
0.010005
0.00999403
0.0100061
0.00998804
0.0100141
0.00999057
0.0100025
0.0100049
0.00999167
0.0100071
0.00998389
0.00999878
0.00999573
0.0100148
0.00999189
0.010008
0.00999331
0.0100139
0.00999506
0.0100041
)
;

boundaryField
{
    inlet
    {
        type            fixedValue;
        value           uniform 0;
    }
    outlet
    {
        type            zeroGradient;
    }
    yzfaces
    {
        type            empty;
    }
}


// ************************************************************************* //
