/*--------------------------------*- C++ -*----------------------------------*\
| =========                 |                                                 |
| \\      /  F ield         | foam-extend: Open Source CFD                    |
|  \\    /   O peration     | Version:     5.0                                |
|   \\  /    A nd           | Web:         http://www.foam-extend.org         |
|    \\/     M anipulation  |                                                 |
\*---------------------------------------------------------------------------*/
FoamFile
{
    version     2.0;
    format      ascii;
    class       volScalarField;
    location    "0.163671";
    object      Na.water;
}
// * * * * * * * * * * * * * * * * * * * * * * * * * * * * * * * * * * * * * //

dimensions      [0 0 0 0 0 0 0];

internalField   nonuniform List<scalar> 
100
(
0
0.016812
0.019967
0.0210398
0.0216616
0.0221805
0.0224791
0.022764
0.0228506
0.0229407
0.0229698
0.0229493
0.0230266
0.0229644
0.0230256
0.0229863
0.0230136
0.0230089
0.0230136
0.0229877
0.0229708
0.0230131
0.0230165
0.022994
0.0229931
0.0230009
0.0229929
0.0230032
0.0229725
0.0230066
0.0230023
0.0230207
0.0229855
0.023016
0.0229934
0.023016
0.0230031
0.0229829
0.0230093
0.0229699
0.0230245
0.0229706
0.0230056
0.0230043
0.0230038
0.0229875
0.0230001
0.0229976
0.0230047
0.0230175
0.0229978
0.0230103
0.0229833
0.0230173
0.0229784
0.0230021
0.0230299
0.0229733
0.0230166
0.022956
0.0230117
0.0229605
0.0230341
0.0229761
0.0230111
0.022987
0.0230313
0.0229786
0.0230211
0.0229648
0.0230225
0.0229683
0.0230252
0.0230136
0.023
0.0230314
0.0229844
0.0229958
0.0230318
0.0229667
0.0230001
0.0229881
0.0230148
0.0229762
0.0230351
0.0229842
0.0230056
0.023007
0.0229733
0.023017
0.0229657
0.0230003
0.0229902
0.0230351
0.0229838
0.0230207
0.022987
0.0230363
0.0229905
0.0230181
)
;

boundaryField
{
    inlet
    {
        type            fixedValue;
        value           uniform 0;
    }
    outlet
    {
        type            zeroGradient;
    }
    yzfaces
    {
        type            empty;
    }
}


// ************************************************************************* //
