/*--------------------------------*- C++ -*----------------------------------*\
| =========                 |                                                 |
| \\      /  F ield         | foam-extend: Open Source CFD                    |
|  \\    /   O peration     | Version:     5.0                                |
|   \\  /    A nd           | Web:         http://www.foam-extend.org         |
|    \\/     M anipulation  |                                                 |
\*---------------------------------------------------------------------------*/
FoamFile
{
    version     2.0;
    format      ascii;
    class       surfaceScalarField;
    location    "0.163671";
    object      phi;
}
// * * * * * * * * * * * * * * * * * * * * * * * * * * * * * * * * * * * * * //

dimensions      [0 3 -1 0 0 0 0];

internalField   nonuniform List<scalar> 
99
(
1.2111e-06
1.22148e-06
1.22187e-06
1.22378e-06
1.22299e-06
1.2233e-06
1.22013e-06
1.22321e-06
1.22186e-06
1.22212e-06
1.22075e-06
1.21993e-06
1.22079e-06
1.21955e-06
1.22108e-06
1.21718e-06
1.21908e-06
1.2188e-06
1.21795e-06
1.21579e-06
1.21746e-06
1.21738e-06
1.21682e-06
1.21573e-06
1.21498e-06
1.21781e-06
1.21693e-06
1.22039e-06
1.22041e-06
1.22104e-06
1.21847e-06
1.21895e-06
1.21734e-06
1.21772e-06
1.2165e-06
1.21529e-06
1.21435e-06
1.21779e-06
1.21579e-06
1.21503e-06
1.21768e-06
1.21559e-06
1.21831e-06
1.21862e-06
1.21683e-06
1.21548e-06
1.21691e-06
1.21693e-06
1.21758e-06
1.21822e-06
1.2162e-06
1.2173e-06
1.21794e-06
1.22135e-06
1.21875e-06
1.21948e-06
1.21818e-06
1.21372e-06
1.21702e-06
1.21501e-06
1.21685e-06
1.21393e-06
1.21728e-06
1.21447e-06
1.21737e-06
1.21638e-06
1.21704e-06
1.2147e-06
1.21516e-06
1.2136e-06
1.21368e-06
1.21256e-06
1.21429e-06
1.21276e-06
1.2106e-06
1.21104e-06
1.21075e-06
1.2098e-06
1.21099e-06
1.20907e-06
1.21295e-06
1.21157e-06
1.2118e-06
1.21329e-06
1.21262e-06
1.21059e-06
1.21144e-06
1.21145e-06
1.20881e-06
1.21292e-06
1.2095e-06
1.21014e-06
1.20797e-06
1.20871e-06
1.20686e-06
1.20678e-06
1.20605e-06
1.20753e-06
1.20651e-06
)
;

boundaryField
{
    inlet
    {
        type            calculated;
        value           uniform -1.225e-06;
    }
    outlet
    {
        type            calculated;
        value           uniform 1.20682e-06;
    }
    yzfaces
    {
        type            empty;
    }
}


// ************************************************************************* //
