/*--------------------------------*- C++ -*----------------------------------*\
| =========                 |                                                 |
| \\      /  F ield         | foam-extend: Open Source CFD                    |
|  \\    /   O peration     | Version:     5.0                                |
|   \\  /    A nd           | Web:         http://www.foam-extend.org         |
|    \\/     M anipulation  |                                                 |
\*---------------------------------------------------------------------------*/
FoamFile
{
    version     2.0;
    format      ascii;
    class       surfaceScalarField;
    location    "0.163671";
    object      phi.water;
}
// * * * * * * * * * * * * * * * * * * * * * * * * * * * * * * * * * * * * * //

dimensions      [0 3 -1 0 0 0 0];

internalField   nonuniform List<scalar> 
99
(
3.44009e-06
3.86935e-06
4.46628e-06
5.03632e-06
5.46794e-06
5.76909e-06
5.9303e-06
6.04118e-06
6.08653e-06
6.10996e-06
6.12018e-06
6.11694e-06
6.12393e-06
6.1201e-06
6.12561e-06
6.10748e-06
6.11422e-06
6.11329e-06
6.1122e-06
6.10647e-06
6.11074e-06
6.10483e-06
6.10539e-06
6.10342e-06
6.09884e-06
6.11239e-06
6.10658e-06
6.12621e-06
6.12663e-06
6.12689e-06
6.11261e-06
6.11681e-06
6.10848e-06
6.10913e-06
6.10331e-06
6.09532e-06
6.09463e-06
6.11205e-06
6.10446e-06
6.09853e-06
6.11203e-06
6.10391e-06
6.11304e-06
6.11487e-06
6.10719e-06
6.1012e-06
6.10788e-06
6.10707e-06
6.10763e-06
6.11163e-06
6.10259e-06
6.11061e-06
6.11217e-06
6.12936e-06
6.11852e-06
6.1161e-06
6.11343e-06
6.09177e-06
6.10895e-06
6.09919e-06
6.10842e-06
6.09124e-06
6.10756e-06
6.09696e-06
6.10835e-06
6.10012e-06
6.10536e-06
6.09585e-06
6.09997e-06
6.09134e-06
6.09118e-06
6.08496e-06
6.08765e-06
6.08344e-06
6.07013e-06
6.07491e-06
6.07943e-06
6.06907e-06
6.07873e-06
6.07206e-06
6.0884e-06
6.08026e-06
6.08276e-06
6.08798e-06
6.0835e-06
6.07687e-06
6.07662e-06
6.07984e-06
6.06575e-06
6.08814e-06
6.07386e-06
6.07445e-06
6.05922e-06
6.06417e-06
6.05698e-06
6.05559e-06
6.0498e-06
6.05773e-06
6.05619e-06
)
;

boundaryField
{
    inlet
    {
        type            fixedValue;
        value           uniform 0;
    }
    outlet
    {
        type            calculated;
        value           uniform 6.05515e-06;
    }
    yzfaces
    {
        type            empty;
    }
}


// ************************************************************************* //
