/*--------------------------------*- C++ -*----------------------------------*\
| =========                 |                                                 |
| \\      /  F ield         | foam-extend: Open Source CFD                    |
|  \\    /   O peration     | Version:     5.0                                |
|   \\  /    A nd           | Web:         http://www.foam-extend.org         |
|    \\/     M anipulation  |                                                 |
\*---------------------------------------------------------------------------*/
FoamFile
{
    version     2.0;
    format      ascii;
    class       volScalarField;
    location    "0.163671";
    object      S.gas;
}
// * * * * * * * * * * * * * * * * * * * * * * * * * * * * * * * * * * * * * //

dimensions      [0 0 0 0 0 0 0];

internalField   nonuniform List<scalar> 
100
(
0.207387
0.184826
0.155098
0.127284
0.103492
0.0843842
0.0703961
0.06117
0.0557728
0.0528783
0.0514096
0.0506821
0.0503275
0.0501611
0.0500714
0.0500361
0.0500158
0.0500062
0.049999
0.0499967
0.0499893
0.049991
0.0499813
0.0499893
0.0500047
0.0500097
0.0499988
0.0500023
0.050007
0.0500003
0.0500053
0.0500051
0.0499955
0.049993
0.049986
0.0499904
0.0499937
0.0500042
0.050006
0.0499969
0.0499985
0.0499965
0.0499904
0.0499902
0.0499926
0.0500067
0.0500091
0.0499969
0.0499907
0.0499968
0.0499902
0.0499962
0.0499983
0.0499996
0.0500013
0.0499998
0.0500017
0.0500022
0.0500025
0.0499986
0.0500073
0.050002
0.0499918
0.0500031
0.0500037
0.0499973
0.0499938
0.0499988
0.0500001
0.0500039
0.0500017
0.0500027
0.050008
0.0500012
0.0499981
0.0500006
0.0500034
0.0500014
0.0500007
0.0500026
0.0500151
0.0500034
0.0499977
0.0499963
0.0499995
0.0499912
0.0499982
0.0499905
0.0499941
0.0499891
0.0499834
0.0499941
0.0499984
0.0500048
0.0500021
0.0500022
0.0499949
0.0499963
0.0500106
0.0500092
)
;

boundaryField
{
    inlet
    {
        type            calculated;
        value           uniform 1;
    }
    outlet
    {
        type            calculated;
        value           uniform 0.0500092;
    }
    yzfaces
    {
        type            empty;
    }
}


// ************************************************************************* //
