/*--------------------------------*- C++ -*----------------------------------*\
| =========                 |                                                 |
| \\      /  F ield         | foam-extend: Open Source CFD                    |
|  \\    /   O peration     | Version:     5.0                                |
|   \\  /    A nd           | Web:         http://www.foam-extend.org         |
|    \\/     M anipulation  |                                                 |
\*---------------------------------------------------------------------------*/
FoamFile
{
    version     2.0;
    format      ascii;
    class       volVectorField;
    location    "0.163671";
    object      U.gas;
}
// * * * * * * * * * * * * * * * * * * * * * * * * * * * * * * * * * * * * * //

dimensions      [0 1 -1 0 0 0 0];

internalField   nonuniform List<vector> 
100
(
(0.0185674 0 0)
(0.0137142 0 0)
(0.0136213 0 0)
(0.0126387 0 0)
(0.0111539 0 0)
(0.00946616 0 0)
(0.00785457 0 0)
(0.00656937 0 0)
(0.00569824 0 0)
(0.00518105 0 0)
(0.00490528 0 0)
(0.00476353 0 0)
(0.00469503 0 0)
(0.0046612 0 0)
(0.00464665 0 0)
(0.00463394 0 0)
(0.00462646 0 0)
(0.00462693 0 0)
(0.00462417 0 0)
(0.00461778 0 0)
(0.00461633 0 0)
(0.00461838 0 0)
(0.00461714 0 0)
(0.00461355 0 0)
(0.00461095 0 0)
(0.0046161 0 0)
(0.00462023 0 0)
(0.00462493 0 0)
(0.00463183 0 0)
(0.0046327 0 0)
(0.00462848 0 0)
(0.00462525 0 0)
(0.0046231 0 0)
(0.00462011 0 0)
(0.0046186 0 0)
(0.00461343 0 0)
(0.0046092 0 0)
(0.00461399 0 0)
(0.00461772 0 0)
(0.0046132 0 0)
(0.00461595 0 0)
(0.00461656 0 0)
(0.0046181 0 0)
(0.0046227 0 0)
(0.00461982 0 0)
(0.0046148 0 0)
(0.00461554 0 0)
(0.00461818 0 0)
(0.00461859 0 0)
(0.00462034 0 0)
(0.00461876 0 0)
(0.00461693 0 0)
(0.00462098 0 0)
(0.00462892 0 0)
(0.00462997 0 0)
(0.00462573 0 0)
(0.00462519 0 0)
(0.00461594 0 0)
(0.0046131 0 0)
(0.00461456 0 0)
(0.00461449 0 0)
(0.00461287 0 0)
(0.0046131 0 0)
(0.00461334 0 0)
(0.00461369 0 0)
(0.00461744 0 0)
(0.00461666 0 0)
(0.00461371 0 0)
(0.00461078 0 0)
(0.00460892 0 0)
(0.00460642 0 0)
(0.00460373 0 0)
(0.00460439 0 0)
(0.00460536 0 0)
(0.00459855 0 0)
(0.00459532 0 0)
(0.00459524 0 0)
(0.00459335 0 0)
(0.00459403 0 0)
(0.00459203 0 0)
(0.00459609 0 0)
(0.0046019 0 0)
(0.00459885 0 0)
(0.0046018 0 0)
(0.0046027 0 0)
(0.00459791 0 0)
(0.00459517 0 0)
(0.00459693 0 0)
(0.00459121 0 0)
(0.0045945 0 0)
(0.00459535 0 0)
(0.00458892 0 0)
(0.00458668 0 0)
(0.0045856 0 0)
(0.00458339 0 0)
(0.00457899 0 0)
(0.00457868 0 0)
(0.0045797 0 0)
(0.00458073 0 0)
(0.00457944 0 0)
)
;

boundaryField
{
    inlet
    {
        type            fixedValue;
        value           uniform (0.005 0 0);
    }
    outlet
    {
        type            zeroGradient;
    }
    yzfaces
    {
        type            empty;
    }
}


// ************************************************************************* //
