/*--------------------------------*- C++ -*----------------------------------*\
| =========                 |                                                 |
| \\      /  F ield         | foam-extend: Open Source CFD                    |
|  \\    /   O peration     | Version:     5.0                                |
|   \\  /    A nd           | Web:         http://www.foam-extend.org         |
|    \\/     M anipulation  |                                                 |
\*---------------------------------------------------------------------------*/
FoamFile
{
    version     2.0;
    format      ascii;
    class       volVectorField;
    location    "0.163671";
    object      U.water;
}
// * * * * * * * * * * * * * * * * * * * * * * * * * * * * * * * * * * * * * //

dimensions      [0 1 -1 0 0 0 0];

internalField   nonuniform List<vector> 
100
(
(0.0014143 0 0)
(0.0029806 0 0)
(0.00340133 0 0)
(0.00387574 0 0)
(0.00428225 0 0)
(0.00458013 0 0)
(0.00476941 0 0)
(0.00488327 0 0)
(0.00494809 0 0)
(0.00497691 0 0)
(0.0049898 0 0)
(0.00499258 0 0)
(0.00499621 0 0)
(0.00499713 0 0)
(0.00499849 0 0)
(0.00499407 0 0)
(0.00499015 0 0)
(0.00499361 0 0)
(0.00499132 0 0)
(0.00498517 0 0)
(0.0049842 0 0)
(0.00498752 0 0)
(0.00498621 0 0)
(0.00498285 0 0)
(0.00497903 0 0)
(0.00498324 0 0)
(0.00498721 0 0)
(0.00499251 0 0)
(0.00499961 0 0)
(0.00500095 0 0)
(0.00499701 0 0)
(0.00499269 0 0)
(0.00499038 0 0)
(0.0049879 0 0)
(0.00498616 0 0)
(0.00498122 0 0)
(0.00497682 0 0)
(0.00498195 0 0)
(0.00498485 0 0)
(0.00497914 0 0)
(0.00498305 0 0)
(0.00498422 0 0)
(0.00498551 0 0)
(0.00499178 0 0)
(0.00498874 0 0)
(0.00498228 0 0)
(0.00498242 0 0)
(0.00498538 0 0)
(0.00498679 0 0)
(0.00498947 0 0)
(0.0049866 0 0)
(0.00498473 0 0)
(0.00498825 0 0)
(0.00499651 0 0)
(0.00499821 0 0)
(0.00499442 0 0)
(0.00499321 0 0)
(0.00498133 0 0)
(0.004979 0 0)
(0.00498168 0 0)
(0.00498132 0 0)
(0.00497908 0 0)
(0.00497999 0 0)
(0.00498116 0 0)
(0.00498133 0 0)
(0.00498521 0 0)
(0.00498454 0 0)
(0.00498109 0 0)
(0.00497721 0 0)
(0.00497494 0 0)
(0.0049719 0 0)
(0.00496981 0 0)
(0.00497109 0 0)
(0.00497147 0 0)
(0.0049639 0 0)
(0.00496037 0 0)
(0.00496069 0 0)
(0.00495813 0 0)
(0.00495861 0 0)
(0.00495715 0 0)
(0.00496114 0 0)
(0.00496621 0 0)
(0.0049639 0 0)
(0.00496743 0 0)
(0.00496915 0 0)
(0.00496361 0 0)
(0.00496123 0 0)
(0.00496297 0 0)
(0.00495762 0 0)
(0.0049606 0 0)
(0.00496203 0 0)
(0.00495641 0 0)
(0.00495325 0 0)
(0.00495022 0 0)
(0.00494795 0 0)
(0.00494404 0 0)
(0.00494232 0 0)
(0.00494389 0 0)
(0.00494482 0 0)
(0.00494336 0 0)
)
;

boundaryField
{
    inlet
    {
        type            fixedValue;
        value           uniform (0 0 0);
    }
    outlet
    {
        type            zeroGradient;
    }
    yzfaces
    {
        type            empty;
    }
}


// ************************************************************************* //
