/*--------------------------------*- C++ -*----------------------------------*\
| =========                 |                                                 |
| \\      /  F ield         | foam-extend: Open Source CFD                    |
|  \\    /   O peration     | Version:     5.0                                |
|   \\  /    A nd           | Web:         http://www.foam-extend.org         |
|    \\/     M anipulation  |                                                 |
\*---------------------------------------------------------------------------*/
FoamFile
{
    version     2.0;
    format      ascii;
    class       volScalarField;
    location    "3";
    object      alpha.gas;
}
// * * * * * * * * * * * * * * * * * * * * * * * * * * * * * * * * * * * * * //

dimensions      [0 0 0 0 0 0 0];

internalField   nonuniform List<scalar> 
100
(
0.144472
0.128778
0.118255
0.110054
0.103844
0.0988566
0.0944269
0.0905787
0.0874167
0.0848784
0.0823633
0.080026
0.0775277
0.0754028
0.0736337
0.0719908
0.0703215
0.0687905
0.0673258
0.0657631
0.0645982
0.0631191
0.0618598
0.060512
0.0593282
0.0581643
0.0571006
0.0559853
0.0549285
0.0538628
0.0528341
0.0518037
0.0507657
0.0497557
0.0488259
0.0478819
0.0469057
0.0458406
0.0447844
0.0437227
0.0426678
0.0416293
0.040522
0.0393846
0.0382063
0.0370049
0.0357416
0.0344392
0.0330445
0.0315638
0.0299735
0.0282504
0.0264295
0.0244797
0.0224239
0.0203078
0.0182141
0.0162349
0.0144873
0.0130582
0.0119773
0.0112279
0.01074
0.010437
0.0102541
0.0101468
0.0100838
0.0100479
0.0100295
0.0100176
0.0100131
0.0100079
0.010005
0.0100007
0.00999806
0.00999526
0.00999558
0.00999321
0.00999228
0.0099934
0.00999706
0.00999776
0.00999888
0.00999992
0.0100001
0.0100008
0.0100012
0.00999998
0.0100009
0.00999756
0.00999939
0.00999924
0.00999615
0.00999434
0.00999669
0.00999854
0.00999852
0.0099987
0.00999802
0.00999683
)
;

boundaryField
{
    inlet
    {
        type            fixedValue;
        value           uniform 0.2;
    }
    outlet
    {
        type            zeroGradient;
    }
    yzfaces
    {
        type            empty;
    }
}


// ************************************************************************* //
