/*--------------------------------*- C++ -*----------------------------------*\
| =========                 |                                                 |
| \\      /  F ield         | foam-extend: Open Source CFD                    |
|  \\    /   O peration     | Version:     5.0                                |
|   \\  /    A nd           | Web:         http://www.foam-extend.org         |
|    \\/     M anipulation  |                                                 |
\*---------------------------------------------------------------------------*/
FoamFile
{
    version     2.0;
    format      ascii;
    class       volScalarField;
    location    "3";
    object      alpha.gas;
}
// * * * * * * * * * * * * * * * * * * * * * * * * * * * * * * * * * * * * * //

dimensions      [0 0 0 0 0 0 0];

internalField   nonuniform List<scalar> 
100
(
0.144448
0.12809
0.118006
0.110253
0.104027
0.0988385
0.0944669
0.0907352
0.0874812
0.0849955
0.08239
0.07999
0.07769
0.0758753
0.0739608
0.0720615
0.0703617
0.0687225
0.0670771
0.0656656
0.0641558
0.0628562
0.061631
0.0604392
0.0593193
0.0582374
0.0569705
0.0559294
0.0548084
0.0537598
0.0527655
0.0518081
0.0508161
0.0497965
0.0487733
0.0477972
0.0468141
0.0457928
0.0447397
0.0436741
0.0426123
0.0415345
0.0404482
0.0393005
0.0381169
0.0369154
0.0356371
0.0343395
0.0329517
0.0314645
0.0298656
0.0281492
0.0263219
0.0243613
0.0222942
0.0201766
0.0180873
0.0161281
0.0143982
0.0129879
0.0119308
0.0111976
0.0107211
0.0104241
0.010247
0.0101419
0.0100813
0.0100466
0.0100247
0.0100145
0.0100075
0.0100021
0.0100007
0.00999903
0.00999878
0.0099974
0.00999722
0.0099985
0.0100003
0.0100005
0.01
0.0100006
0.0100025
0.0100023
0.0100016
0.0100026
0.0100015
0.0100029
0.00999993
0.00999843
0.00999804
0.0099963
0.00999489
0.00999624
0.00999611
0.00999568
0.00999685
0.00999774
0.00999835
0.00999792
)
;

boundaryField
{
    inlet
    {
        type            fixedValue;
        value           uniform 0.2;
    }
    outlet
    {
        type            zeroGradient;
    }
    yzfaces
    {
        type            empty;
    }
}


// ************************************************************************* //
