/*--------------------------------*- C++ -*----------------------------------*\
| =========                 |                                                 |
| \\      /  F ield         | foam-extend: Open Source CFD                    |
|  \\    /   O peration     | Version:     5.0                                |
|   \\  /    A nd           | Web:         http://www.foam-extend.org         |
|    \\/     M anipulation  |                                                 |
\*---------------------------------------------------------------------------*/
FoamFile
{
    version     2.0;
    format      ascii;
    class       volScalarField;
    location    "3";
    object      Cl.water;
}
// * * * * * * * * * * * * * * * * * * * * * * * * * * * * * * * * * * * * * //

dimensions      [0 0 0 0 0 0 0];

internalField   nonuniform List<scalar> 
100
(
0.0112593
0.0147125
0.0167411
0.0182163
0.0195587
0.0204275
0.0213224
0.0221655
0.0229771
0.0235761
0.0239465
0.0244081
0.024876
0.0253186
0.0257494
0.0261005
0.0264654
0.026802
0.0271299
0.0273863
0.0277506
0.0279369
0.02826
0.0284479
0.0287516
0.0289587
0.0291787
0.0294
0.0296232
0.0298397
0.0300844
0.0303118
0.0305257
0.0306972
0.0309487
0.0311605
0.0313054
0.0314631
0.0316562
0.0319003
0.0321193
0.0323551
0.0325362
0.0337338
0.0340033
0.0342785
0.0345555
0.034856
0.035144
0.0354797
0.0357783
0.0361549
0.0365686
0.0369546
0.0373665
0.0378528
0.0382587
0.0386669
0.0390601
0.0393375
0.0395844
0.0397392
0.039857
0.0399073
0.0399464
0.039986
0.0400058
0.0400277
0.0400031
0.040008
0.0399877
0.0400116
0.0400079
0.0400071
0.0400226
0.0400066
0.0400171
0.0400428
0.0400324
0.0400152
0.0399919
0.0400152
0.0400421
0.0400156
0.0400394
0.040006
0.0399991
0.0400121
0.0399761
0.0399848
0.0399827
0.0399764
0.0400112
0.0400106
0.0399849
0.0399723
0.0399953
0.0400344
0.0399937
0.0399816
)
;

boundaryField
{
    inlet
    {
        type            fixedValue;
        value           uniform 0;
    }
    outlet
    {
        type            zeroGradient;
    }
    yzfaces
    {
        type            empty;
    }
}


// ************************************************************************* //
