/*--------------------------------*- C++ -*----------------------------------*\
| =========                 |                                                 |
| \\      /  F ield         | foam-extend: Open Source CFD                    |
|  \\    /   O peration     | Version:     5.0                                |
|   \\  /    A nd           | Web:         http://www.foam-extend.org         |
|    \\/     M anipulation  |                                                 |
\*---------------------------------------------------------------------------*/
FoamFile
{
    version     2.0;
    format      ascii;
    class       volScalarField;
    location    "3";
    object      CO2.water;
}
// * * * * * * * * * * * * * * * * * * * * * * * * * * * * * * * * * * * * * //

dimensions      [0 0 0 0 0 0 0];

internalField   nonuniform List<scalar> 
100
(
0.00145842
0.00187062
0.00214699
0.0023624
0.0025255
0.00265648
0.00277283
0.0028739
0.00295695
0.00302361
0.00308967
0.00315106
0.00321668
0.00327249
0.00331895
0.0033621
0.00340595
0.00344616
0.00348463
0.00352567
0.00355627
0.00359511
0.00362819
0.00366359
0.00369468
0.00372525
0.00375319
0.00378248
0.00381024
0.00383823
0.00386525
0.00389231
0.00391957
0.0039461
0.00397052
0.00399531
0.00402095
0.00404893
0.00407667
0.00410455
0.00413226
0.00415953
0.00418862
0.000180547
4.01087e-05
9.3927e-06
2.33564e-06
6.27528e-07
1.84301e-07
5.94118e-08
2.09495e-08
7.93002e-09
3.16513e-09
1.31249e-09
5.58927e-10
2.41772e-10
1.05441e-10
4.61869e-11
2.0243e-11
8.79511e-12
3.76638e-12
1.59715e-12
6.75772e-13
2.88748e-13
1.25999e-13
5.74197e-14
2.73408e-14
1.32212e-14
6.55869e-15
3.32475e-15
1.72113e-15
9.08288e-16
4.8735e-16
2.65149e-16
1.45514e-16
8.05203e-17
4.45538e-17
2.46329e-17
1.35475e-17
7.37336e-18
3.99383e-18
2.14698e-18
1.14584e-18
6.06558e-19
3.18005e-19
1.65444e-19
8.53457e-20
4.3624e-20
2.20651e-20
1.10815e-20
5.50994e-21
2.70805e-21
1.31785e-21
6.35264e-22
3.01939e-22
1.42405e-22
6.6239e-23
3.03131e-23
1.35273e-23
5.52903e-24
)
;

boundaryField
{
    inlet
    {
        type            fixedValue;
        value           uniform 0;
    }
    outlet
    {
        type            zeroGradient;
    }
    yzfaces
    {
        type            empty;
    }
}


// ************************************************************************* //
