/*--------------------------------*- C++ -*----------------------------------*\
| =========                 |                                                 |
| \\      /  F ield         | foam-extend: Open Source CFD                    |
|  \\    /   O peration     | Version:     5.0                                |
|   \\  /    A nd           | Web:         http://www.foam-extend.org         |
|    \\/     M anipulation  |                                                 |
\*---------------------------------------------------------------------------*/
FoamFile
{
    version     2.0;
    format      ascii;
    class       volScalarField;
    location    "3";
    object      CO2.gas;
}
// * * * * * * * * * * * * * * * * * * * * * * * * * * * * * * * * * * * * * //

dimensions      [0 0 0 0 0 0 0];

internalField   nonuniform List<scalar> 
100
(
0.144167
0.127841
0.117776
0.110038
0.103825
0.098646
0.0942829
0.0905585
0.0873108
0.08483
0.0822295
0.0798342
0.0775387
0.0757275
0.0738168
0.0719211
0.0702247
0.0685887
0.0669464
0.0655377
0.0640308
0.0627338
0.0615109
0.0603215
0.0592038
0.058124
0.0568596
0.0558205
0.0547016
0.0536551
0.0526627
0.0517072
0.0507172
0.0496996
0.0486783
0.0477041
0.046723
0.0457036
0.0446526
0.043589
0.0425293
0.0414536
0.0403694
0.0322634
0.0279965
0.0240493
0.0203444
0.0169568
0.0138564
0.011077
0.00863228
0.00653168
0.00476959
0.0033346
0.00221396
0.00138147
0.000799603
0.000425189
0.000206116
9.11291e-05
3.71945e-05
1.42908e-05
5.30006e-06
1.94109e-06
7.18089e-07
2.70822e-07
1.05011e-07
4.17831e-08
1.73843e-08
7.50313e-09
3.2152e-09
1.36906e-09
5.79327e-10
2.44453e-10
1.02661e-10
4.29284e-11
1.79043e-11
7.43217e-12
3.07972e-12
1.27217e-12
5.26832e-13
2.17047e-13
8.93584e-14
3.66192e-14
1.49818e-14
6.13202e-15
2.50656e-15
1.02178e-15
4.17045e-16
1.69689e-16
6.90071e-17
2.80238e-17
1.13928e-17
4.6215e-18
1.87239e-18
7.57265e-19
3.06544e-19
1.2376e-19
5.00186e-20
2.52455e-20
)
;

boundaryField
{
    inlet
    {
        type            fixedValue;
        value           uniform 0.2;
    }
    outlet
    {
        type            zeroGradient;
    }
    yzfaces
    {
        type            empty;
    }
}


// ************************************************************************* //
