/*--------------------------------*- C++ -*----------------------------------*\
| =========                 |                                                 |
| \\      /  F ield         | foam-extend: Open Source CFD                    |
|  \\    /   O peration     | Version:     5.0                                |
|   \\  /    A nd           | Web:         http://www.foam-extend.org         |
|    \\/     M anipulation  |                                                 |
\*---------------------------------------------------------------------------*/
FoamFile
{
    version     2.0;
    format      ascii;
    class       volScalarField;
    location    "3";
    object      H2O.gas;
}
// * * * * * * * * * * * * * * * * * * * * * * * * * * * * * * * * * * * * * //

dimensions      [0 0 0 0 0 0 0];

internalField   nonuniform List<scalar> 
100
(
0.000281308
0.000249452
0.000229813
0.000214714
0.00020259
0.000192485
0.000183972
0.000176704
0.000170367
0.000165526
0.000160452
0.000155778
0.000151299
0.000147765
0.000144037
0.000140338
0.000137027
0.000133835
0.000130631
0.000127882
0.000124942
0.000122411
0.000120024
0.000117704
0.000115523
0.000113416
0.000110948
0.000108921
0.000106738
0.000104696
0.000102759
0.000100895
9.89629e-05
9.69773e-05
9.49846e-05
9.30836e-05
9.11692e-05
8.91802e-05
8.71293e-05
8.5054e-05
8.29862e-05
8.08873e-05
7.87716e-05
0.00704183
0.0100985
0.0128801
0.0153176
0.0174147
0.0191126
0.0203851
0.0212212
0.0216119
0.021548
0.0210192
0.0200848
0.0188082
0.0172843
0.0156991
0.0141761
0.0128724
0.0118841
0.0111799
0.010715
0.0104142
0.01023
0.010138
0.0100822
0.010049
0.0100335
0.0100241
0.0100183
0.0100251
0.0100153
0.0100152
0.0100091
0.0100037
0.00999588
0.00999831
0.00999617
0.0100004
0.0100042
0.0100087
0.0100041
0.0100058
0.0100004
0.0100027
0.0100086
0.0100137
0.0100052
0.0100066
0.0100043
0.00999873
0.00999983
0.00999736
0.0100095
0.00999611
0.00999318
0.00999331
0.0100021
0.00999333
)
;

boundaryField
{
    inlet
    {
        type            fixedValue;
        value           uniform 0;
    }
    outlet
    {
        type            zeroGradient;
    }
    yzfaces
    {
        type            empty;
    }
}


// ************************************************************************* //
