/*--------------------------------*- C++ -*----------------------------------*\
| =========                 |                                                 |
| \\      /  F ield         | foam-extend: Open Source CFD                    |
|  \\    /   O peration     | Version:     5.0                                |
|   \\  /    A nd           | Web:         http://www.foam-extend.org         |
|    \\/     M anipulation  |                                                 |
\*---------------------------------------------------------------------------*/
FoamFile
{
    version     2.0;
    format      ascii;
    class       volScalarField;
    location    "3";
    object      H2O.water;
}
// * * * * * * * * * * * * * * * * * * * * * * * * * * * * * * * * * * * * * //

dimensions      [0 0 0 0 0 0 0];

internalField   nonuniform List<scalar> 
100
(
0.031555
0.0399271
0.0461061
0.0511415
0.0544949
0.057615
0.060152
0.0622119
0.0636575
0.0649224
0.0666276
0.0679918
0.06949
0.0706692
0.0715263
0.0724472
0.0733449
0.0741654
0.0749409
0.0759215
0.0763369
0.0774122
0.0780017
0.0789357
0.0794764
0.0801804
0.0807808
0.081423
0.0820037
0.082608
0.0831191
0.0836573
0.0842477
0.0848999
0.0853052
0.0858161
0.0864588
0.0871704
0.0878118
0.0883524
0.0889477
0.0894783
0.0901945
0.0928431
0.09359
0.0943196
0.0950661
0.0958876
0.0966756
0.0975802
0.0983612
0.0994231
0.100581
0.101671
0.102764
0.104084
0.105241
0.106355
0.107422
0.108194
0.108919
0.109409
0.109698
0.109816
0.109912
0.110018
0.110016
0.110043
0.109967
0.10999
0.109933
0.109993
0.110012
0.110061
0.110116
0.110066
0.110043
0.110117
0.110082
0.11004
0.109977
0.110012
0.110107
0.110021
0.110102
0.110027
0.110014
0.110035
0.109907
0.109945
0.109933
0.109955
0.109999
0.109995
0.109886
0.109854
0.109911
0.110041
0.109977
0.109976
)
;

boundaryField
{
    inlet
    {
        type            fixedValue;
        value           uniform 0;
    }
    outlet
    {
        type            zeroGradient;
    }
    yzfaces
    {
        type            empty;
    }
}


// ************************************************************************* //
