/*--------------------------------*- C++ -*----------------------------------*\
| =========                 |                                                 |
| \\      /  F ield         | foam-extend: Open Source CFD                    |
|  \\    /   O peration     | Version:     5.0                                |
|   \\  /    A nd           | Web:         http://www.foam-extend.org         |
|    \\/     M anipulation  |                                                 |
\*---------------------------------------------------------------------------*/
FoamFile
{
    version     2.0;
    format      ascii;
    class       volScalarField;
    location    "3";
    object      H2O.gas;
}
// * * * * * * * * * * * * * * * * * * * * * * * * * * * * * * * * * * * * * //

dimensions      [0 0 0 0 0 0 0];

internalField   nonuniform List<scalar> 
100
(
0.000281355
0.000250791
0.000230299
0.000214326
0.000202233
0.00019252
0.000183894
0.000176399
0.000170241
0.000165298
0.0001604
0.000155848
0.000150983
0.000146845
0.000143399
0.0001402
0.000136949
0.000133967
0.000131115
0.000128072
0.000125803
0.000122923
0.00012047
0.000117845
0.00011554
0.000113273
0.000111202
0.00010903
0.000106972
0.000104896
0.000102893
0.000100886
9.88648e-05
9.68978e-05
9.5087e-05
9.32486e-05
9.13476e-05
8.92732e-05
8.72162e-05
8.51487e-05
8.30942e-05
8.10719e-05
7.89154e-05
0.00698775
0.0100389
0.0128006
0.0152475
0.0173534
0.0190532
0.0203639
0.0212024
0.0216139
0.0215943
0.0210835
0.0201494
0.0189033
0.0173899
0.015789
0.0142753
0.0129581
0.011942
0.0112193
0.0107422
0.0104379
0.0102557
0.0101533
0.010089
0.0100547
0.0100289
0.0100181
0.0100085
0.0100085
0.0100061
0.0100041
0.0100054
0.00999804
0.00999823
0.0100017
0.00999837
0.00999558
0.00999469
0.00999825
0.010008
0.0100035
0.0100099
0.0100041
0.0100033
0.0100044
0.00999453
0.00999411
0.00999591
0.00999676
0.00999786
0.00999568
0.00999
0.00998904
0.00999359
0.0100036
0.00999568
0.00999281
)
;

boundaryField
{
    inlet
    {
        type            fixedValue;
        value           uniform 0;
    }
    outlet
    {
        type            zeroGradient;
    }
    yzfaces
    {
        type            empty;
    }
}


// ************************************************************************* //
