/*--------------------------------*- C++ -*----------------------------------*\
| =========                 |                                                 |
| \\      /  F ield         | foam-extend: Open Source CFD                    |
|  \\    /   O peration     | Version:     5.0                                |
|   \\  /    A nd           | Web:         http://www.foam-extend.org         |
|    \\/     M anipulation  |                                                 |
\*---------------------------------------------------------------------------*/
FoamFile
{
    version     2.0;
    format      ascii;
    class       volScalarField;
    location    "3";
    object      Na.water;
}
// * * * * * * * * * * * * * * * * * * * * * * * * * * * * * * * * * * * * * //

dimensions      [0 0 0 0 0 0 0];

internalField   nonuniform List<scalar> 
100
(
0.0112556
0.0147122
0.0167505
0.0182261
0.0195772
0.0204444
0.0213259
0.02217
0.0229918
0.0235994
0.0239729
0.024423
0.0248895
0.0253369
0.0257717
0.0260993
0.0264622
0.026796
0.0271188
0.0274033
0.027758
0.0279367
0.0282502
0.0284408
0.0287491
0.0289714
0.0291866
0.0294091
0.0296344
0.0298512
0.0300971
0.030335
0.0305413
0.0307011
0.0309497
0.0311462
0.0313092
0.0314769
0.031671
0.03192
0.032133
0.0323777
0.0325586
0.0337583
0.0340221
0.0342899
0.0345766
0.0348605
0.0351496
0.0354826
0.0357829
0.0361542
0.0365776
0.036969
0.0373875
0.037879
0.0382861
0.0386795
0.0390639
0.0393416
0.0395786
0.0397339
0.039847
0.0398963
0.0399317
0.0399778
0.0399953
0.0400103
0.0399899
0.0399945
0.039979
0.0399988
0.0399962
0.0399947
0.0400035
0.0399855
0.0399942
0.0400076
0.0400087
0.0399931
0.0399895
0.0399844
0.0400248
0.0400307
0.0400452
0.0400302
0.0400257
0.0400364
0.0399951
0.0400072
0.040019
0.0400222
0.0400262
0.040026
0.0400056
0.0399944
0.0400015
0.0400182
0.0399871
0.0399688
)
;

boundaryField
{
    inlet
    {
        type            fixedValue;
        value           uniform 0;
    }
    outlet
    {
        type            zeroGradient;
    }
    yzfaces
    {
        type            empty;
    }
}


// ************************************************************************* //
