/*--------------------------------*- C++ -*----------------------------------*\
| =========                 |                                                 |
| \\      /  F ield         | foam-extend: Open Source CFD                    |
|  \\    /   O peration     | Version:     5.0                                |
|   \\  /    A nd           | Web:         http://www.foam-extend.org         |
|    \\/     M anipulation  |                                                 |
\*---------------------------------------------------------------------------*/
FoamFile
{
    version     2.0;
    format      ascii;
    class       surfaceScalarField;
    location    "3";
    object      phi;
}
// * * * * * * * * * * * * * * * * * * * * * * * * * * * * * * * * * * * * * //

dimensions      [0 3 -1 0 0 0 0];

internalField   nonuniform List<scalar> 
99
(
1.22532e-06
1.22595e-06
1.21864e-06
1.22122e-06
1.22168e-06
1.22363e-06
1.22614e-06
1.22478e-06
1.22814e-06
1.22097e-06
1.22467e-06
1.22733e-06
1.23325e-06
1.23733e-06
1.23546e-06
1.23311e-06
1.23178e-06
1.22814e-06
1.23013e-06
1.23263e-06
1.22828e-06
1.23004e-06
1.23061e-06
1.23068e-06
1.23126e-06
1.23565e-06
1.23595e-06
1.23765e-06
1.23944e-06
1.23708e-06
1.23399e-06
1.23069e-06
1.2306e-06
1.23299e-06
1.23026e-06
1.2261e-06
1.22086e-06
1.22113e-06
1.22216e-06
1.22182e-06
1.2238e-06
1.22028e-06
1.2228e-06
1.223e-06
1.22461e-06
1.22267e-06
1.22277e-06
1.22175e-06
1.22193e-06
1.22093e-06
1.21984e-06
1.22065e-06
1.21935e-06
1.21811e-06
1.21886e-06
1.21981e-06
1.21804e-06
1.2176e-06
1.21657e-06
1.2164e-06
1.21843e-06
1.21829e-06
1.21858e-06
1.21815e-06
1.2197e-06
1.21915e-06
1.21853e-06
1.21817e-06
1.21752e-06
1.21756e-06
1.21842e-06
1.2193e-06
1.21883e-06
1.22147e-06
1.22247e-06
1.22034e-06
1.21999e-06
1.21865e-06
1.21609e-06
1.21583e-06
1.21357e-06
1.21418e-06
1.21415e-06
1.21483e-06
1.21422e-06
1.21353e-06
1.21369e-06
1.2117e-06
1.21345e-06
1.2138e-06
1.21242e-06
1.21367e-06
1.21382e-06
1.21049e-06
1.2109e-06
1.21134e-06
1.20997e-06
1.21033e-06
1.21025e-06
)
;

boundaryField
{
    inlet
    {
        type            calculated;
        value           uniform -1.225e-06;
    }
    outlet
    {
        type            calculated;
        value           uniform 1.21375e-06;
    }
    yzfaces
    {
        type            empty;
    }
}


// ************************************************************************* //
