/*--------------------------------*- C++ -*----------------------------------*\
| =========                 |                                                 |
| \\      /  F ield         | foam-extend: Open Source CFD                    |
|  \\    /   O peration     | Version:     5.0                                |
|   \\  /    A nd           | Web:         http://www.foam-extend.org         |
|    \\/     M anipulation  |                                                 |
\*---------------------------------------------------------------------------*/
FoamFile
{
    version     2.0;
    format      ascii;
    class       surfaceScalarField;
    location    "3";
    object      phi.water;
}
// * * * * * * * * * * * * * * * * * * * * * * * * * * * * * * * * * * * * * //

dimensions      [0 3 -1 0 0 0 0];

internalField   nonuniform List<scalar> 
99
(
1.60892e-07
2.73895e-07
3.75194e-07
4.8023e-07
5.75106e-07
6.65436e-07
7.56202e-07
8.45638e-07
9.27926e-07
9.92937e-07
1.07093e-06
1.14677e-06
1.24105e-06
1.32386e-06
1.3914e-06
1.45785e-06
1.5275e-06
1.59398e-06
1.66591e-06
1.74938e-06
1.80203e-06
1.88675e-06
1.95713e-06
2.03781e-06
2.11009e-06
2.19288e-06
2.26191e-06
2.34126e-06
2.41697e-06
2.48622e-06
2.55408e-06
2.62536e-06
2.70768e-06
2.79101e-06
2.85777e-06
2.92403e-06
2.99404e-06
3.08902e-06
3.18362e-06
3.27806e-06
3.37817e-06
3.46555e-06
3.57916e-06
3.68843e-06
3.80846e-06
3.92037e-06
4.04375e-06
4.17166e-06
4.31103e-06
4.45926e-06
4.6162e-06
4.7875e-06
4.95803e-06
5.13961e-06
5.32666e-06
5.50859e-06
5.66439e-06
5.7985e-06
5.90026e-06
5.9753e-06
6.03341e-06
6.06342e-06
6.08521e-06
6.09598e-06
6.10936e-06
6.10946e-06
6.10863e-06
6.10975e-06
6.10912e-06
6.11091e-06
6.11536e-06
6.11832e-06
6.11515e-06
6.12668e-06
6.13193e-06
6.12272e-06
6.11918e-06
6.1115e-06
6.10073e-06
6.10198e-06
6.09095e-06
6.09052e-06
6.08938e-06
6.09255e-06
6.08947e-06
6.08835e-06
6.08886e-06
6.08154e-06
6.09262e-06
6.09369e-06
6.08633e-06
6.09102e-06
6.09068e-06
6.07657e-06
6.08191e-06
6.08356e-06
6.07226e-06
6.07332e-06
6.07558e-06
)
;

boundaryField
{
    inlet
    {
        type            fixedValue;
        value           uniform 0;
    }
    outlet
    {
        type            calculated;
        value           uniform 6.09374e-06;
    }
    yzfaces
    {
        type            empty;
    }
}


// ************************************************************************* //
