/*--------------------------------*- C++ -*----------------------------------*\
| =========                 |                                                 |
| \\      /  F ield         | foam-extend: Open Source CFD                    |
|  \\    /   O peration     | Version:     5.0                                |
|   \\  /    A nd           | Web:         http://www.foam-extend.org         |
|    \\/     M anipulation  |                                                 |
\*---------------------------------------------------------------------------*/
FoamFile
{
    version     2.0;
    format      ascii;
    class       volVectorField;
    location    "3";
    object      U.gas;
}
// * * * * * * * * * * * * * * * * * * * * * * * * * * * * * * * * * * * * * //

dimensions      [0 1 -1 0 0 0 0];

internalField   nonuniform List<vector> 
100
(
(0.00689388 0 0)
(0.00767064 0 0)
(0.00825414 0 0)
(0.00876385 0 0)
(0.00920364 0 0)
(0.00957826 0 0)
(0.00994047 0 0)
(0.0102549 0 0)
(0.0105212 0 0)
(0.0107129 0 0)
(0.0109167 0 0)
(0.0111493 0 0)
(0.0114172 0 0)
(0.0116459 0 0)
(0.0118052 0 0)
(0.0119268 0 0)
(0.012059 0 0)
(0.0121644 0 0)
(0.0122809 0 0)
(0.0124425 0 0)
(0.0125082 0 0)
(0.0126323 0 0)
(0.0127318 0 0)
(0.0128448 0 0)
(0.0129244 0 0)
(0.0130306 0 0)
(0.0131184 0 0)
(0.0132037 0 0)
(0.0132789 0 0)
(0.0133353 0 0)
(0.013355 0 0)
(0.0133682 0 0)
(0.0133904 0 0)
(0.013433 0 0)
(0.0134482 0 0)
(0.0134323 0 0)
(0.0133996 0 0)
(0.0133909 0 0)
(0.0133954 0 0)
(0.0133899 0 0)
(0.013377 0 0)
(0.0133359 0 0)
(0.0132972 0 0)
(0.0132581 0 0)
(0.0131983 0 0)
(0.0131046 0 0)
(0.0129895 0 0)
(0.0128473 0 0)
(0.0126828 0 0)
(0.0124789 0 0)
(0.0122222 0 0)
(0.0119193 0 0)
(0.0115376 0 0)
(0.0110722 0 0)
(0.010518 0 0)
(0.00986904 0 0)
(0.00911526 0 0)
(0.00829564 0 0)
(0.00746456 0 0)
(0.00669081 0 0)
(0.0060456 0 0)
(0.00555033 0 0)
(0.00519929 0 0)
(0.00496952 0 0)
(0.0048292 0 0)
(0.00474556 0 0)
(0.00469327 0 0)
(0.00466254 0 0)
(0.00464453 0 0)
(0.0046348 0 0)
(0.00463115 0 0)
(0.00463123 0 0)
(0.00462914 0 0)
(0.00463163 0 0)
(0.004636 0 0)
(0.00463361 0 0)
(0.0046283 0 0)
(0.00462498 0 0)
(0.00461584 0 0)
(0.00460995 0 0)
(0.00460648 0 0)
(0.00460495 0 0)
(0.00460629 0 0)
(0.00460848 0 0)
(0.00460941 0 0)
(0.00460721 0 0)
(0.00460597 0 0)
(0.00460234 0 0)
(0.00460133 0 0)
(0.00460555 0 0)
(0.00460236 0 0)
(0.00460312 0 0)
(0.0046055 0 0)
(0.00459854 0 0)
(0.00459255 0 0)
(0.00459436 0 0)
(0.00459321 0 0)
(0.00459126 0 0)
(0.00459188 0 0)
(0.00459823 0 0)
)
;

boundaryField
{
    inlet
    {
        type            fixedValue;
        value           uniform (0.005 0 0);
    }
    outlet
    {
        type            zeroGradient;
    }
    yzfaces
    {
        type            empty;
    }
}


// ************************************************************************* //
