/*--------------------------------*- C++ -*----------------------------------*\
| =========                 |                                                 |
| \\      /  F ield         | foam-extend: Open Source CFD                    |
|  \\    /   O peration     | Version:     5.0                                |
|   \\  /    A nd           | Web:         http://www.foam-extend.org         |
|    \\/     M anipulation  |                                                 |
\*---------------------------------------------------------------------------*/
FoamFile
{
    version     2.0;
    format      ascii;
    class       volVectorField;
    location    "3";
    object      U.gas;
}
// * * * * * * * * * * * * * * * * * * * * * * * * * * * * * * * * * * * * * //

dimensions      [0 1 -1 0 0 0 0];

internalField   nonuniform List<vector> 
100
(
(0.00690247 0 0)
(0.00771904 0 0)
(0.00826434 0 0)
(0.0087469 0 0)
(0.00922714 0 0)
(0.00962692 0 0)
(0.00996576 0 0)
(0.0102836 0 0)
(0.0105629 0 0)
(0.0107493 0 0)
(0.0109538 0 0)
(0.0111634 0 0)
(0.011385 0 0)
(0.0115294 0 0)
(0.0116692 0 0)
(0.0118122 0 0)
(0.0119193 0 0)
(0.0120261 0 0)
(0.0121691 0 0)
(0.0122762 0 0)
(0.0124002 0 0)
(0.0125 0 0)
(0.0125944 0 0)
(0.0126878 0 0)
(0.0127794 0 0)
(0.0128595 0 0)
(0.0129769 0 0)
(0.0130407 0 0)
(0.0131083 0 0)
(0.0131721 0 0)
(0.0132434 0 0)
(0.013273 0 0)
(0.0132845 0 0)
(0.0133122 0 0)
(0.0133425 0 0)
(0.0133575 0 0)
(0.0133484 0 0)
(0.0133361 0 0)
(0.0133137 0 0)
(0.0132965 0 0)
(0.0132737 0 0)
(0.0132331 0 0)
(0.0131883 0 0)
(0.0131326 0 0)
(0.0130667 0 0)
(0.0129818 0 0)
(0.0128892 0 0)
(0.0127451 0 0)
(0.0125702 0 0)
(0.0123635 0 0)
(0.0121047 0 0)
(0.0118019 0 0)
(0.0114302 0 0)
(0.0109688 0 0)
(0.0104122 0 0)
(0.00975328 0 0)
(0.00899883 0 0)
(0.00818906 0 0)
(0.00737374 0 0)
(0.00661605 0 0)
(0.0059821 0 0)
(0.0054953 0 0)
(0.00515037 0 0)
(0.00492577 0 0)
(0.00479216 0 0)
(0.00471334 0 0)
(0.00466334 0 0)
(0.00463591 0 0)
(0.00462141 0 0)
(0.00461376 0 0)
(0.00461203 0 0)
(0.00461035 0 0)
(0.00460825 0 0)
(0.00460882 0 0)
(0.00460774 0 0)
(0.00460699 0 0)
(0.00460188 0 0)
(0.0045954 0 0)
(0.00459508 0 0)
(0.00459787 0 0)
(0.00459945 0 0)
(0.00459881 0 0)
(0.00460009 0 0)
(0.00459917 0 0)
(0.0045926 0 0)
(0.00459173 0 0)
(0.00459517 0 0)
(0.00459429 0 0)
(0.00459723 0 0)
(0.00459768 0 0)
(0.00459401 0 0)
(0.00458987 0 0)
(0.00458555 0 0)
(0.00458222 0 0)
(0.00457911 0 0)
(0.0045731 0 0)
(0.00457189 0 0)
(0.00457396 0 0)
(0.00457533 0 0)
(0.00457674 0 0)
)
;

boundaryField
{
    inlet
    {
        type            fixedValue;
        value           uniform (0.005 0 0);
    }
    outlet
    {
        type            zeroGradient;
    }
    yzfaces
    {
        type            empty;
    }
}


// ************************************************************************* //
