/*--------------------------------*- C++ -*----------------------------------*\
| =========                 |                                                 |
| \\      /  F ield         | foam-extend: Open Source CFD                    |
|  \\    /   O peration     | Version:     5.0                                |
|   \\  /    A nd           | Web:         http://www.foam-extend.org         |
|    \\/     M anipulation  |                                                 |
\*---------------------------------------------------------------------------*/
FoamFile
{
    version     2.0;
    format      ascii;
    class       volVectorField;
    location    "3";
    object      U.water;
}
// * * * * * * * * * * * * * * * * * * * * * * * * * * * * * * * * * * * * * //

dimensions      [0 1 -1 0 0 0 0];

internalField   nonuniform List<vector> 
100
(
(7.4919e-05 0 0)
(0.000178484 0 0)
(0.000265404 0 0)
(0.000348704 0 0)
(0.000430149 0 0)
(0.000506332 0 0)
(0.000580255 0 0)
(0.000653399 0 0)
(0.000723593 0 0)
(0.000784728 0 0)
(0.000842251 0 0)
(0.000905039 0 0)
(0.000973017 0 0)
(0.00104548 0 0)
(0.00110826 0 0)
(0.00116366 0 0)
(0.00121894 0 0)
(0.00127472 0 0)
(0.00133074 0 0)
(0.0013927 0 0)
(0.00145084 0 0)
(0.00150538 0 0)
(0.00156912 0 0)
(0.00162986 0 0)
(0.00169255 0 0)
(0.00175546 0 0)
(0.0018177 0 0)
(0.00187774 0 0)
(0.0019416 0 0)
(0.00200188 0 0)
(0.0020589 0 0)
(0.00211522 0 0)
(0.00217668 0 0)
(0.00224419 0 0)
(0.0023072 0 0)
(0.00236282 0 0)
(0.00241837 0 0)
(0.00248367 0 0)
(0.00256 0 0)
(0.00263696 0 0)
(0.00271682 0 0)
(0.00279356 0 0)
(0.00287402 0 0)
(0.00296437 0 0)
(0.00305801 0 0)
(0.00315321 0 0)
(0.00325022 0 0)
(0.00335414 0 0)
(0.00346394 0 0)
(0.00358121 0 0)
(0.00370464 0 0)
(0.00383927 0 0)
(0.00398101 0 0)
(0.00412396 0 0)
(0.00427324 0 0)
(0.00442401 0 0)
(0.00456039 0 0)
(0.00467693 0 0)
(0.00477271 0 0)
(0.00484473 0 0)
(0.00490047 0 0)
(0.00493855 0 0)
(0.00496037 0 0)
(0.00497309 0 0)
(0.00498308 0 0)
(0.00498962 0 0)
(0.0049898 0 0)
(0.00498926 0 0)
(0.00498802 0 0)
(0.0049872 0 0)
(0.00498931 0 0)
(0.00499304 0 0)
(0.00499403 0 0)
(0.00499854 0 0)
(0.00500613 0 0)
(0.00500383 0 0)
(0.00499877 0 0)
(0.00499531 0 0)
(0.00498742 0 0)
(0.00498169 0 0)
(0.00497647 0 0)
(0.00497299 0 0)
(0.00497415 0 0)
(0.00497546 0 0)
(0.00497555 0 0)
(0.00497286 0 0)
(0.00497179 0 0)
(0.00496806 0 0)
(0.00496761 0 0)
(0.00497189 0 0)
(0.00496985 0 0)
(0.00496953 0 0)
(0.0049724 0 0)
(0.00496592 0 0)
(0.00495998 0 0)
(0.00496171 0 0)
(0.00495976 0 0)
(0.00495769 0 0)
(0.00495826 0 0)
(0.00496527 0 0)
)
;

boundaryField
{
    inlet
    {
        type            fixedValue;
        value           uniform (0 0 0);
    }
    outlet
    {
        type            zeroGradient;
    }
    yzfaces
    {
        type            empty;
    }
}


// ************************************************************************* //
