/*--------------------------------*- C++ -*----------------------------------*\
| =========                 |                                                 |
| \\      /  F ield         | foam-extend: Open Source CFD                    |
|  \\    /   O peration     | Version:     5.0                                |
|   \\  /    A nd           | Web:         http://www.foam-extend.org         |
|    \\/     M anipulation  |                                                 |
\*---------------------------------------------------------------------------*/
FoamFile
{
    version     2.0;
    format      ascii;
    class       volScalarField;
    location    "7";
    object      alpha.gas;
}
// * * * * * * * * * * * * * * * * * * * * * * * * * * * * * * * * * * * * * //

dimensions      [0 0 0 0 0 0 0];

internalField   nonuniform List<scalar> 
100
(
0.163154
0.150075
0.140871
0.134929
0.132356
0.127702
0.122374
0.117812
0.114135
0.110823
0.107821
0.104832
0.102242
0.0995393
0.0972575
0.0955122
0.0934692
0.0916786
0.0901462
0.0882745
0.087456
0.0867029
0.0860875
0.085432
0.0843267
0.0833148
0.0821789
0.0808624
0.0796791
0.0784917
0.0774465
0.0765795
0.0757038
0.0749716
0.0741869
0.07332
0.0724585
0.0718063
0.0711612
0.0705601
0.0699428
0.0693722
0.0686159
0.0679598
0.0672718
0.0667477
0.0661066
0.0655156
0.0650235
0.0643901
0.0638076
0.0631556
0.0626506
0.062144
0.061557
0.060989
0.0604609
0.0599825
0.0593945
0.0590055
0.05851
0.0581087
0.0576839
0.0572466
0.0567706
0.0562455
0.055733
0.0552976
0.0547998
0.0544788
0.0540753
0.0536137
0.0532725
0.0528705
0.052484
0.0521093
0.0517415
0.0514074
0.051013
0.0504759
0.0500169
0.049566
0.0491325
0.0487188
0.0482697
0.047757
0.0472846
0.0467466
0.0462327
0.045765
0.0452754
0.0447949
0.0443157
0.0438414
0.0434052
0.0429205
0.0424549
0.0419458
0.0414491
0.0409653
)
;

boundaryField
{
    inlet
    {
        type            fixedValue;
        value           uniform 0.2;
    }
    outlet
    {
        type            zeroGradient;
    }
    yzfaces
    {
        type            empty;
    }
}


// ************************************************************************* //
