/*--------------------------------*- C++ -*----------------------------------*\
| =========                 |                                                 |
| \\      /  F ield         | foam-extend: Open Source CFD                    |
|  \\    /   O peration     | Version:     5.0                                |
|   \\  /    A nd           | Web:         http://www.foam-extend.org         |
|    \\/     M anipulation  |                                                 |
\*---------------------------------------------------------------------------*/
FoamFile
{
    version     2.0;
    format      ascii;
    class       volScalarField;
    location    "7";
    object      alpha.gas;
}
// * * * * * * * * * * * * * * * * * * * * * * * * * * * * * * * * * * * * * //

dimensions      [0 0 0 0 0 0 0];

internalField   nonuniform List<scalar> 
100
(
0.163097
0.149896
0.140491
0.135001
0.131861
0.127734
0.122786
0.117412
0.113787
0.110521
0.107599
0.104612
0.102023
0.0995504
0.097195
0.0951056
0.0930906
0.0914318
0.0898864
0.0884861
0.0874244
0.0865367
0.0859092
0.0850505
0.0839018
0.0832639
0.0820002
0.0806685
0.0794371
0.0782632
0.077384
0.0765148
0.0756329
0.0749408
0.0740521
0.0732847
0.0725852
0.0718063
0.0710513
0.0704349
0.0697896
0.0691515
0.06843
0.0677178
0.0671268
0.0664872
0.0660249
0.0654871
0.0648986
0.0643184
0.06356
0.0630754
0.06255
0.0620571
0.0616255
0.0610733
0.0605584
0.060037
0.0595616
0.0590463
0.0585069
0.0580433
0.0576274
0.0571377
0.0566817
0.056255
0.0557998
0.0553525
0.0549927
0.0545685
0.0541506
0.0537532
0.0533375
0.0529664
0.052625
0.0522546
0.0518612
0.0514554
0.0510656
0.0506251
0.0502197
0.0497748
0.0493062
0.0488657
0.0484528
0.0479367
0.0474692
0.0469326
0.0464763
0.0459911
0.0454501
0.0449653
0.0444585
0.0439422
0.0434658
0.042973
0.0424891
0.0419917
0.0414866
0.0409239
)
;

boundaryField
{
    inlet
    {
        type            fixedValue;
        value           uniform 0.2;
    }
    outlet
    {
        type            zeroGradient;
    }
    yzfaces
    {
        type            empty;
    }
}


// ************************************************************************* //
