/*--------------------------------*- C++ -*----------------------------------*\
| =========                 |                                                 |
| \\      /  F ield         | foam-extend: Open Source CFD                    |
|  \\    /   O peration     | Version:     5.0                                |
|   \\  /    A nd           | Web:         http://www.foam-extend.org         |
|    \\/     M anipulation  |                                                 |
\*---------------------------------------------------------------------------*/
FoamFile
{
    version     2.0;
    format      ascii;
    class       volScalarField;
    location    "7";
    object      Cl.water;
}
// * * * * * * * * * * * * * * * * * * * * * * * * * * * * * * * * * * * * * //

dimensions      [0 0 0 0 0 0 0];

internalField   nonuniform List<scalar> 
100
(
0.00422954
0.00573198
0.00679174
0.00746192
0.0077764
0.00830881
0.00891339
0.00944054
0.00986448
0.0102419
0.0105869
0.010926
0.0112175
0.0115288
0.0117875
0.0119958
0.0122283
0.0124297
0.0126142
0.0128227
0.0129274
0.0130122
0.0130792
0.0131576
0.0132794
0.0134034
0.0135313
0.0136774
0.0138133
0.0139494
0.01407
0.0141757
0.0142724
0.0143557
0.0144496
0.0145488
0.014646
0.0147218
0.0147978
0.0148661
0.014935
0.0150022
0.0150873
0.0151625
0.0152406
0.0152997
0.015374
0.0154361
0.0154957
0.0155676
0.0156367
0.0157067
0.0157624
0.0158207
0.0158894
0.0159511
0.0160109
0.0160719
0.0161346
0.0161824
0.0162355
0.0162809
0.0163295
0.0163821
0.0164396
0.0165019
0.0165613
0.0166135
0.016663
0.0167018
0.0167476
0.0167979
0.0168401
0.0168862
0.0169346
0.0169775
0.0170174
0.0170609
0.0171094
0.0171663
0.0172209
0.0172762
0.0173279
0.0173813
0.0174319
0.0174853
0.017537
0.0175986
0.0176544
0.0177018
0.0177565
0.0178093
0.017866
0.0179202
0.0179744
0.0180294
0.0180878
0.0181508
0.0182124
0.0182701
)
;

boundaryField
{
    inlet
    {
        type            fixedValue;
        value           uniform 0;
    }
    outlet
    {
        type            zeroGradient;
    }
    yzfaces
    {
        type            empty;
    }
}


// ************************************************************************* //
