/*--------------------------------*- C++ -*----------------------------------*\
| =========                 |                                                 |
| \\      /  F ield         | foam-extend: Open Source CFD                    |
|  \\    /   O peration     | Version:     5.0                                |
|   \\  /    A nd           | Web:         http://www.foam-extend.org         |
|    \\/     M anipulation  |                                                 |
\*---------------------------------------------------------------------------*/
FoamFile
{
    version     2.0;
    format      ascii;
    class       volScalarField;
    location    "7";
    object      Cl.water;
}
// * * * * * * * * * * * * * * * * * * * * * * * * * * * * * * * * * * * * * //

dimensions      [0 0 0 0 0 0 0];

internalField   nonuniform List<scalar> 
100
(
0.0042411
0.00576064
0.00684118
0.00745913
0.0078308
0.00829773
0.00886881
0.00947651
0.00989739
0.0102685
0.0106051
0.0109504
0.011254
0.0115374
0.0118037
0.0120436
0.0122805
0.0124595
0.0126421
0.0128072
0.012927
0.0130261
0.0131004
0.0132003
0.0133243
0.0134055
0.0135486
0.0136974
0.0138385
0.0139792
0.0140796
0.0141769
0.0142763
0.0143587
0.014458
0.0145437
0.0146253
0.0147118
0.0148008
0.0148776
0.0149577
0.0150298
0.0151086
0.0151887
0.0152557
0.0153308
0.015386
0.0154515
0.0155153
0.0155825
0.0156673
0.0157275
0.0157891
0.0158388
0.0158893
0.0159518
0.0160179
0.0160773
0.0161313
0.0161857
0.0162461
0.0162981
0.0163479
0.0164008
0.016452
0.0165035
0.0165523
0.0166026
0.0166502
0.0166995
0.01675
0.0167923
0.0168377
0.0168798
0.0169162
0.0169626
0.0170099
0.0170529
0.0170996
0.0171546
0.0172013
0.0172493
0.0173059
0.0173618
0.0174127
0.0174703
0.0175239
0.0175811
0.0176375
0.0176894
0.0177459
0.017801
0.0178593
0.0179168
0.0179726
0.0180286
0.0180871
0.0181452
0.0182055
0.0182656
)
;

boundaryField
{
    inlet
    {
        type            fixedValue;
        value           uniform 0;
    }
    outlet
    {
        type            zeroGradient;
    }
    yzfaces
    {
        type            empty;
    }
}


// ************************************************************************* //
