/*--------------------------------*- C++ -*----------------------------------*\
| =========                 |                                                 |
| \\      /  F ield         | foam-extend: Open Source CFD                    |
|  \\    /   O peration     | Version:     5.0                                |
|   \\  /    A nd           | Web:         http://www.foam-extend.org         |
|    \\/     M anipulation  |                                                 |
\*---------------------------------------------------------------------------*/
FoamFile
{
    version     2.0;
    format      ascii;
    class       volScalarField;
    location    "7";
    object      CO2.gas;
}
// * * * * * * * * * * * * * * * * * * * * * * * * * * * * * * * * * * * * * //

dimensions      [0 0 0 0 0 0 0];

internalField   nonuniform List<scalar> 
100
(
0.162836
0.149783
0.140597
0.134666
0.132098
0.127453
0.122136
0.117583
0.113912
0.110607
0.107611
0.104628
0.102043
0.0993455
0.0970681
0.0953262
0.0932871
0.0915001
0.0899706
0.0881026
0.0872856
0.0865341
0.0859198
0.0852656
0.0841625
0.0831525
0.0820189
0.080705
0.0795239
0.0783388
0.0772957
0.0764304
0.0755563
0.0748256
0.0740424
0.0731772
0.0723174
0.0716665
0.0710226
0.0704227
0.0698066
0.0692371
0.0684823
0.0678275
0.0671408
0.0666177
0.0659778
0.065388
0.0648968
0.0642647
0.0636833
0.0630326
0.0625286
0.062023
0.0614372
0.0608702
0.0603432
0.0598656
0.0592788
0.0588906
0.058396
0.0579956
0.0575715
0.0571351
0.0566601
0.056136
0.0556245
0.0551899
0.0546931
0.0543727
0.05397
0.0535093
0.0531688
0.0527676
0.0523818
0.0520079
0.0516407
0.0513073
0.0509137
0.0503776
0.0499195
0.0494695
0.0490369
0.0486239
0.0481757
0.047664
0.0471925
0.0466556
0.0461426
0.0456759
0.0451872
0.0447077
0.0442294
0.043756
0.0433207
0.0428369
0.0423722
0.0418641
0.0413684
0.0408856
)
;

boundaryField
{
    inlet
    {
        type            fixedValue;
        value           uniform 0.2;
    }
    outlet
    {
        type            zeroGradient;
    }
    yzfaces
    {
        type            empty;
    }
}


// ************************************************************************* //
