/*--------------------------------*- C++ -*----------------------------------*\
| =========                 |                                                 |
| \\      /  F ield         | foam-extend: Open Source CFD                    |
|  \\    /   O peration     | Version:     5.0                                |
|   \\  /    A nd           | Web:         http://www.foam-extend.org         |
|    \\/     M anipulation  |                                                 |
\*---------------------------------------------------------------------------*/
FoamFile
{
    version     2.0;
    format      ascii;
    class       volScalarField;
    location    "7";
    object      CO2.gas;
}
// * * * * * * * * * * * * * * * * * * * * * * * * * * * * * * * * * * * * * //

dimensions      [0 0 0 0 0 0 0];

internalField   nonuniform List<scalar> 
100
(
0.162779
0.149604
0.140218
0.134738
0.131604
0.127486
0.122547
0.117183
0.113565
0.110306
0.107389
0.104408
0.101824
0.0993565
0.0970057
0.0949204
0.0929093
0.0912537
0.0897113
0.0883137
0.0872542
0.0863682
0.0857419
0.0848849
0.0837384
0.0831017
0.0818405
0.0805114
0.0792824
0.0781108
0.0772333
0.0763658
0.0754856
0.0747949
0.0739078
0.073142
0.0724439
0.0716664
0.0709129
0.0702977
0.0696537
0.0690169
0.0682968
0.0675859
0.0669961
0.0663577
0.0658963
0.0653596
0.0647722
0.0641931
0.0634362
0.0629526
0.0624282
0.0619362
0.0615055
0.0609544
0.0604405
0.0599201
0.0594456
0.0589313
0.058393
0.0579303
0.0575152
0.0570265
0.0565713
0.0561455
0.0556911
0.0552447
0.0548856
0.0544622
0.0540452
0.0536485
0.0532337
0.0528632
0.0525225
0.0521529
0.0517602
0.0513551
0.0509661
0.0505265
0.0501219
0.0496779
0.0492102
0.0487706
0.0483584
0.0478433
0.0473768
0.0468412
0.0463858
0.0459015
0.0453615
0.0448778
0.0443719
0.0438566
0.0433811
0.0428893
0.0424064
0.0419099
0.0414058
0.0408442
)
;

boundaryField
{
    inlet
    {
        type            fixedValue;
        value           uniform 0.2;
    }
    outlet
    {
        type            zeroGradient;
    }
    yzfaces
    {
        type            empty;
    }
}


// ************************************************************************* //
