/*--------------------------------*- C++ -*----------------------------------*\
| =========                 |                                                 |
| \\      /  F ield         | foam-extend: Open Source CFD                    |
|  \\    /   O peration     | Version:     5.0                                |
|   \\  /    A nd           | Web:         http://www.foam-extend.org         |
|    \\/     M anipulation  |                                                 |
\*---------------------------------------------------------------------------*/
FoamFile
{
    version     2.0;
    format      ascii;
    class       volScalarField;
    location    "7";
    object      CO2.water;
}
// * * * * * * * * * * * * * * * * * * * * * * * * * * * * * * * * * * * * * //

dimensions      [0 0 0 0 0 0 0];

internalField   nonuniform List<scalar> 
100
(
0.00096774
0.00131125
0.00155299
0.00170905
0.00177664
0.00189888
0.00203881
0.00215863
0.00225521
0.0023422
0.00242104
0.00249955
0.00256757
0.00263855
0.00269849
0.00274433
0.00279798
0.00284501
0.00288526
0.00293442
0.00295592
0.0029757
0.00299186
0.00300908
0.00303811
0.00306468
0.00309452
0.00312909
0.00316017
0.00319136
0.00321881
0.00324158
0.00326458
0.00328381
0.00330442
0.00332719
0.00334982
0.00336695
0.00338389
0.00339968
0.00341589
0.00343088
0.00345074
0.00346797
0.00348605
0.00349981
0.00351665
0.00353217
0.0035451
0.00356173
0.00357703
0.00359415
0.00360742
0.00362072
0.00363614
0.00365106
0.00366493
0.0036775
0.00369294
0.00370315
0.00371617
0.00372671
0.00373787
0.00374935
0.00376185
0.00377565
0.00378911
0.00380054
0.00381362
0.00382205
0.00383264
0.00384477
0.00385373
0.00386429
0.00387444
0.00388428
0.00389394
0.00390272
0.00391307
0.00392718
0.00393924
0.00395108
0.00396246
0.00397333
0.00398513
0.00399859
0.004011
0.00402513
0.00403863
0.00405091
0.00406377
0.00407639
0.00408898
0.00410143
0.00411289
0.00412562
0.00413785
0.00415122
0.00416427
0.00417697
)
;

boundaryField
{
    inlet
    {
        type            fixedValue;
        value           uniform 0;
    }
    outlet
    {
        type            zeroGradient;
    }
    yzfaces
    {
        type            empty;
    }
}


// ************************************************************************* //
