/*--------------------------------*- C++ -*----------------------------------*\
| =========                 |                                                 |
| \\      /  F ield         | foam-extend: Open Source CFD                    |
|  \\    /   O peration     | Version:     5.0                                |
|   \\  /    A nd           | Web:         http://www.foam-extend.org         |
|    \\/     M anipulation  |                                                 |
\*---------------------------------------------------------------------------*/
FoamFile
{
    version     2.0;
    format      ascii;
    class       volScalarField;
    location    "7";
    object      CO2.water;
}
// * * * * * * * * * * * * * * * * * * * * * * * * * * * * * * * * * * * * * //

dimensions      [0 0 0 0 0 0 0];

internalField   nonuniform List<scalar> 
100
(
0.000969242
0.00131597
0.00156297
0.00170716
0.00178965
0.00189802
0.00202799
0.00216913
0.00226435
0.00235012
0.00242688
0.00250532
0.00257332
0.00263826
0.00270013
0.002755
0.00280793
0.0028515
0.00289208
0.00292886
0.00295675
0.00298006
0.00299654
0.00301909
0.00304927
0.00306602
0.00309921
0.00313419
0.00316653
0.00319736
0.00322045
0.00324328
0.00326644
0.00328462
0.00330796
0.00332812
0.00334649
0.00336695
0.00338678
0.00340297
0.00341992
0.00343667
0.00345562
0.00347433
0.00348985
0.00350665
0.00351879
0.00353292
0.00354838
0.00356362
0.00358353
0.00359626
0.00361006
0.00362301
0.00363434
0.00364884
0.00366237
0.00367606
0.00368855
0.00370208
0.00371625
0.00372843
0.00373935
0.00375221
0.00376419
0.0037754
0.00378735
0.0037991
0.00380855
0.00381969
0.00383067
0.00384111
0.00385202
0.00386177
0.00387074
0.00388046
0.0038908
0.00390146
0.00391169
0.00392326
0.00393391
0.0039456
0.0039579
0.00396947
0.00398032
0.00399387
0.00400615
0.00402024
0.00403223
0.00404497
0.00405918
0.00407191
0.00408523
0.00409879
0.0041113
0.00412424
0.00413695
0.00415002
0.00416328
0.00417806
)
;

boundaryField
{
    inlet
    {
        type            fixedValue;
        value           uniform 0;
    }
    outlet
    {
        type            zeroGradient;
    }
    yzfaces
    {
        type            empty;
    }
}


// ************************************************************************* //
