/*--------------------------------*- C++ -*----------------------------------*\
| =========                 |                                                 |
| \\      /  F ield         | foam-extend: Open Source CFD                    |
|  \\    /   O peration     | Version:     5.0                                |
|   \\  /    A nd           | Web:         http://www.foam-extend.org         |
|    \\/     M anipulation  |                                                 |
\*---------------------------------------------------------------------------*/
FoamFile
{
    version     2.0;
    format      ascii;
    class       volScalarField;
    location    "7";
    object      H2O.gas;
}
// * * * * * * * * * * * * * * * * * * * * * * * * * * * * * * * * * * * * * //

dimensions      [0 0 0 0 0 0 0];

internalField   nonuniform List<scalar> 
100
(
0.000317627
0.000291918
0.000273603
0.000262911
0.000256795
0.000248759
0.000239122
0.000228657
0.000221596
0.000215237
0.000209545
0.000203729
0.000198687
0.000193871
0.000189284
0.000185215
0.000181291
0.000178061
0.000175051
0.000172324
0.000170257
0.000168528
0.000167306
0.000165633
0.000163396
0.000162154
0.000159693
0.000157099
0.000154701
0.000152415
0.000150703
0.00014901
0.000147293
0.000145945
0.000144214
0.00014272
0.000141358
0.000139841
0.00013837
0.00013717
0.000135913
0.000134671
0.000133265
0.000131878
0.000130727
0.000129482
0.000128582
0.000127534
0.000126388
0.000125258
0.000123781
0.000122838
0.000121814
0.000120854
0.000120014
0.000118939
0.000117936
0.00011692
0.000115994
0.000114991
0.000113941
0.000113038
0.000112228
0.000111274
0.000110386
0.000109555
0.000108668
0.000107797
0.000107097
0.000106271
0.000105457
0.000104683
0.000103873
0.00010315
0.000102486
0.000101764
0.000100998
0.000100208
9.94488e-05
9.85909e-05
9.78014e-05
9.6935e-05
9.60224e-05
9.51646e-05
9.43603e-05
9.33552e-05
9.24449e-05
9.13999e-05
9.05113e-05
8.95662e-05
8.85127e-05
8.75687e-05
8.65816e-05
8.55761e-05
8.46483e-05
8.36886e-05
8.27463e-05
8.17776e-05
8.07939e-05
7.9698e-05
)
;

boundaryField
{
    inlet
    {
        type            fixedValue;
        value           uniform 0;
    }
    outlet
    {
        type            zeroGradient;
    }
    yzfaces
    {
        type            empty;
    }
}


// ************************************************************************* //
