/*--------------------------------*- C++ -*----------------------------------*\
| =========                 |                                                 |
| \\      /  F ield         | foam-extend: Open Source CFD                    |
|  \\    /   O peration     | Version:     5.0                                |
|   \\  /    A nd           | Web:         http://www.foam-extend.org         |
|    \\/     M anipulation  |                                                 |
\*---------------------------------------------------------------------------*/
FoamFile
{
    version     2.0;
    format      ascii;
    class       volScalarField;
    location    "7";
    object      H2O.water;
}
// * * * * * * * * * * * * * * * * * * * * * * * * * * * * * * * * * * * * * //

dimensions      [0 0 0 0 0 0 0];

internalField   nonuniform List<scalar> 
100
(
0.0274207
0.0371533
0.0439949
0.0484421
0.0503162
0.0537746
0.0577553
0.061143
0.0638791
0.0663485
0.068582
0.07081
0.07274
0.0747515
0.0764566
0.0777425
0.0792706
0.0806116
0.0817354
0.08314
0.0837345
0.0842937
0.084759
0.085242
0.0860738
0.0868091
0.0876588
0.0886407
0.0895204
0.0904107
0.0911935
0.0918339
0.0924869
0.0930304
0.0936102
0.0942598
0.094905
0.0953895
0.0958658
0.0963115
0.0967733
0.0971943
0.0977626
0.0982481
0.0987599
0.0991474
0.0996244
0.100072
0.10043
0.100904
0.101334
0.101821
0.102196
0.102573
0.103012
0.103434
0.103827
0.10418
0.104627
0.104908
0.10528
0.105576
0.105892
0.10622
0.106572
0.106964
0.107349
0.107671
0.108043
0.108275
0.108578
0.108923
0.109171
0.109475
0.109761
0.110041
0.110315
0.110561
0.110848
0.11126
0.111599
0.111934
0.112259
0.112559
0.112892
0.113279
0.113628
0.114035
0.114416
0.11476
0.115126
0.115486
0.11584
0.116196
0.116516
0.11688
0.117224
0.117605
0.117974
0.118331
)
;

boundaryField
{
    inlet
    {
        type            fixedValue;
        value           uniform 0;
    }
    outlet
    {
        type            zeroGradient;
    }
    yzfaces
    {
        type            empty;
    }
}


// ************************************************************************* //
