/*--------------------------------*- C++ -*----------------------------------*\
| =========                 |                                                 |
| \\      /  F ield         | foam-extend: Open Source CFD                    |
|  \\    /   O peration     | Version:     5.0                                |
|   \\  /    A nd           | Web:         http://www.foam-extend.org         |
|    \\/     M anipulation  |                                                 |
\*---------------------------------------------------------------------------*/
FoamFile
{
    version     2.0;
    format      ascii;
    class       volScalarField;
    location    "7";
    object      H2O.water;
}
// * * * * * * * * * * * * * * * * * * * * * * * * * * * * * * * * * * * * * //

dimensions      [0 0 0 0 0 0 0];

internalField   nonuniform List<scalar> 
100
(
0.0274542
0.0372713
0.0442706
0.0483791
0.0506874
0.0537685
0.0574416
0.0614599
0.0641449
0.066578
0.06875
0.0709783
0.0728975
0.0747415
0.0765013
0.0780518
0.0795415
0.0807943
0.0819371
0.0829723
0.0837676
0.0844328
0.0848856
0.0855216
0.0863973
0.0868554
0.0878028
0.0887951
0.0897144
0.0905805
0.0912369
0.0918818
0.0925437
0.0930528
0.0937159
0.0942882
0.0948083
0.0953884
0.0959503
0.0964109
0.0968829
0.0973581
0.0978987
0.0984321
0.0988688
0.0993494
0.0996876
0.100086
0.100528
0.100954
0.10153
0.101883
0.102272
0.102644
0.102958
0.103373
0.103755
0.104144
0.104492
0.104881
0.105287
0.105631
0.105935
0.106301
0.106642
0.106954
0.107295
0.107631
0.107892
0.108209
0.108519
0.108814
0.109126
0.109403
0.109655
0.109931
0.110224
0.110527
0.110816
0.111147
0.111444
0.111779
0.11213
0.112452
0.112753
0.113142
0.113489
0.113899
0.11423
0.114591
0.115
0.115357
0.115733
0.116122
0.116474
0.116843
0.117201
0.117568
0.117945
0.118369
)
;

boundaryField
{
    inlet
    {
        type            fixedValue;
        value           uniform 0;
    }
    outlet
    {
        type            zeroGradient;
    }
    yzfaces
    {
        type            empty;
    }
}


// ************************************************************************* //
