/*--------------------------------*- C++ -*----------------------------------*\
| =========                 |                                                 |
| \\      /  F ield         | foam-extend: Open Source CFD                    |
|  \\    /   O peration     | Version:     5.0                                |
|   \\  /    A nd           | Web:         http://www.foam-extend.org         |
|    \\/     M anipulation  |                                                 |
\*---------------------------------------------------------------------------*/
FoamFile
{
    version     2.0;
    format      ascii;
    class       volScalarField;
    location    "7";
    object      H2O.gas;
}
// * * * * * * * * * * * * * * * * * * * * * * * * * * * * * * * * * * * * * //

dimensions      [0 0 0 0 0 0 0];

internalField   nonuniform List<scalar> 
100
(
0.000317738
0.000292267
0.000274342
0.000262771
0.000257759
0.000248696
0.00023832
0.000229436
0.000222274
0.000215824
0.000209979
0.000204157
0.000199114
0.00019385
0.000189406
0.000186007
0.000182028
0.000178541
0.000175557
0.000171912
0.000170318
0.000168851
0.000167653
0.000166376
0.000164224
0.000162253
0.000160041
0.000157477
0.000155173
0.00015286
0.000150825
0.000149136
0.000147431
0.000146005
0.000144477
0.000142789
0.000141111
0.000139841
0.000138584
0.000137414
0.000136212
0.0001351
0.000133628
0.00013235
0.00013101
0.000129989
0.000128741
0.00012759
0.000126631
0.000125398
0.000124263
0.000122994
0.00012201
0.000121024
0.000119881
0.000118774
0.000117746
0.000116814
0.000115669
0.000114912
0.000113946
0.000113165
0.000112338
0.000111486
0.000110559
0.000109537
0.000108538
0.00010769
0.000106721
0.000106096
0.00010531
0.000104411
0.000103747
0.000102964
0.000102211
0.000101481
0.000100765
0.000100114
9.93464e-05
9.83004e-05
9.74065e-05
9.65284e-05
9.56842e-05
9.48784e-05
9.40039e-05
9.30053e-05
9.20854e-05
9.10377e-05
9.00367e-05
8.9126e-05
8.81725e-05
8.72368e-05
8.63036e-05
8.53798e-05
8.45304e-05
8.35864e-05
8.26797e-05
8.16882e-05
8.07209e-05
7.97788e-05
)
;

boundaryField
{
    inlet
    {
        type            fixedValue;
        value           uniform 0;
    }
    outlet
    {
        type            zeroGradient;
    }
    yzfaces
    {
        type            empty;
    }
}


// ************************************************************************* //
