/*--------------------------------*- C++ -*----------------------------------*\
| =========                 |                                                 |
| \\      /  F ield         | foam-extend: Open Source CFD                    |
|  \\    /   O peration     | Version:     5.0                                |
|   \\  /    A nd           | Web:         http://www.foam-extend.org         |
|    \\/     M anipulation  |                                                 |
\*---------------------------------------------------------------------------*/
FoamFile
{
    version     2.0;
    format      ascii;
    class       volScalarField;
    location    "7";
    object      Na.water;
}
// * * * * * * * * * * * * * * * * * * * * * * * * * * * * * * * * * * * * * //

dimensions      [0 0 0 0 0 0 0];

internalField   nonuniform List<scalar> 
100
(
0.00423854
0.00575636
0.00683402
0.0074533
0.00783138
0.00830147
0.0088755
0.00948233
0.00990664
0.0102822
0.0106194
0.0109541
0.0112521
0.0115325
0.0117999
0.012044
0.0122794
0.012463
0.0126423
0.0128055
0.0129243
0.0130244
0.0131082
0.0132085
0.0133274
0.0134092
0.0135492
0.0137049
0.0138435
0.0139798
0.014079
0.0141832
0.0142806
0.0143631
0.0144661
0.0145553
0.0146346
0.0147267
0.0148108
0.0148737
0.0149499
0.0150239
0.0151071
0.0151872
0.0152588
0.0153259
0.0153828
0.0154423
0.0155101
0.0155815
0.0156591
0.0157177
0.0157791
0.0158371
0.0158931
0.015953
0.0160064
0.0160657
0.0161264
0.016185
0.0162434
0.0162991
0.0163501
0.0164083
0.0164599
0.0165118
0.016566
0.0166143
0.0166564
0.0167033
0.0167503
0.0167996
0.0168469
0.0168892
0.0169335
0.0169716
0.0170144
0.0170637
0.0171072
0.0171496
0.0172015
0.0172518
0.0173002
0.0173511
0.0174017
0.0174573
0.0175112
0.0175674
0.0176241
0.017684
0.0177453
0.017805
0.0178637
0.0179207
0.0179766
0.018031
0.0180859
0.0181449
0.0181997
0.0182631
)
;

boundaryField
{
    inlet
    {
        type            fixedValue;
        value           uniform 0;
    }
    outlet
    {
        type            zeroGradient;
    }
    yzfaces
    {
        type            empty;
    }
}


// ************************************************************************* //
