/*--------------------------------*- C++ -*----------------------------------*\
| =========                 |                                                 |
| \\      /  F ield         | foam-extend: Open Source CFD                    |
|  \\    /   O peration     | Version:     5.0                                |
|   \\  /    A nd           | Web:         http://www.foam-extend.org         |
|    \\/     M anipulation  |                                                 |
\*---------------------------------------------------------------------------*/
FoamFile
{
    version     2.0;
    format      ascii;
    class       volScalarField;
    location    "7";
    object      Na.water;
}
// * * * * * * * * * * * * * * * * * * * * * * * * * * * * * * * * * * * * * //

dimensions      [0 0 0 0 0 0 0];

internalField   nonuniform List<scalar> 
100
(
0.00422789
0.00572815
0.00678932
0.00745764
0.00777482
0.00831588
0.00891866
0.00944578
0.00986646
0.0102448
0.0105889
0.0109328
0.0112329
0.0115419
0.0118
0.0120052
0.012234
0.012435
0.012619
0.0128284
0.0129262
0.0130155
0.0130824
0.0131593
0.0132819
0.013408
0.0135365
0.0136903
0.013827
0.0139568
0.0140712
0.0141692
0.0142724
0.0143584
0.0144489
0.0145442
0.0146407
0.0147155
0.0147913
0.0148626
0.014933
0.0150004
0.0150835
0.0151615
0.0152416
0.0153054
0.0153784
0.0154441
0.0155058
0.0155769
0.0156447
0.0157221
0.0157831
0.0158412
0.0159056
0.0159751
0.016036
0.0160879
0.016151
0.016201
0.0162581
0.0163072
0.0163567
0.0164019
0.0164564
0.0165125
0.0165671
0.0166177
0.0166802
0.0167225
0.0167665
0.0168202
0.0168627
0.0169037
0.0169458
0.0169882
0.0170321
0.017068
0.0171165
0.0171707
0.0172244
0.0172729
0.0173177
0.0173678
0.017421
0.0174803
0.0175392
0.0175947
0.0176579
0.0177223
0.017778
0.017833
0.0178888
0.0179413
0.0179913
0.0180446
0.0180954
0.0181473
0.0182002
0.018257
)
;

boundaryField
{
    inlet
    {
        type            fixedValue;
        value           uniform 0;
    }
    outlet
    {
        type            zeroGradient;
    }
    yzfaces
    {
        type            empty;
    }
}


// ************************************************************************* //
