/*--------------------------------*- C++ -*----------------------------------*\
| =========                 |                                                 |
| \\      /  F ield         | foam-extend: Open Source CFD                    |
|  \\    /   O peration     | Version:     5.0                                |
|   \\  /    A nd           | Web:         http://www.foam-extend.org         |
|    \\/     M anipulation  |                                                 |
\*---------------------------------------------------------------------------*/
FoamFile
{
    version     2.0;
    format      ascii;
    class       volScalarField;
    location    "7";
    object      Ns;
}
// * * * * * * * * * * * * * * * * * * * * * * * * * * * * * * * * * * * * * //

dimensions      [0 -3 0 0 1 0 0];

internalField   nonuniform List<scalar> 
100
(
2100.54
2020.28
1963.13
2001.26
2000.72
1938.63
1927.28
1870.08
1865.31
1832.67
1837.12
1822.22
1838.71
1762.64
1823.98
1785.69
1765.37
1794.8
1759.38
1792.82
1767.86
1795.3
1808.49
1812.05
1791.95
1766.68
2153.82
1894.79
1796.95
1766.61
1774.74
1780.76
1772.65
1788.49
1756.73
1777.27
1791.8
1773.87
1778.89
1759.99
1773.3
1801.78
1753.81
1761.87
2123.56
1858.85
1773.9
1795.05
1782.8
1774.58
1773.9
1749.73
1777.67
1785.38
1775.04
1779.85
1776.29
1790.02
1778.16
1775.05
1792.75
1781.84
2144.91
1859.73
1796.76
1797.73
1790.15
1765.44
1775.27
1796.42
1781.65
1780.28
1781.52
1770.91
1782.42
1772.86
1752.14
2136.95
1862.73
1798.54
1785.74
1775.93
1781.51
1823.75
1836.8
1895.79
1907.35
1923.01
1972.1
1779.05
1942.01
1961.2
1739.73
1931.87
1739.25
1923.23
1754.64
1943.3
1762.19
1942.61
)
;

boundaryField
{
    inlet
    {
        type            fixedValue;
        value           uniform 0;
    }
    outlet
    {
        type            zeroGradient;
    }
    yzfaces
    {
        type            empty;
    }
}


// ************************************************************************* //
