/*--------------------------------*- C++ -*----------------------------------*\
| =========                 |                                                 |
| \\      /  F ield         | foam-extend: Open Source CFD                    |
|  \\    /   O peration     | Version:     5.0                                |
|   \\  /    A nd           | Web:         http://www.foam-extend.org         |
|    \\/     M anipulation  |                                                 |
\*---------------------------------------------------------------------------*/
FoamFile
{
    version     2.0;
    format      ascii;
    class       surfaceScalarField;
    location    "7";
    object      phi;
}
// * * * * * * * * * * * * * * * * * * * * * * * * * * * * * * * * * * * * * //

dimensions      [0 3 -1 0 0 0 0];

internalField   nonuniform List<scalar> 
99
(
1.22656e-06
1.21389e-06
1.21436e-06
1.21959e-06
1.19808e-06
1.19433e-06
1.18464e-06
1.19621e-06
1.19056e-06
1.19183e-06
1.18369e-06
1.18673e-06
1.17589e-06
1.17522e-06
1.1771e-06
1.17565e-06
1.16954e-06
1.17805e-06
1.18153e-06
1.17758e-06
1.18354e-06
1.18461e-06
1.1856e-06
1.18001e-06
1.1806e-06
1.17968e-06
1.18165e-06
1.18218e-06
1.18691e-06
1.18277e-06
1.18701e-06
1.18573e-06
1.18798e-06
1.19026e-06
1.18712e-06
1.19054e-06
1.18873e-06
1.18977e-06
1.19021e-06
1.19488e-06
1.19278e-06
1.18744e-06
1.18912e-06
1.19157e-06
1.1881e-06
1.19122e-06
1.19056e-06
1.1897e-06
1.19051e-06
1.19148e-06
1.19393e-06
1.19523e-06
1.19201e-06
1.1956e-06
1.19484e-06
1.19438e-06
1.19408e-06
1.19403e-06
1.19211e-06
1.19503e-06
1.19829e-06
1.20192e-06
1.20119e-06
1.20197e-06
1.20198e-06
1.20071e-06
1.19935e-06
1.20014e-06
1.19943e-06
1.19653e-06
1.19428e-06
1.19242e-06
1.19039e-06
1.19049e-06
1.18808e-06
1.18757e-06
1.18567e-06
1.18355e-06
1.18295e-06
1.18426e-06
1.183e-06
1.18272e-06
1.18436e-06
1.183e-06
1.17682e-06
1.17338e-06
1.17e-06
1.17203e-06
1.17083e-06
1.16909e-06
1.1701e-06
1.16847e-06
1.16872e-06
1.1697e-06
1.1704e-06
1.17313e-06
1.17252e-06
1.17095e-06
1.17127e-06
)
;

boundaryField
{
    inlet
    {
        type            calculated;
        value           uniform -1.225e-06;
    }
    outlet
    {
        type            calculated;
        value           uniform 1.17278e-06;
    }
    yzfaces
    {
        type            empty;
    }
}


// ************************************************************************* //
