/*--------------------------------*- C++ -*----------------------------------*\
| =========                 |                                                 |
| \\      /  F ield         | foam-extend: Open Source CFD                    |
|  \\    /   O peration     | Version:     5.0                                |
|   \\  /    A nd           | Web:         http://www.foam-extend.org         |
|    \\/     M anipulation  |                                                 |
\*---------------------------------------------------------------------------*/
FoamFile
{
    version     2.0;
    format      ascii;
    class       surfaceScalarField;
    location    "7";
    object      phi;
}
// * * * * * * * * * * * * * * * * * * * * * * * * * * * * * * * * * * * * * //

dimensions      [0 3 -1 0 0 0 0];

internalField   nonuniform List<scalar> 
99
(
1.22481e-06
1.22442e-06
1.22157e-06
1.23574e-06
1.22755e-06
1.2105e-06
1.20417e-06
1.19462e-06
1.1912e-06
1.1873e-06
1.17825e-06
1.18171e-06
1.17904e-06
1.17846e-06
1.18599e-06
1.17819e-06
1.18062e-06
1.19004e-06
1.18689e-06
1.18785e-06
1.18496e-06
1.17468e-06
1.1768e-06
1.17556e-06
1.18117e-06
1.17238e-06
1.1697e-06
1.16552e-06
1.16168e-06
1.15808e-06
1.16186e-06
1.16226e-06
1.16139e-06
1.16137e-06
1.15857e-06
1.15865e-06
1.16042e-06
1.16238e-06
1.16364e-06
1.16282e-06
1.16218e-06
1.15942e-06
1.16213e-06
1.16085e-06
1.16009e-06
1.15872e-06
1.15959e-06
1.16167e-06
1.16129e-06
1.15922e-06
1.15846e-06
1.15837e-06
1.15673e-06
1.15666e-06
1.15604e-06
1.15724e-06
1.1561e-06
1.15243e-06
1.15576e-06
1.15552e-06
1.15506e-06
1.15535e-06
1.15391e-06
1.15561e-06
1.15218e-06
1.15301e-06
1.1557e-06
1.15627e-06
1.15839e-06
1.15633e-06
1.15719e-06
1.1553e-06
1.15203e-06
1.15203e-06
1.14986e-06
1.14882e-06
1.14809e-06
1.14731e-06
1.14288e-06
1.14239e-06
1.14249e-06
1.14199e-06
1.14399e-06
1.1393e-06
1.13734e-06
1.13669e-06
1.13553e-06
1.13638e-06
1.13842e-06
1.13771e-06
1.13749e-06
1.14002e-06
1.13842e-06
1.13944e-06
1.13963e-06
1.13902e-06
1.13958e-06
1.13845e-06
1.13926e-06
)
;

boundaryField
{
    inlet
    {
        type            calculated;
        value           uniform -1.225e-06;
    }
    outlet
    {
        type            calculated;
        value           uniform 1.13687e-06;
    }
    yzfaces
    {
        type            empty;
    }
}


// ************************************************************************* //
