/*--------------------------------*- C++ -*----------------------------------*\
| =========                 |                                                 |
| \\      /  F ield         | foam-extend: Open Source CFD                    |
|  \\    /   O peration     | Version:     5.0                                |
|   \\  /    A nd           | Web:         http://www.foam-extend.org         |
|    \\/     M anipulation  |                                                 |
\*---------------------------------------------------------------------------*/
FoamFile
{
    version     2.0;
    format      ascii;
    class       volVectorField;
    location    "7";
    object      U.gas;
}
// * * * * * * * * * * * * * * * * * * * * * * * * * * * * * * * * * * * * * //

dimensions      [0 1 -1 0 0 0 0];

internalField   nonuniform List<vector> 
100
(
(0.00611983 0 0)
(0.00663078 0 0)
(0.00702986 0 0)
(0.007348 0 0)
(0.00749133 0 0)
(0.007666 0 0)
(0.00789158 0 0)
(0.0081058 0 0)
(0.00828439 0 0)
(0.00846816 0 0)
(0.00861729 0 0)
(0.00879949 0 0)
(0.00898094 0 0)
(0.00916337 0 0)
(0.00935506 0 0)
(0.00948057 0 0)
(0.00961866 0 0)
(0.00980398 0 0)
(0.00994896 0 0)
(0.0100966 0 0)
(0.0101374 0 0)
(0.01014 0 0)
(0.0101516 0 0)
(0.0102099 0 0)
(0.0103276 0 0)
(0.0103953 0 0)
(0.0104414 0 0)
(0.0105237 0 0)
(0.010583 0 0)
(0.0106484 0 0)
(0.0107324 0 0)
(0.0108194 0 0)
(0.0108912 0 0)
(0.0109434 0 0)
(0.0109964 0 0)
(0.0110581 0 0)
(0.011139 0 0)
(0.0112041 0 0)
(0.0112724 0 0)
(0.0113212 0 0)
(0.0113641 0 0)
(0.0113915 0 0)
(0.0114601 0 0)
(0.0115169 0 0)
(0.0115638 0 0)
(0.0115862 0 0)
(0.01164 0 0)
(0.0116997 0 0)
(0.0117407 0 0)
(0.0117825 0 0)
(0.0118089 0 0)
(0.011857 0 0)
(0.0118769 0 0)
(0.0119041 0 0)
(0.0119467 0 0)
(0.0119894 0 0)
(0.0120238 0 0)
(0.0120269 0 0)
(0.012071 0 0)
(0.012098 0 0)
(0.0121332 0 0)
(0.0121513 0 0)
(0.012172 0 0)
(0.0122005 0 0)
(0.0122232 0 0)
(0.0122426 0 0)
(0.0122892 0 0)
(0.0123232 0 0)
(0.0123693 0 0)
(0.0123698 0 0)
(0.0123889 0 0)
(0.0124102 0 0)
(0.012386 0 0)
(0.0123919 0 0)
(0.0123941 0 0)
(0.0123898 0 0)
(0.0123925 0 0)
(0.0123929 0 0)
(0.0123852 0 0)
(0.0123904 0 0)
(0.0123922 0 0)
(0.0124005 0 0)
(0.0124172 0 0)
(0.0124076 0 0)
(0.0123839 0 0)
(0.0123864 0 0)
(0.0123747 0 0)
(0.0123836 0 0)
(0.0123999 0 0)
(0.0124027 0 0)
(0.0123984 0 0)
(0.0124055 0 0)
(0.0124062 0 0)
(0.012396 0 0)
(0.0123887 0 0)
(0.0123812 0 0)
(0.0123644 0 0)
(0.0123519 0 0)
(0.0123298 0 0)
(0.0122995 0 0)
)
;

boundaryField
{
    inlet
    {
        type            fixedValue;
        value           uniform (0.005 0 0);
    }
    outlet
    {
        type            zeroGradient;
    }
    yzfaces
    {
        type            empty;
    }
}


// ************************************************************************* //
