/*--------------------------------*- C++ -*----------------------------------*\
| =========                 |                                                 |
| \\      /  F ield         | foam-extend: Open Source CFD                    |
|  \\    /   O peration     | Version:     5.0                                |
|   \\  /    A nd           | Web:         http://www.foam-extend.org         |
|    \\/     M anipulation  |                                                 |
\*---------------------------------------------------------------------------*/
FoamFile
{
    version     2.0;
    format      ascii;
    class       volVectorField;
    location    "7";
    object      U.gas;
}
// * * * * * * * * * * * * * * * * * * * * * * * * * * * * * * * * * * * * * //

dimensions      [0 1 -1 0 0 0 0];

internalField   nonuniform List<vector> 
100
(
(0.00612633 0 0)
(0.00661475 0 0)
(0.00699686 0 0)
(0.00727394 0 0)
(0.00737922 0 0)
(0.00751923 0 0)
(0.00775051 0 0)
(0.0080724 0 0)
(0.00830957 0 0)
(0.00850155 0 0)
(0.00866822 0 0)
(0.008854 0 0)
(0.00900351 0 0)
(0.00913583 0 0)
(0.00931288 0 0)
(0.00946838 0 0)
(0.00959131 0 0)
(0.00972585 0 0)
(0.00989688 0 0)
(0.0100051 0 0)
(0.0100927 0 0)
(0.010191 0 0)
(0.0102467 0 0)
(0.0103032 0 0)
(0.0103816 0 0)
(0.0104211 0 0)
(0.0105442 0 0)
(0.0106691 0 0)
(0.0107954 0 0)
(0.0108972 0 0)
(0.0109636 0 0)
(0.0110506 0 0)
(0.0111312 0 0)
(0.0112059 0 0)
(0.0112839 0 0)
(0.0113464 0 0)
(0.0114114 0 0)
(0.0114762 0 0)
(0.0115464 0 0)
(0.0116179 0 0)
(0.0116855 0 0)
(0.0117013 0 0)
(0.0117466 0 0)
(0.0118266 0 0)
(0.0118632 0 0)
(0.0119136 0 0)
(0.0119551 0 0)
(0.0119957 0 0)
(0.0120438 0 0)
(0.0120964 0 0)
(0.0121831 0 0)
(0.0122236 0 0)
(0.0122553 0 0)
(0.012293 0 0)
(0.0123359 0 0)
(0.0123758 0 0)
(0.0124057 0 0)
(0.0124416 0 0)
(0.0124599 0 0)
(0.0125021 0 0)
(0.0125723 0 0)
(0.0126322 0 0)
(0.0126697 0 0)
(0.0127078 0 0)
(0.0127385 0 0)
(0.0127544 0 0)
(0.0127677 0 0)
(0.012787 0 0)
(0.0127979 0 0)
(0.0128057 0 0)
(0.0127989 0 0)
(0.0127942 0 0)
(0.0127945 0 0)
(0.0127971 0 0)
(0.0127971 0 0)
(0.0128001 0 0)
(0.0128047 0 0)
(0.0127987 0 0)
(0.0127955 0 0)
(0.0128186 0 0)
(0.0128264 0 0)
(0.0128356 0 0)
(0.0128577 0 0)
(0.0128651 0 0)
(0.0128283 0 0)
(0.0127968 0 0)
(0.012759 0 0)
(0.0127646 0 0)
(0.0127635 0 0)
(0.0127535 0 0)
(0.0127545 0 0)
(0.0127394 0 0)
(0.0127309 0 0)
(0.0127334 0 0)
(0.012726 0 0)
(0.012737 0 0)
(0.0127334 0 0)
(0.0127058 0 0)
(0.0126829 0 0)
(0.0126841 0 0)
)
;

boundaryField
{
    inlet
    {
        type            fixedValue;
        value           uniform (0.005 0 0);
    }
    outlet
    {
        type            zeroGradient;
    }
    yzfaces
    {
        type            empty;
    }
}


// ************************************************************************* //
