/*--------------------------------*- C++ -*----------------------------------*\
| =========                 |                                                 |
| \\      /  F ield         | foam-extend: Open Source CFD                    |
|  \\    /   O peration     | Version:     5.0                                |
|   \\  /    A nd           | Web:         http://www.foam-extend.org         |
|    \\/     M anipulation  |                                                 |
\*---------------------------------------------------------------------------*/
FoamFile
{
    version     2.0;
    format      ascii;
    class       volVectorField;
    location    "7";
    object      U.water;
}
// * * * * * * * * * * * * * * * * * * * * * * * * * * * * * * * * * * * * * //

dimensions      [0 1 -1 0 0 0 0];

internalField   nonuniform List<vector> 
100
(
(3.93576e-05 0 0)
(9.14092e-05 0 0)
(0.000136538 0 0)
(0.000176295 0 0)
(0.00020218 0 0)
(0.000221811 0 0)
(0.000250636 0 0)
(0.000290332 0 0)
(0.00033259 0 0)
(0.000366608 0 0)
(0.000399433 0 0)
(0.000432799 0 0)
(0.00046715 0 0)
(0.000499388 0 0)
(0.000534684 0 0)
(0.000570217 0 0)
(0.000602038 0 0)
(0.000635086 0 0)
(0.000667475 0 0)
(0.000695743 0 0)
(0.000722795 0 0)
(0.000746474 0 0)
(0.000763869 0 0)
(0.00077653 0 0)
(0.000796596 0 0)
(0.000819609 0 0)
(0.000840546 0 0)
(0.000872958 0 0)
(0.000907572 0 0)
(0.000939462 0 0)
(0.00096928 0 0)
(0.000995467 0 0)
(0.001021 0 0)
(0.00104695 0 0)
(0.00106999 0 0)
(0.0010966 0 0)
(0.00112104 0 0)
(0.00114482 0 0)
(0.00117125 0 0)
(0.00119786 0 0)
(0.00122132 0 0)
(0.00124078 0 0)
(0.00126322 0 0)
(0.00129152 0 0)
(0.00131671 0 0)
(0.00134107 0 0)
(0.00136459 0 0)
(0.00138252 0 0)
(0.0014055 0 0)
(0.00143146 0 0)
(0.00146059 0 0)
(0.00149105 0 0)
(0.00151194 0 0)
(0.00153446 0 0)
(0.00155726 0 0)
(0.00157896 0 0)
(0.00160362 0 0)
(0.00162744 0 0)
(0.00165055 0 0)
(0.0016753 0 0)
(0.00170537 0 0)
(0.00173617 0 0)
(0.00176111 0 0)
(0.00178343 0 0)
(0.00180829 0 0)
(0.00183096 0 0)
(0.00185285 0 0)
(0.00187761 0 0)
(0.00190079 0 0)
(0.0019195 0 0)
(0.0019388 0 0)
(0.0019586 0 0)
(0.00197835 0 0)
(0.00199937 0 0)
(0.00201799 0 0)
(0.00203585 0 0)
(0.00205619 0 0)
(0.00207659 0 0)
(0.0020983 0 0)
(0.00212397 0 0)
(0.00215042 0 0)
(0.00217482 0 0)
(0.0022044 0 0)
(0.00223383 0 0)
(0.00225425 0 0)
(0.00227422 0 0)
(0.00229999 0 0)
(0.00233137 0 0)
(0.0023649 0 0)
(0.00239287 0 0)
(0.0024269 0 0)
(0.00246194 0 0)
(0.00249422 0 0)
(0.00253062 0 0)
(0.0025681 0 0)
(0.00260589 0 0)
(0.0026435 0 0)
(0.00267696 0 0)
(0.00271168 0 0)
(0.00275133 0 0)
)
;

boundaryField
{
    inlet
    {
        type            fixedValue;
        value           uniform (0 0 0);
    }
    outlet
    {
        type            zeroGradient;
    }
    yzfaces
    {
        type            empty;
    }
}


// ************************************************************************* //
