/*--------------------------------*- C++ -*----------------------------------*\
| =========                 |                                                 |
| \\      /  F ield         | foam-extend: Open Source CFD                    |
|  \\    /   O peration     | Version:     5.0                                |
|   \\  /    A nd           | Web:         http://www.foam-extend.org         |
|    \\/     M anipulation  |                                                 |
\*---------------------------------------------------------------------------*/
FoamFile
{
    version     2.0;
    format      ascii;
    class       volVectorField;
    location    "7";
    object      U.water;
}
// * * * * * * * * * * * * * * * * * * * * * * * * * * * * * * * * * * * * * //

dimensions      [0 1 -1 0 0 0 0];

internalField   nonuniform List<vector> 
100
(
(3.91934e-05 0 0)
(9.14475e-05 0 0)
(0.000136273 0 0)
(0.000177078 0 0)
(0.000205536 0 0)
(0.000223558 0 0)
(0.000255823 0 0)
(0.000293681 0 0)
(0.000329185 0 0)
(0.000362768 0 0)
(0.000394916 0 0)
(0.000428548 0 0)
(0.000463832 0 0)
(0.000498981 0 0)
(0.000537549 0 0)
(0.000569073 0 0)
(0.00059825 0 0)
(0.000635163 0 0)
(0.000667402 0 0)
(0.000698279 0 0)
(0.00072787 0 0)
(0.000740949 0 0)
(0.000753755 0 0)
(0.000767201 0 0)
(0.000787058 0 0)
(0.000810297 0 0)
(0.00083083 0 0)
(0.000857679 0 0)
(0.000886222 0 0)
(0.00091375 0 0)
(0.000944306 0 0)
(0.000972932 0 0)
(0.000997024 0 0)
(0.00102077 0 0)
(0.00104222 0 0)
(0.00106584 0 0)
(0.0010933 0 0)
(0.00111982 0 0)
(0.0011428 0 0)
(0.00116466 0 0)
(0.00118518 0 0)
(0.00120449 0 0)
(0.00122713 0 0)
(0.00125316 0 0)
(0.00127636 0 0)
(0.00129905 0 0)
(0.00132022 0 0)
(0.00134544 0 0)
(0.0013686 0 0)
(0.00138981 0 0)
(0.00141339 0 0)
(0.0014382 0 0)
(0.00146232 0 0)
(0.00148324 0 0)
(0.00150648 0 0)
(0.00153207 0 0)
(0.00155693 0 0)
(0.00157731 0 0)
(0.0016014 0 0)
(0.00162792 0 0)
(0.00164804 0 0)
(0.00166977 0 0)
(0.00168936 0 0)
(0.00171081 0 0)
(0.00173173 0 0)
(0.00175509 0 0)
(0.0017843 0 0)
(0.00181213 0 0)
(0.00183835 0 0)
(0.00186157 0 0)
(0.00188015 0 0)
(0.0019026 0 0)
(0.00192147 0 0)
(0.00193886 0 0)
(0.00195945 0 0)
(0.00197857 0 0)
(0.0019986 0 0)
(0.00201768 0 0)
(0.0020335 0 0)
(0.0020555 0 0)
(0.00208547 0 0)
(0.00211254 0 0)
(0.00214069 0 0)
(0.00216463 0 0)
(0.00218463 0 0)
(0.0022112 0 0)
(0.00224145 0 0)
(0.00227346 0 0)
(0.00231004 0 0)
(0.0023433 0 0)
(0.00237396 0 0)
(0.00240902 0 0)
(0.00244204 0 0)
(0.00247365 0 0)
(0.00250645 0 0)
(0.00253791 0 0)
(0.00257141 0 0)
(0.0026048 0 0)
(0.00264027 0 0)
(0.00267352 0 0)
)
;

boundaryField
{
    inlet
    {
        type            fixedValue;
        value           uniform (0 0 0);
    }
    outlet
    {
        type            zeroGradient;
    }
    yzfaces
    {
        type            empty;
    }
}


// ************************************************************************* //
