/*--------------------------------*- C++ -*----------------------------------*\
| =========                 |                                                 |
| \\      /  F ield         | foam-extend: Open Source CFD                    |
|  \\    /   O peration     | Version:     5.0                                |
|   \\  /    A nd           | Web:         http://www.foam-extend.org         |
|    \\/     M anipulation  |                                                 |
\*---------------------------------------------------------------------------*/
FoamFile
{
    version     2.0;
    format      ascii;
    class       volScalarField;
    location    "4";
    object      alpha.gas;
}
// * * * * * * * * * * * * * * * * * * * * * * * * * * * * * * * * * * * * * //

dimensions      [0 0 0 0 0 0 0];

internalField   nonuniform List<scalar> 
100
(
0.174047
0.163238
0.155353
0.149039
0.143798
0.13934
0.135537
0.132186
0.129165
0.126462
0.124056
0.121793
0.119709
0.1177
0.115897
0.1142
0.1126
0.111075
0.109611
0.108254
0.106954
0.10575
0.104607
0.103453
0.102327
0.101298
0.100289
0.0993616
0.0984701
0.0975672
0.0967129
0.0958525
0.0950665
0.0942856
0.0935415
0.0928414
0.0921842
0.0914915
0.0908686
0.0902337
0.0896406
0.0890365
0.0884449
0.0878997
0.0873457
0.0868289
0.0862929
0.0857572
0.0852628
0.0847723
0.0842884
0.0838179
0.0833454
0.0829051
0.0824765
0.0820126
0.0815837
0.081164
0.0807447
0.0803557
0.0799968
0.0796132
0.0792472
0.0789194
0.0785638
0.0782053
0.0778428
0.0775041
0.0771642
0.0768753
0.0765612
0.0762687
0.0759543
0.0756717
0.0753565
0.0750645
0.0747504
0.0744424
0.0741614
0.0738666
0.0735817
0.0733303
0.0730569
0.0727707
0.0725187
0.0722633
0.0719919
0.0717414
0.0714536
0.0711558
0.0708646
0.0706062
0.0703512
0.070092
0.0698569
0.0696252
0.0693934
0.0691648
0.0689544
0.0687275
)
;

boundaryField
{
    inlet
    {
        type            fixedValue;
        value           uniform 0.2;
    }
    outlet
    {
        type            zeroGradient;
    }
    yzfaces
    {
        type            empty;
    }
}


// ************************************************************************* //
