/*--------------------------------*- C++ -*----------------------------------*\
| =========                 |                                                 |
| \\      /  F ield         | foam-extend: Open Source CFD                    |
|  \\    /   O peration     | Version:     5.0                                |
|   \\  /    A nd           | Web:         http://www.foam-extend.org         |
|    \\/     M anipulation  |                                                 |
\*---------------------------------------------------------------------------*/
FoamFile
{
    version     2.0;
    format      ascii;
    class       volScalarField;
    location    "4";
    object      CO2.gas;
}
// * * * * * * * * * * * * * * * * * * * * * * * * * * * * * * * * * * * * * //

dimensions      [0 0 0 0 0 0 0];

internalField   nonuniform List<scalar> 
100
(
0.174031
0.163118
0.155251
0.148803
0.143493
0.139011
0.135348
0.132114
0.129149
0.126549
0.124289
0.122053
0.120026
0.11794
0.116161
0.114479
0.112869
0.111315
0.109808
0.108425
0.107104
0.105909
0.104777
0.103579
0.102373
0.101335
0.100295
0.0993845
0.098501
0.0975561
0.0966986
0.0957924
0.0950069
0.0942103
0.0934513
0.0927702
0.0921312
0.0914186
0.0908148
0.090178
0.0895952
0.0889776
0.088374
0.0878536
0.0872958
0.0868004
0.0862564
0.0857036
0.0852127
0.084728
0.0842387
0.0837546
0.0832715
0.0828395
0.0824067
0.0819314
0.0815051
0.0810835
0.0806611
0.0802857
0.079935
0.0795463
0.0791883
0.0788913
0.0785324
0.0781742
0.0778113
0.0774767
0.0771355
0.0768724
0.0765541
0.0762786
0.0759603
0.0756958
0.0753743
0.0750881
0.0747687
0.074448
0.0741736
0.0738732
0.0735898
0.0733446
0.0730691
0.0727803
0.0725325
0.0722808
0.0719958
0.0717503
0.0714382
0.0711232
0.07082
0.0705634
0.0703089
0.0700382
0.0698081
0.0695819
0.0693462
0.069114
0.0689183
0.0686855
)
;

boundaryField
{
    inlet
    {
        type            fixedValue;
        value           uniform 0.2;
    }
    outlet
    {
        type            zeroGradient;
    }
    yzfaces
    {
        type            empty;
    }
}


// ************************************************************************* //
