/*--------------------------------*- C++ -*----------------------------------*\
| =========                 |                                                 |
| \\      /  F ield         | foam-extend: Open Source CFD                    |
|  \\    /   O peration     | Version:     5.0                                |
|   \\  /    A nd           | Web:         http://www.foam-extend.org         |
|    \\/     M anipulation  |                                                 |
\*---------------------------------------------------------------------------*/
FoamFile
{
    version     2.0;
    format      ascii;
    class       surfaceScalarField;
    location    "4";
    object      phi;
}
// * * * * * * * * * * * * * * * * * * * * * * * * * * * * * * * * * * * * * //

dimensions      [0 3 -1 0 0 0 0];

internalField   nonuniform List<scalar> 
99
(
1.2248e-05
1.22513e-05
1.22231e-05
1.22118e-05
1.22251e-05
1.2223e-05
1.22237e-05
1.22248e-05
1.22383e-05
1.22488e-05
1.22512e-05
1.22597e-05
1.22509e-05
1.22597e-05
1.22546e-05
1.22691e-05
1.22638e-05
1.2256e-05
1.2237e-05
1.22336e-05
1.22361e-05
1.22431e-05
1.22372e-05
1.22251e-05
1.22184e-05
1.22122e-05
1.22112e-05
1.22123e-05
1.22189e-05
1.22092e-05
1.22026e-05
1.22063e-05
1.22065e-05
1.22131e-05
1.22056e-05
1.2208e-05
1.22045e-05
1.22041e-05
1.22038e-05
1.22028e-05
1.22041e-05
1.22021e-05
1.22074e-05
1.22124e-05
1.22144e-05
1.22145e-05
1.22139e-05
1.22068e-05
1.22047e-05
1.22031e-05
1.21962e-05
1.21931e-05
1.21973e-05
1.21965e-05
1.21944e-05
1.21944e-05
1.21949e-05
1.21918e-05
1.21882e-05
1.21918e-05
1.21927e-05
1.21962e-05
1.22051e-05
1.22077e-05
1.22115e-05
1.22148e-05
1.22118e-05
1.22086e-05
1.2211e-05
1.2218e-05
1.22183e-05
1.22182e-05
1.22212e-05
1.2221e-05
1.22222e-05
1.22197e-05
1.22183e-05
1.22124e-05
1.22125e-05
1.22142e-05
1.2221e-05
1.22221e-05
1.22204e-05
1.2223e-05
1.22194e-05
1.22211e-05
1.22205e-05
1.22217e-05
1.22111e-05
1.22093e-05
1.22114e-05
1.22098e-05
1.22038e-05
1.21998e-05
1.2202e-05
1.22012e-05
1.22077e-05
1.22114e-05
1.22148e-05
)
;

boundaryField
{
    inlet
    {
        type            calculated;
        value           uniform -1.225e-05;
    }
    outlet
    {
        type            calculated;
        value           uniform 1.22202e-05;
    }
    yzfaces
    {
        type            empty;
    }
}


// ************************************************************************* //
