/*--------------------------------*- C++ -*----------------------------------*\
| =========                 |                                                 |
| \\      /  F ield         | foam-extend: Open Source CFD                    |
|  \\    /   O peration     | Version:     5.0                                |
|   \\  /    A nd           | Web:         http://www.foam-extend.org         |
|    \\/     M anipulation  |                                                 |
\*---------------------------------------------------------------------------*/
FoamFile
{
    version     2.0;
    format      ascii;
    class       surfaceScalarField;
    location    "4";
    object      phi.water;
}
// * * * * * * * * * * * * * * * * * * * * * * * * * * * * * * * * * * * * * //

dimensions      [0 3 -1 0 0 0 0];

internalField   nonuniform List<scalar> 
99
(
1.52864e-07
2.6867e-07
3.71655e-07
4.68814e-07
5.61867e-07
6.50867e-07
7.3338e-07
8.13451e-07
8.92365e-07
9.68729e-07
1.03935e-06
1.11192e-06
1.18115e-06
1.25446e-06
1.32169e-06
1.39033e-06
1.45677e-06
1.5214e-06
1.58633e-06
1.65063e-06
1.71489e-06
1.77741e-06
1.83637e-06
1.89848e-06
1.96322e-06
2.0227e-06
2.08449e-06
2.14268e-06
2.2001e-06
2.25935e-06
2.31594e-06
2.37787e-06
2.43453e-06
2.49425e-06
2.54945e-06
2.60383e-06
2.65439e-06
2.71167e-06
2.7619e-06
2.8162e-06
2.86731e-06
2.92038e-06
2.97509e-06
3.02559e-06
3.07846e-06
3.12712e-06
3.17981e-06
3.2314e-06
3.27967e-06
3.32941e-06
3.37943e-06
3.42823e-06
3.48123e-06
3.52936e-06
3.5762e-06
3.62941e-06
3.67876e-06
3.72724e-06
3.77621e-06
3.82377e-06
3.86716e-06
3.91647e-06
3.9649e-06
4.00646e-06
4.05361e-06
4.10134e-06
4.14898e-06
4.19355e-06
4.24014e-06
4.28172e-06
4.32543e-06
4.36589e-06
4.41152e-06
4.45197e-06
4.49857e-06
4.5403e-06
4.58659e-06
4.63203e-06
4.67457e-06
4.72071e-06
4.76859e-06
4.80802e-06
4.8515e-06
4.8992e-06
4.93821e-06
4.98047e-06
5.02683e-06
5.06889e-06
5.11578e-06
5.16624e-06
5.22045e-06
5.26412e-06
5.30792e-06
5.35291e-06
5.39672e-06
5.43805e-06
5.4843e-06
5.5289e-06
5.56929e-06
)
;

boundaryField
{
    inlet
    {
        type            fixedValue;
        value           uniform 0;
    }
    outlet
    {
        type            calculated;
        value           uniform 5.61524e-06;
    }
    yzfaces
    {
        type            empty;
    }
}


// ************************************************************************* //
