/*--------------------------------*- C++ -*----------------------------------*\
| =========                 |                                                 |
| \\      /  F ield         | foam-extend: Open Source CFD                    |
|  \\    /   O peration     | Version:     5.0                                |
|   \\  /    A nd           | Web:         http://www.foam-extend.org         |
|    \\/     M anipulation  |                                                 |
\*---------------------------------------------------------------------------*/
FoamFile
{
    version     2.0;
    format      ascii;
    class       surfaceScalarField;
    location    "4";
    object      phi.gas;
}
// * * * * * * * * * * * * * * * * * * * * * * * * * * * * * * * * * * * * * //

dimensions      [0 3 -1 0 0 0 0];

internalField   nonuniform List<scalar> 
99
(
7.26276e-05
7.68944e-05
8.02842e-05
8.33859e-05
8.63163e-05
8.88061e-05
9.1043e-05
9.31511e-05
9.52202e-05
9.70846e-05
9.88136e-05
0.000100557
0.000102155
0.000103845
0.00010529
0.00010687
0.000108259
0.000109616
0.00011082
0.000112104
0.000113376
0.000114619
0.00011577
0.000116926
0.000118067
0.000119145
0.000120216
0.000121239
0.000122358
0.000123311
0.000124292
0.000125345
0.000126313
0.000127343
0.000128165
0.000129023
0.000129856
0.000130702
0.000131515
0.000132311
0.000133133
0.000133942
0.000134768
0.000135571
0.000136326
0.000137064
0.000137842
0.000138513
0.000139199
0.000139896
0.000140537
0.000141228
0.000141962
0.000142609
0.000143286
0.000143981
0.000144646
0.000145273
0.000145856
0.000146473
0.000147079
0.000147722
0.000148355
0.000148924
0.000149562
0.000150203
0.000150745
0.000151274
0.000151806
0.000152388
0.000152896
0.000153407
0.000153944
0.000154453
0.000154998
0.000155503
0.000156055
0.000156506
0.000157024
0.000157572
0.000158132
0.000158623
0.000159119
0.000159641
0.000160056
0.000160583
0.000161067
0.000161617
0.000162077
0.000162646
0.000163202
0.000163671
0.000164098
0.000164528
0.000164998
0.000165438
0.000165987
0.000166452
0.000166925
)
;

boundaryField
{
    inlet
    {
        type            fixedValue;
        value           uniform -6.125e-05;
    }
    outlet
    {
        type            calculated;
        value           uniform 0.00016719;
    }
    yzfaces
    {
        type            empty;
    }
}


// ************************************************************************* //
