/*--------------------------------*- C++ -*----------------------------------*\
| =========                 |                                                 |
| \\      /  F ield         | foam-extend: Open Source CFD                    |
|  \\    /   O peration     | Version:     5.0                                |
|   \\  /    A nd           | Web:         http://www.foam-extend.org         |
|    \\/     M anipulation  |                                                 |
\*---------------------------------------------------------------------------*/
FoamFile
{
    version     2.0;
    format      ascii;
    class       volVectorField;
    location    "4";
    object      U.gas;
}
// * * * * * * * * * * * * * * * * * * * * * * * * * * * * * * * * * * * * * //

dimensions      [0 1 -1 0 0 0 0];

internalField   nonuniform List<vector> 
100
(
(0.0574399 0 0)
(0.0612191 0 0)
(0.0642269 0 0)
(0.0668011 0 0)
(0.0691985 0 0)
(0.0713997 0 0)
(0.0733518 0 0)
(0.0751686 0 0)
(0.0769223 0 0)
(0.0785911 0 0)
(0.080106 0 0)
(0.0815781 0 0)
(0.0829427 0 0)
(0.0843022 0 0)
(0.0855695 0 0)
(0.0868163 0 0)
(0.0880252 0 0)
(0.0891266 0 0)
(0.0901574 0 0)
(0.0911433 0 0)
(0.0921856 0 0)
(0.09321 0 0)
(0.0941718 0 0)
(0.0950896 0 0)
(0.095995 0 0)
(0.0968531 0 0)
(0.0977333 0 0)
(0.0985804 0 0)
(0.0994408 0 0)
(0.100282 0 0)
(0.101033 0 0)
(0.101859 0 0)
(0.102648 0 0)
(0.103459 0 0)
(0.104209 0 0)
(0.104905 0 0)
(0.105582 0 0)
(0.106296 0 0)
(0.106953 0 0)
(0.107633 0 0)
(0.108278 0 0)
(0.108941 0 0)
(0.109614 0 0)
(0.110272 0 0)
(0.110934 0 0)
(0.111535 0 0)
(0.112155 0 0)
(0.112747 0 0)
(0.113287 0 0)
(0.113854 0 0)
(0.114396 0 0)
(0.114919 0 0)
(0.115502 0 0)
(0.116059 0 0)
(0.116577 0 0)
(0.117152 0 0)
(0.117694 0 0)
(0.118216 0 0)
(0.118722 0 0)
(0.119223 0 0)
(0.11971 0 0)
(0.120237 0 0)
(0.120781 0 0)
(0.121271 0 0)
(0.121782 0 0)
(0.122302 0 0)
(0.122797 0 0)
(0.123226 0 0)
(0.123691 0 0)
(0.124133 0 0)
(0.124611 0 0)
(0.12502 0 0)
(0.125481 0 0)
(0.125892 0 0)
(0.126351 0 0)
(0.12676 0 0)
(0.127197 0 0)
(0.127605 0 0)
(0.127981 0 0)
(0.128425 0 0)
(0.128889 0 0)
(0.129299 0 0)
(0.129706 0 0)
(0.130141 0 0)
(0.130511 0 0)
(0.130889 0 0)
(0.13131 0 0)
(0.131693 0 0)
(0.13209 0 0)
(0.132484 0 0)
(0.132937 0 0)
(0.133337 0 0)
(0.133695 0 0)
(0.134049 0 0)
(0.134408 0 0)
(0.134783 0 0)
(0.135185 0 0)
(0.135607 0 0)
(0.135982 0 0)
(0.136405 0 0)
)
;

boundaryField
{
    inlet
    {
        type            fixedValue;
        value           uniform (0.05 0 0);
    }
    outlet
    {
        type            zeroGradient;
    }
    yzfaces
    {
        type            empty;
    }
}


// ************************************************************************* //
