/*--------------------------------*- C++ -*----------------------------------*\
| =========                 |                                                 |
| \\      /  F ield         | foam-extend: Open Source CFD                    |
|  \\    /   O peration     | Version:     5.0                                |
|   \\  /    A nd           | Web:         http://www.foam-extend.org         |
|    \\/     M anipulation  |                                                 |
\*---------------------------------------------------------------------------*/
FoamFile
{
    version     2.0;
    format      ascii;
    class       volVectorField;
    location    "4";
    object      U.water;
}
// * * * * * * * * * * * * * * * * * * * * * * * * * * * * * * * * * * * * * //

dimensions      [0 1 -1 0 0 0 0];

internalField   nonuniform List<vector> 
100
(
(7.53502e-05 0 0)
(0.000174534 0 0)
(0.000262145 0 0)
(0.000342949 0 0)
(0.000419985 0 0)
(0.000493887 0 0)
(0.000564167 0 0)
(0.000630968 0 0)
(0.000696121 0 0)
(0.000760031 0 0)
(0.00082105 0 0)
(0.000879918 0 0)
(0.000938304 0 0)
(0.000996087 0 0)
(0.00105382 0 0)
(0.00110956 0 0)
(0.0011648 0 0)
(0.00121817 0 0)
(0.00127062 0 0)
(0.00132328 0 0)
(0.00137553 0 0)
(0.00142751 0 0)
(0.00147741 0 0)
(0.00152618 0 0)
(0.00157693 0 0)
(0.00162744 0 0)
(0.00167647 0 0)
(0.00172569 0 0)
(0.00177304 0 0)
(0.00182004 0 0)
(0.0018671 0 0)
(0.00191462 0 0)
(0.00196299 0 0)
(0.00201005 0 0)
(0.00205672 0 0)
(0.00210163 0 0)
(0.002145 0 0)
(0.00218844 0 0)
(0.00223278 0 0)
(0.00227529 0 0)
(0.00231858 0 0)
(0.00236076 0 0)
(0.00240444 0 0)
(0.00244787 0 0)
(0.00249005 0 0)
(0.002532 0 0)
(0.00257314 0 0)
(0.00261515 0 0)
(0.00265606 0 0)
(0.00269609 0 0)
(0.00273658 0 0)
(0.00277661 0 0)
(0.00281769 0 0)
(0.00285906 0 0)
(0.00289796 0 0)
(0.0029381 0 0)
(0.00297999 0 0)
(0.00301988 0 0)
(0.00305946 0 0)
(0.00309912 0 0)
(0.00313679 0 0)
(0.00317437 0 0)
(0.0032145 0 0)
(0.00325232 0 0)
(0.00328859 0 0)
(0.00332727 0 0)
(0.00336603 0 0)
(0.00340388 0 0)
(0.00344101 0 0)
(0.00347804 0 0)
(0.00351291 0 0)
(0.00354788 0 0)
(0.00358295 0 0)
(0.00361887 0 0)
(0.00365414 0 0)
(0.00369054 0 0)
(0.00372606 0 0)
(0.00376305 0 0)
(0.0037992 0 0)
(0.00383519 0 0)
(0.00387344 0 0)
(0.00390966 0 0)
(0.00394343 0 0)
(0.00398025 0 0)
(0.00401607 0 0)
(0.00404932 0 0)
(0.00408495 0 0)
(0.00412111 0 0)
(0.00415631 0 0)
(0.00419486 0 0)
(0.00423676 0 0)
(0.0042768 0 0)
(0.00431239 0 0)
(0.00434809 0 0)
(0.00438454 0 0)
(0.00441947 0 0)
(0.00445506 0 0)
(0.00449204 0 0)
(0.00452732 0 0)
(0.00456046 0 0)
)
;

boundaryField
{
    inlet
    {
        type            fixedValue;
        value           uniform (0 0 0);
    }
    outlet
    {
        type            zeroGradient;
    }
    yzfaces
    {
        type            empty;
    }
}


// ************************************************************************* //
