/*--------------------------------*- C++ -*----------------------------------*\
| =========                 |                                                 |
| \\      /  F ield         | foam-extend: Open Source CFD                    |
|  \\    /   O peration     | Version:     5.0                                |
|   \\  /    A nd           | Web:         http://www.foam-extend.org         |
|    \\/     M anipulation  |                                                 |
\*---------------------------------------------------------------------------*/
FoamFile
{
    version     2.0;
    format      ascii;
    class       volScalarField;
    location    "9";
    object      alpha.gas;
}
// * * * * * * * * * * * * * * * * * * * * * * * * * * * * * * * * * * * * * //

dimensions      [0 0 0 0 0 0 0];

internalField   nonuniform List<scalar> 
100
(
0.168031
0.155619
0.146924
0.140224
0.134888
0.129327
0.124835
0.121042
0.117971
0.115558
0.113424
0.111617
0.109783
0.107963
0.106295
0.104615
0.103362
0.10246
0.101209
0.0994786
0.0977046
0.0958474
0.0944146
0.0927017
0.0907098
0.0888574
0.0866252
0.0844603
0.0828979
0.0814297
0.080305
0.079339
0.0787451
0.0783773
0.078133
0.078527
0.0789604
0.079543
0.0800332
0.0802586
0.0804371
0.0805453
0.0803869
0.079923
0.0791356
0.0778193
0.0763217
0.0749323
0.073402
0.0721571
0.0711486
0.0704345
0.0699024
0.0694744
0.0691731
0.0688606
0.0684249
0.0679842
0.067557
0.0671101
0.0665852
0.0660258
0.0653406
0.064717
0.0641435
0.0634466
0.0627799
0.0621223
0.0614623
0.0608834
0.060399
0.0599716
0.0595893
0.059106
0.058596
0.0581973
0.0576987
0.0572833
0.0568312
0.0563864
0.0559456
0.0554608
0.0549536
0.0543673
0.0536391
0.0529248
0.0522095
0.0514196
0.0505577
0.049526
0.0482793
0.0467659
0.0450173
0.0432749
0.027112
0.0290923
0.0324196
0.0344138
0.0352228
0.0353551
)
;

boundaryField
{
    inlet
    {
        type            fixedValue;
        value           uniform 0.2;
    }
    outlet
    {
        type            zeroGradient;
    }
    yzfaces
    {
        type            empty;
    }
}


// ************************************************************************* //
