/*--------------------------------*- C++ -*----------------------------------*\
| =========                 |                                                 |
| \\      /  F ield         | foam-extend: Open Source CFD                    |
|  \\    /   O peration     | Version:     5.0                                |
|   \\  /    A nd           | Web:         http://www.foam-extend.org         |
|    \\/     M anipulation  |                                                 |
\*---------------------------------------------------------------------------*/
FoamFile
{
    version     2.0;
    format      ascii;
    class       volScalarField;
    location    "9";
    object      Cl.water;
}
// * * * * * * * * * * * * * * * * * * * * * * * * * * * * * * * * * * * * * //

dimensions      [0 0 0 0 0 0 0];

internalField   nonuniform List<scalar> 
100
(
0
0.00125887
0.00275322
0.00421544
0.00520853
0.00572616
0.00597127
0.00615559
0.00645488
0.00686878
0.00725278
0.00749304
0.00760868
0.00769145
0.00780726
0.00798038
0.00814467
0.00822389
0.00826394
0.00832732
0.00844426
0.00857312
0.00869408
0.00879157
0.00890879
0.00909768
0.009382
0.00970062
0.0100275
0.0102607
0.010438
0.0105517
0.0106137
0.0106365
0.0106038
0.0105565
0.0105159
0.0105673
0.0106717
0.0107405
0.0107551
0.0107198
0.0107084
0.0107617
0.0108553
0.0109223
0.0109687
0.0110144
0.0110974
0.0112699
0.0114142
0.0114911
0.0114817
0.0114653
0.011515
0.0116246
0.0116713
0.0116362
0.0115434
0.0114779
0.0114503
0.0113663
0.0112446
0.0111856
0.0113261
0.0116629
0.0119699
0.012046
0.0119234
0.0118863
0.0121518
0.0125112
0.0125597
0.0122812
0.0119978
0.0121149
0.0122276
0.0118997
0.0114402
0.011469
0.0121913
0.0133687
0.0132327
0.0121302
0.0116475
0.0123872
0.0138557
0.0153785
0.0121656
0.0107061
0.0123118
0.0148206
0.0168201
0.0180939
0.00290813
0.0156637
0.0193246
0.0198961
0.0199258
0.0199345
)
;

boundaryField
{
    inlet
    {
        type            fixedValue;
        value           uniform 0;
    }
    outlet
    {
        type            zeroGradient;
    }
    yzfaces
    {
        type            empty;
    }
}


// ************************************************************************* //
