/*--------------------------------*- C++ -*----------------------------------*\
| =========                 |                                                 |
| \\      /  F ield         | foam-extend: Open Source CFD                    |
|  \\    /   O peration     | Version:     5.0                                |
|   \\  /    A nd           | Web:         http://www.foam-extend.org         |
|    \\/     M anipulation  |                                                 |
\*---------------------------------------------------------------------------*/
FoamFile
{
    version     2.0;
    format      ascii;
    class       volScalarField;
    location    "9";
    object      CO2.water;
}
// * * * * * * * * * * * * * * * * * * * * * * * * * * * * * * * * * * * * * //

dimensions      [0 0 0 0 0 0 0];

internalField   nonuniform List<scalar> 
100
(
0.000837971
0.000886732
0.000789769
0.000649583
0.000571967
0.000589338
0.000662052
0.000730743
0.000757091
0.000744102
0.000721736
0.000718821
0.00074127
0.000770987
0.000789423
0.000795973
0.000799999
0.000808664
0.000824092
0.000838653
0.000848153
0.000854601
0.000864286
0.00087906
0.000894743
0.000901419
0.000895579
0.000879933
0.000869224
0.000868528
0.000881108
0.000899549
0.000919354
0.000943698
0.000970245
0.000991122
0.000992275
0.000973323
0.000944396
0.000919976
0.000910577
0.000909906
0.000905149
0.000891468
0.000876824
0.000873651
0.000887962
0.000907234
0.000916554
0.000915224
0.000910091
0.000918234
0.000939104
0.00095775
0.000956697
0.000942953
0.000937266
0.000955904
0.00098409
0.00100313
0.00101873
0.00104552
0.0010863
0.00111488
0.00109678
0.00103904
0.000990538
0.00099327
0.00103333
0.00105864
0.00102045
0.000957434
0.000954372
0.00102744
0.00109897
0.00108732
0.00107817
0.00115998
0.00126731
0.00127501
0.00113301
0.00088846
0.000929635
0.00118473
0.00130852
0.0011686
0.000869827
0.000561187
0.00128303
0.00162492
0.00131224
0.000807444
0.000416734
0.000190172
0.00389613
0.00109084
0.000210447
3.36735e-05
4.99907e-06
7.18347e-07
)
;

boundaryField
{
    inlet
    {
        type            fixedValue;
        value           uniform 0;
    }
    outlet
    {
        type            zeroGradient;
    }
    yzfaces
    {
        type            empty;
    }
}


// ************************************************************************* //
