/*--------------------------------*- C++ -*----------------------------------*\
| =========                 |                                                 |
| \\      /  F ield         | foam-extend: Open Source CFD                    |
|  \\    /   O peration     | Version:     5.0                                |
|   \\  /    A nd           | Web:         http://www.foam-extend.org         |
|    \\/     M anipulation  |                                                 |
\*---------------------------------------------------------------------------*/
FoamFile
{
    version     2.0;
    format      ascii;
    class       volScalarField;
    location    "9";
    object      CO2.gas;
}
// * * * * * * * * * * * * * * * * * * * * * * * * * * * * * * * * * * * * * //

dimensions      [0 0 0 0 0 0 0];

internalField   nonuniform List<scalar> 
100
(
0.167696
0.154856
0.146199
0.139681
0.134145
0.12756
0.123732
0.120568
0.118068
0.116334
0.114438
0.112668
0.110768
0.108891
0.107189
0.105476
0.104435
0.103563
0.101993
0.0996362
0.097386
0.0950908
0.093629
0.0916624
0.0893808
0.0875328
0.0852809
0.0830617
0.0820021
0.080859
0.0802751
0.0798029
0.0796553
0.0797931
0.0798501
0.0807486
0.0812772
0.0820849
0.0827962
0.0829366
0.0830524
0.0830251
0.0825997
0.0817336
0.0805595
0.0786669
0.0767844
0.0752011
0.0733802
0.0722085
0.071202
0.0706146
0.0701881
0.0698368
0.0695688
0.0692994
0.0687348
0.0682918
0.0677952
0.0672291
0.0666287
0.0659398
0.065178
0.0645251
0.0639036
0.0631604
0.0625177
0.0618873
0.0611773
0.0606337
0.0602767
0.0598975
0.059463
0.0589826
0.058424
0.0580726
0.0576014
0.0572002
0.0567039
0.0562723
0.0558589
0.0553404
0.0548151
0.0542128
0.0534716
0.0527702
0.0520681
0.0512572
0.0503801
0.0492897
0.048033
0.0464527
0.0446165
0.0427979
0.0267381
0.0284827
0.0314811
0.033126
0.0335493
0.0332571
)
;

boundaryField
{
    inlet
    {
        type            fixedValue;
        value           uniform 0.2;
    }
    outlet
    {
        type            zeroGradient;
    }
    yzfaces
    {
        type            empty;
    }
}


// ************************************************************************* //
