/*--------------------------------*- C++ -*----------------------------------*\
| =========                 |                                                 |
| \\      /  F ield         | foam-extend: Open Source CFD                    |
|  \\    /   O peration     | Version:     5.0                                |
|   \\  /    A nd           | Web:         http://www.foam-extend.org         |
|    \\/     M anipulation  |                                                 |
\*---------------------------------------------------------------------------*/
FoamFile
{
    version     2.0;
    format      ascii;
    class       volScalarField;
    location    "9";
    object      Na.water;
}
// * * * * * * * * * * * * * * * * * * * * * * * * * * * * * * * * * * * * * //

dimensions      [0 0 0 0 0 0 0];

internalField   nonuniform List<scalar> 
100
(
0
0.00125834
0.00275266
0.00421539
0.00520732
0.00572434
0.0059713
0.00615521
0.00645209
0.00686582
0.00724996
0.00749313
0.00760733
0.0076854
0.00780018
0.00796927
0.00813713
0.00821258
0.00825541
0.00832147
0.00843318
0.00856928
0.00869687
0.00879464
0.00891189
0.00910024
0.00938119
0.00970314
0.0100252
0.0102573
0.0104295
0.0105501
0.0106118
0.0106358
0.0106051
0.0105515
0.0105134
0.0105669
0.010675
0.0107478
0.0107546
0.0107185
0.010709
0.0107619
0.0108558
0.0109256
0.0109691
0.0110099
0.0110968
0.0112704
0.0114187
0.0115009
0.0114897
0.0114734
0.0115209
0.0116319
0.0116789
0.0116424
0.0115528
0.0114896
0.011462
0.0113783
0.011256
0.0111968
0.0113383
0.0116774
0.0119831
0.0120563
0.0119334
0.0118909
0.0121558
0.0125163
0.0125665
0.0122875
0.0120078
0.0121205
0.0122333
0.011908
0.0114476
0.0114775
0.0121975
0.0133809
0.0132455
0.0121374
0.0116543
0.0123925
0.0138625
0.0153844
0.0121698
0.0107071
0.012311
0.0148179
0.0168223
0.0180871
0.00290817
0.0156548
0.0193144
0.0198896
0.0199271
0.0199324
)
;

boundaryField
{
    inlet
    {
        type            fixedValue;
        value           uniform 0;
    }
    outlet
    {
        type            zeroGradient;
    }
    yzfaces
    {
        type            empty;
    }
}


// ************************************************************************* //
