/*--------------------------------*- C++ -*----------------------------------*\
| =========                 |                                                 |
| \\      /  F ield         | foam-extend: Open Source CFD                    |
|  \\    /   O peration     | Version:     5.0                                |
|   \\  /    A nd           | Web:         http://www.foam-extend.org         |
|    \\/     M anipulation  |                                                 |
\*---------------------------------------------------------------------------*/
FoamFile
{
    version     2.0;
    format      ascii;
    class       surfaceScalarField;
    location    "9";
    object      phi;
}
// * * * * * * * * * * * * * * * * * * * * * * * * * * * * * * * * * * * * * //

dimensions      [0 3 -1 0 0 0 0];

internalField   nonuniform List<scalar> 
99
(
1.21742e-06
1.22165e-06
1.22961e-06
1.22362e-06
1.21664e-06
1.2025e-06
1.19812e-06
1.20833e-06
1.20935e-06
1.21594e-06
1.21674e-06
1.21821e-06
1.21943e-06
1.22562e-06
1.2272e-06
1.22707e-06
1.22951e-06
1.22305e-06
1.21505e-06
1.2135e-06
1.20885e-06
1.20558e-06
1.20314e-06
1.2002e-06
1.2047e-06
1.19688e-06
1.19833e-06
1.204e-06
1.20696e-06
1.21376e-06
1.21342e-06
1.21887e-06
1.22098e-06
1.22405e-06
1.23009e-06
1.23127e-06
1.23224e-06
1.23218e-06
1.22868e-06
1.21845e-06
1.20893e-06
1.19575e-06
1.18955e-06
1.18001e-06
1.17137e-06
1.16215e-06
1.15577e-06
1.15085e-06
1.149e-06
1.14963e-06
1.15233e-06
1.15355e-06
1.1548e-06
1.15652e-06
1.15428e-06
1.15402e-06
1.15135e-06
1.15106e-06
1.147e-06
1.14665e-06
1.14245e-06
1.1403e-06
1.13949e-06
1.14034e-06
1.14121e-06
1.14103e-06
1.14057e-06
1.13917e-06
1.14425e-06
1.14743e-06
1.15117e-06
1.15593e-06
1.15137e-06
1.15081e-06
1.15333e-06
1.14679e-06
1.15076e-06
1.15064e-06
1.15097e-06
1.15025e-06
1.15321e-06
1.15428e-06
1.15262e-06
1.14768e-06
1.14985e-06
1.15025e-06
1.15118e-06
1.15139e-06
1.15228e-06
1.15182e-06
1.148e-06
1.14454e-06
1.14485e-06
1.14541e-06
1.14167e-06
1.14262e-06
1.14515e-06
1.14466e-06
1.14418e-06
)
;

boundaryField
{
    inlet
    {
        type            calculated;
        value           uniform -1.225e-06;
    }
    outlet
    {
        type            calculated;
        value           uniform 1.14723e-06;
    }
    yzfaces
    {
        type            empty;
    }
}


// ************************************************************************* //
