/*--------------------------------*- C++ -*----------------------------------*\
| =========                 |                                                 |
| \\      /  F ield         | foam-extend: Open Source CFD                    |
|  \\    /   O peration     | Version:     5.0                                |
|   \\  /    A nd           | Web:         http://www.foam-extend.org         |
|    \\/     M anipulation  |                                                 |
\*---------------------------------------------------------------------------*/
FoamFile
{
    version     2.0;
    format      ascii;
    class       volVectorField;
    location    "9";
    object      U.gas;
}
// * * * * * * * * * * * * * * * * * * * * * * * * * * * * * * * * * * * * * //

dimensions      [0 1 -1 0 0 0 0];

internalField   nonuniform List<vector> 
100
(
(0.00592676 0 0)
(0.00637594 0 0)
(0.00676902 0 0)
(0.0070782 0 0)
(0.0072982 0 0)
(0.00752147 0 0)
(0.00770426 0 0)
(0.00793681 0 0)
(0.00815432 0 0)
(0.00832551 0 0)
(0.00848483 0 0)
(0.00860836 0 0)
(0.00873977 0 0)
(0.00888992 0 0)
(0.00903293 0 0)
(0.00915741 0 0)
(0.00925291 0 0)
(0.0093001 0 0)
(0.0093393 0 0)
(0.00943544 0 0)
(0.0095455 0 0)
(0.00965683 0 0)
(0.00974011 0 0)
(0.00985672 0 0)
(0.0100266 0 0)
(0.0101609 0 0)
(0.0103244 0 0)
(0.0105368 0 0)
(0.0106957 0 0)
(0.0108637 0 0)
(0.0109827 0 0)
(0.0110856 0 0)
(0.0111616 0 0)
(0.011211 0 0)
(0.0112706 0 0)
(0.0112509 0 0)
(0.0112224 0 0)
(0.0111725 0 0)
(0.0111159 0 0)
(0.011041 0 0)
(0.0109388 0 0)
(0.0108299 0 0)
(0.0107618 0 0)
(0.0107373 0 0)
(0.010729 0 0)
(0.0107712 0 0)
(0.0108302 0 0)
(0.0108906 0 0)
(0.0109905 0 0)
(0.0110777 0 0)
(0.0111687 0 0)
(0.0112355 0 0)
(0.0112836 0 0)
(0.0113286 0 0)
(0.0113444 0 0)
(0.0113574 0 0)
(0.0113826 0 0)
(0.0114032 0 0)
(0.0114156 0 0)
(0.0114285 0 0)
(0.0114509 0 0)
(0.0114638 0 0)
(0.0115059 0 0)
(0.0115509 0 0)
(0.0115993 0 0)
(0.0116605 0 0)
(0.0117049 0 0)
(0.0117415 0 0)
(0.0118078 0 0)
(0.0118869 0 0)
(0.0119479 0 0)
(0.0120167 0 0)
(0.0120406 0 0)
(0.0120503 0 0)
(0.0120946 0 0)
(0.0120914 0 0)
(0.0121157 0 0)
(0.0121538 0 0)
(0.0121846 0 0)
(0.0122076 0 0)
(0.0122432 0 0)
(0.0122929 0 0)
(0.012317 0 0)
(0.0123193 0 0)
(0.012353 0 0)
(0.0123975 0 0)
(0.0124332 0 0)
(0.0124765 0 0)
(0.0125215 0 0)
(0.0125744 0 0)
(0.0126056 0 0)
(0.0126226 0 0)
(0.0126474 0 0)
(0.0126409 0 0)
(0.0150661 0 0)
(0.0102475 0 0)
(0.0105822 0 0)
(0.0112561 0 0)
(0.0116386 0 0)
(0.0118225 0 0)
)
;

boundaryField
{
    inlet
    {
        type            fixedValue;
        value           uniform (0.005 0 0);
    }
    outlet
    {
        type            zeroGradient;
    }
    yzfaces
    {
        type            empty;
    }
}


// ************************************************************************* //
