/*--------------------------------*- C++ -*----------------------------------*\
| =========                 |                                                 |
| \\      /  F ield         | foam-extend: Open Source CFD                    |
|  \\    /   O peration     | Version:     5.0                                |
|   \\  /    A nd           | Web:         http://www.foam-extend.org         |
|    \\/     M anipulation  |                                                 |
\*---------------------------------------------------------------------------*/
FoamFile
{
    version     2.0;
    format      ascii;
    class       volVectorField;
    location    "9";
    object      U.water;
}
// * * * * * * * * * * * * * * * * * * * * * * * * * * * * * * * * * * * * * //

dimensions      [0 1 -1 0 0 0 0];

internalField   nonuniform List<vector> 
100
(
(3.20556e-05 0 0)
(7.48581e-05 0 0)
(0.00011269 0 0)
(0.000146966 0 0)
(0.000177943 0 0)
(0.000207616 0 0)
(0.000240577 0 0)
(0.00027271 0 0)
(0.000302778 0 0)
(0.000329616 0 0)
(0.000352888 0 0)
(0.000373575 0 0)
(0.000393251 0 0)
(0.000415001 0 0)
(0.000437536 0 0)
(0.000458563 0 0)
(0.000478981 0 0)
(0.000493752 0 0)
(0.000505252 0 0)
(0.000523482 0 0)
(0.000548189 0 0)
(0.000575103 0 0)
(0.00060179 0 0)
(0.000626464 0 0)
(0.000659524 0 0)
(0.000696111 0 0)
(0.000734612 0 0)
(0.000784127 0 0)
(0.000831847 0 0)
(0.000872274 0 0)
(0.000908332 0 0)
(0.000938573 0 0)
(0.000964393 0 0)
(0.000980757 0 0)
(0.000993546 0 0)
(0.000997234 0 0)
(0.000986351 0 0)
(0.000972895 0 0)
(0.000956861 0 0)
(0.000941085 0 0)
(0.00092737 0 0)
(0.000914169 0 0)
(0.000906958 0 0)
(0.000907821 0 0)
(0.000915937 0 0)
(0.000935106 0 0)
(0.000966325 0 0)
(0.0010028 0 0)
(0.0010426 0 0)
(0.00108633 0 0)
(0.00112486 0 0)
(0.00115626 0 0)
(0.00117939 0 0)
(0.00119783 0 0)
(0.00121116 0 0)
(0.00122076 0 0)
(0.00123213 0 0)
(0.0012462 0 0)
(0.00125927 0 0)
(0.00127337 0 0)
(0.00128824 0 0)
(0.00130493 0 0)
(0.00132724 0 0)
(0.00135276 0 0)
(0.00137812 0 0)
(0.00140388 0 0)
(0.00143148 0 0)
(0.00145848 0 0)
(0.00148889 0 0)
(0.00152144 0 0)
(0.00155128 0 0)
(0.00157831 0 0)
(0.00159719 0 0)
(0.00161412 0 0)
(0.00163908 0 0)
(0.00165821 0 0)
(0.00167757 0 0)
(0.00170364 0 0)
(0.00172502 0 0)
(0.00174726 0 0)
(0.00177179 0 0)
(0.00179923 0 0)
(0.00182512 0 0)
(0.001848 0 0)
(0.00188004 0 0)
(0.00192202 0 0)
(0.00196381 0 0)
(0.00200762 0 0)
(0.00205575 0 0)
(0.00211126 0 0)
(0.00217579 0 0)
(0.00225421 0 0)
(0.00235568 0 0)
(0.00247416 0 0)
(0.0030368 0 0)
(0.003711 0 0)
(0.00352494 0 0)
(0.00330492 0 0)
(0.00318171 0 0)
(0.00314179 0 0)
)
;

boundaryField
{
    inlet
    {
        type            fixedValue;
        value           uniform (0 0 0);
    }
    outlet
    {
        type            zeroGradient;
    }
    yzfaces
    {
        type            empty;
    }
}


// ************************************************************************* //
