/*--------------------------------*- C++ -*----------------------------------*\
| =========                 |                                                 |
| \\      /  F ield         | foam-extend: Open Source CFD                    |
|  \\    /   O peration     | Version:     5.0                                |
|   \\  /    A nd           | Web:         http://www.foam-extend.org         |
|    \\/     M anipulation  |                                                 |
\*---------------------------------------------------------------------------*/
FoamFile
{
    version     2.0;
    format      ascii;
    class       volScalarField;
    location    "30";
    object      alpha.water;
}
// * * * * * * * * * * * * * * * * * * * * * * * * * * * * * * * * * * * * * //

dimensions      [0 0 0 0 0 0 0];

internalField   nonuniform List<scalar> 
100
(
0.0138922
0.0303849
0.039177
0.0363188
0.034857
0.0367737
0.0414144
0.0486544
0.0489635
0.0486538
0.0485399
0.0476398
0.0475758
0.0475999
0.0469852
0.0467115
0.0459041
0.0473881
0.0487206
0.0513047
0.0546409
0.0590546
0.063899
0.0671471
0.069418
0.0722132
0.074228
0.0760184
0.076405
0.07623
0.0761734
0.0766979
0.0763164
0.0760389
0.0750881
0.0746493
0.0746411
0.0744641
0.0745487
0.0747349
0.0747294
0.0755462
0.0767551
0.0776897
0.0793884
0.0812996
0.0840057
0.0863852
0.0884312
0.0895542
0.0906243
0.0917561
0.0931908
0.0937159
0.0947726
0.0959314
0.0969074
0.0984343
0.0994118
0.100153
0.101034
0.101989
0.102492
0.103057
0.103442
0.103934
0.104496
0.10525
0.105702
0.106528
0.107343
0.108112
0.109491
0.110203
0.11096
0.112015
0.112499
0.112761
0.113056
0.113357
0.113411
0.113689
0.114085
0.114079
0.114065
0.113998
0.113918
0.1139
0.113894
0.113906
0.114146
0.114098
0.114153
0.113983
0.114325
0.114319
0.114273
0.114376
0.114692
0.114297
)
;

boundaryField
{
    inlet
    {
        type            fixedValue;
        value           uniform 0;
    }
    outlet
    {
        type            zeroGradient;
    }
    yzfaces
    {
        type            empty;
    }
}


// ************************************************************************* //
