/*--------------------------------*- C++ -*----------------------------------*\
| =========                 |                                                 |
| \\      /  F ield         | foam-extend: Open Source CFD                    |
|  \\    /   O peration     | Version:     5.0                                |
|   \\  /    A nd           | Web:         http://www.foam-extend.org         |
|    \\/     M anipulation  |                                                 |
\*---------------------------------------------------------------------------*/
FoamFile
{
    version     2.0;
    format      ascii;
    class       volScalarField;
    location    "30";
    object      alpha.water;
}
// * * * * * * * * * * * * * * * * * * * * * * * * * * * * * * * * * * * * * //

dimensions      [0 0 0 0 0 0 0];

internalField   nonuniform List<scalar> 
100
(
0.0140239
0.0297251
0.0392991
0.03693
0.0357969
0.036543
0.0411744
0.0481784
0.0506745
0.0491071
0.0490541
0.0487611
0.0474273
0.0459267
0.0454604
0.0457331
0.0456402
0.0465788
0.0480532
0.0516561
0.0549234
0.0593743
0.0636745
0.0671143
0.0705404
0.0735955
0.0755175
0.0757111
0.0757841
0.0757254
0.0754926
0.0752584
0.0751369
0.0748481
0.0748457
0.0748309
0.0745086
0.0742125
0.0746082
0.075081
0.0745786
0.0756055
0.0766118
0.0792243
0.081045
0.0840075
0.0867478
0.0875376
0.0884852
0.089453
0.0902593
0.0916766
0.0929131
0.0935235
0.0945753
0.0958443
0.0973291
0.0986114
0.0990969
0.100078
0.100585
0.101347
0.102123
0.102936
0.103655
0.104257
0.105021
0.105536
0.106047
0.10644
0.10705
0.107883
0.109137
0.109795
0.110752
0.111514
0.112106
0.112254
0.112615
0.11284
0.113061
0.113026
0.113279
0.113356
0.113204
0.113425
0.113379
0.113163
0.113298
0.113163
0.113405
0.113452
0.113606
0.113753
0.113595
0.113715
0.113944
0.113845
0.113859
0.11354
)
;

boundaryField
{
    inlet
    {
        type            fixedValue;
        value           uniform 0;
    }
    outlet
    {
        type            zeroGradient;
    }
    yzfaces
    {
        type            empty;
    }
}


// ************************************************************************* //
