/*--------------------------------*- C++ -*----------------------------------*\
| =========                 |                                                 |
| \\      /  F ield         | foam-extend: Open Source CFD                    |
|  \\    /   O peration     | Version:     5.0                                |
|   \\  /    A nd           | Web:         http://www.foam-extend.org         |
|    \\/     M anipulation  |                                                 |
\*---------------------------------------------------------------------------*/
FoamFile
{
    version     2.0;
    format      ascii;
    class       volScalarField;
    location    "30";
    object      Cl.water;
}
// * * * * * * * * * * * * * * * * * * * * * * * * * * * * * * * * * * * * * //

dimensions      [0 0 0 0 0 0 0];

internalField   nonuniform List<scalar> 
100
(
0.00259944
0.00207156
0.00360136
0.00635867
0.00768538
0.00811715
0.00871009
0.00966782
0.0120191
0.0123161
0.0123085
0.0126584
0.0123913
0.0122468
0.0126592
0.0128729
0.0132711
0.0131444
0.0134594
0.0135943
0.0135665
0.0136382
0.0140555
0.0144763
0.0148148
0.0152483
0.0155406
0.0157884
0.0162304
0.016291
0.0161127
0.0157742
0.0161259
0.0163968
0.0167225
0.0166704
0.0166831
0.0167518
0.0166322
0.0164438
0.0165398
0.0165104
0.0165567
0.0165557
0.0164761
0.0167368
0.016861
0.0171901
0.01732
0.0174738
0.0175218
0.0177072
0.0178518
0.0181669
0.0182746
0.0183357
0.0185126
0.0186634
0.0188647
0.0190676
0.0190641
0.0192648
0.0195941
0.0198199
0.0199029
0.0199195
0.0200234
0.0200247
0.0202158
0.0203063
0.0204303
0.0206734
0.0208964
0.0211919
0.0214716
0.0216539
0.0218306
0.0219877
0.0221288
0.0223218
0.0225112
0.0225742
0.0226785
0.0228433
0.0229629
0.023039
0.0230813
0.0230101
0.0229328
0.0228446
0.0227117
0.0226848
0.0226293
0.022628
0.0225479
0.0224775
0.0224587
0.0224053
0.0224543
0.0229736
)
;

boundaryField
{
    inlet
    {
        type            fixedValue;
        value           uniform 0;
    }
    outlet
    {
        type            zeroGradient;
    }
    yzfaces
    {
        type            empty;
    }
}


// ************************************************************************* //
