/*--------------------------------*- C++ -*----------------------------------*\
| =========                 |                                                 |
| \\      /  F ield         | foam-extend: Open Source CFD                    |
|  \\    /   O peration     | Version:     5.0                                |
|   \\  /    A nd           | Web:         http://www.foam-extend.org         |
|    \\/     M anipulation  |                                                 |
\*---------------------------------------------------------------------------*/
FoamFile
{
    version     2.0;
    format      ascii;
    class       volScalarField;
    location    "30";
    object      Cl.water;
}
// * * * * * * * * * * * * * * * * * * * * * * * * * * * * * * * * * * * * * //

dimensions      [0 0 0 0 0 0 0];

internalField   nonuniform List<scalar> 
100
(
0.0025481
0.00213002
0.00343594
0.00624876
0.0075011
0.00832966
0.00886783
0.00976027
0.0112418
0.0122552
0.0121048
0.0122321
0.0127533
0.0132808
0.0133408
0.0131156
0.013248
0.0132112
0.0134335
0.0135496
0.0136575
0.0136843
0.0140024
0.014328
0.0148792
0.0155046
0.0160936
0.0163195
0.0163684
0.0163396
0.0165728
0.0166937
0.0165542
0.0165019
0.0164103
0.016634
0.0166932
0.0166248
0.0164584
0.0164625
0.0164578
0.0161696
0.0165154
0.0164223
0.0167095
0.0167847
0.0169532
0.0174207
0.0174693
0.0173783
0.0174508
0.0175107
0.0177144
0.0179845
0.0180666
0.0181667
0.0183153
0.018509
0.018812
0.0188845
0.0191315
0.0192929
0.0193913
0.0194738
0.0197323
0.0199065
0.0199345
0.0200164
0.0201668
0.0203348
0.0205317
0.0207237
0.0208916
0.0212482
0.0214635
0.021669
0.0216968
0.0217749
0.0218792
0.0220723
0.0223992
0.0225653
0.0226197
0.0227914
0.0230233
0.022961
0.0229785
0.0230467
0.0229113
0.0229518
0.0228446
0.0227759
0.0227424
0.0227124
0.0226995
0.0226473
0.0225114
0.0226683
0.0226041
0.023156
)
;

boundaryField
{
    inlet
    {
        type            fixedValue;
        value           uniform 0;
    }
    outlet
    {
        type            zeroGradient;
    }
    yzfaces
    {
        type            empty;
    }
}


// ************************************************************************* //
