/*--------------------------------*- C++ -*----------------------------------*\
| =========                 |                                                 |
| \\      /  F ield         | foam-extend: Open Source CFD                    |
|  \\    /   O peration     | Version:     5.0                                |
|   \\  /    A nd           | Web:         http://www.foam-extend.org         |
|    \\/     M anipulation  |                                                 |
\*---------------------------------------------------------------------------*/
FoamFile
{
    version     2.0;
    format      ascii;
    class       volScalarField;
    location    "30";
    object      CO2.gas;
}
// * * * * * * * * * * * * * * * * * * * * * * * * * * * * * * * * * * * * * //

dimensions      [0 0 0 0 0 0 0];

internalField   nonuniform List<scalar> 
100
(
0.185745
0.169285
0.16051
0.163362
0.164821
0.162908
0.158277
0.151051
0.150742
0.151051
0.151165
0.152063
0.152127
0.152103
0.152717
0.15299
0.153796
0.152315
0.150985
0.148406
0.145076
0.140671
0.135836
0.132594
0.130328
0.127538
0.125527
0.12374
0.123354
0.123529
0.123585
0.123062
0.123443
0.12372
0.124669
0.125107
0.125115
0.125291
0.125207
0.125021
0.125027
0.124211
0.123005
0.122072
0.120377
0.118469
0.115768
0.113394
0.111351
0.110231
0.109163
0.108033
0.106601
0.106077
0.105022
0.103866
0.102892
0.101368
0.100392
0.0996529
0.0987736
0.0978203
0.0973183
0.0967544
0.0963703
0.095879
0.0953184
0.0945657
0.0941142
0.0932902
0.0924763
0.0917095
0.090333
0.0896217
0.0888669
0.0878138
0.0873304
0.0870695
0.0867747
0.0864743
0.0864205
0.0861426
0.0857473
0.0857532
0.0857679
0.0858343
0.0859142
0.0859321
0.0859383
0.0859267
0.0856866
0.085735
0.0856801
0.0858496
0.0855079
0.0855143
0.0855597
0.0854573
0.0851418
0.0855357
)
;

boundaryField
{
    inlet
    {
        type            fixedValue;
        value           uniform 0.2;
    }
    outlet
    {
        type            zeroGradient;
    }
    yzfaces
    {
        type            empty;
    }
}


// ************************************************************************* //
