/*--------------------------------*- C++ -*----------------------------------*\
| =========                 |                                                 |
| \\      /  F ield         | foam-extend: Open Source CFD                    |
|  \\    /   O peration     | Version:     5.0                                |
|   \\  /    A nd           | Web:         http://www.foam-extend.org         |
|    \\/     M anipulation  |                                                 |
\*---------------------------------------------------------------------------*/
FoamFile
{
    version     2.0;
    format      ascii;
    class       volScalarField;
    location    "30";
    object      CO2.water;
}
// * * * * * * * * * * * * * * * * * * * * * * * * * * * * * * * * * * * * * //

dimensions      [0 0 0 0 0 0 0];

internalField   nonuniform List<scalar> 
100
(
0.000364873
0.000798045
0.00102897
0.000953896
0.000915504
0.000965845
0.00108773
0.00127789
0.00128601
0.00127787
0.00127488
0.00125124
0.00124956
0.00125019
0.00123404
0.00122686
0.00120565
0.00124463
0.00127962
0.00134749
0.00143512
0.00155104
0.00167828
0.00176359
0.00182323
0.00189665
0.00194956
0.00199659
0.00200674
0.00200215
0.00200066
0.00201443
0.00200441
0.00199713
0.00197215
0.00196063
0.00196041
0.00195577
0.00195799
0.00196288
0.00196273
0.00198419
0.00201594
0.00204048
0.0020851
0.0021353
0.00220637
0.00226887
0.00232261
0.0023521
0.00238021
0.00240993
0.00244761
0.0024614
0.00248916
0.00251959
0.00254523
0.00258533
0.00261101
0.00263046
0.0026536
0.00267869
0.0026919
0.00270674
0.00271685
0.00272978
0.00274453
0.00276434
0.00277622
0.0027979
0.00281932
0.0028395
0.00287572
0.00289444
0.00291431
0.00294202
0.00295474
0.00296161
0.00296936
0.00297727
0.00297868
0.002986
0.0029964
0.00299624
0.00299586
0.00299411
0.00299201
0.00299154
0.00299137
0.00299168
0.002998
0.00299672
0.00299817
0.00299371
0.0030027
0.00300253
0.00300134
0.00300403
0.00301233
0.00300197
)
;

boundaryField
{
    inlet
    {
        type            fixedValue;
        value           uniform 0;
    }
    outlet
    {
        type            zeroGradient;
    }
    yzfaces
    {
        type            empty;
    }
}


// ************************************************************************* //
