/*--------------------------------*- C++ -*----------------------------------*\
| =========                 |                                                 |
| \\      /  F ield         | foam-extend: Open Source CFD                    |
|  \\    /   O peration     | Version:     5.0                                |
|   \\  /    A nd           | Web:         http://www.foam-extend.org         |
|    \\/     M anipulation  |                                                 |
\*---------------------------------------------------------------------------*/
FoamFile
{
    version     2.0;
    format      ascii;
    class       volScalarField;
    location    "30";
    object      CO2.water;
}
// * * * * * * * * * * * * * * * * * * * * * * * * * * * * * * * * * * * * * //

dimensions      [0 0 0 0 0 0 0];

internalField   nonuniform List<scalar> 
100
(
0.00036833
0.000780716
0.00103217
0.000969951
0.000940188
0.000959786
0.00108143
0.00126538
0.00133094
0.00128977
0.00128838
0.00128069
0.00124566
0.00120624
0.001194
0.00120116
0.00119872
0.00122337
0.00126209
0.00135672
0.00144254
0.00155944
0.00167238
0.00176273
0.00185271
0.00193295
0.00198343
0.00198852
0.00199043
0.00198889
0.00198278
0.00197663
0.00197344
0.00196585
0.00196579
0.0019654
0.00195693
0.00194916
0.00195955
0.00197197
0.00195877
0.00198574
0.00201217
0.00208079
0.00212861
0.00220642
0.00227839
0.00229913
0.00232402
0.00234944
0.00237062
0.00240784
0.00244032
0.00245635
0.00248398
0.00251731
0.00255631
0.00258998
0.00260273
0.00262849
0.00264181
0.00266183
0.0026822
0.00270357
0.00272245
0.00273826
0.00275832
0.00277186
0.00278528
0.00279559
0.00281162
0.00283351
0.00286642
0.00288372
0.00290886
0.00292886
0.00294442
0.0029483
0.00295779
0.00296369
0.00296951
0.00296858
0.00297523
0.00297725
0.00297325
0.00297904
0.00297785
0.00297218
0.00297573
0.00297216
0.00297854
0.00297977
0.0029838
0.00298767
0.00298352
0.00298668
0.00299268
0.00299009
0.00299045
0.00298206
)
;

boundaryField
{
    inlet
    {
        type            fixedValue;
        value           uniform 0;
    }
    outlet
    {
        type            zeroGradient;
    }
    yzfaces
    {
        type            empty;
    }
}


// ************************************************************************* //
