/*--------------------------------*- C++ -*----------------------------------*\
| =========                 |                                                 |
| \\      /  F ield         | foam-extend: Open Source CFD                    |
|  \\    /   O peration     | Version:     5.0                                |
|   \\  /    A nd           | Web:         http://www.foam-extend.org         |
|    \\/     M anipulation  |                                                 |
\*---------------------------------------------------------------------------*/
FoamFile
{
    version     2.0;
    format      ascii;
    class       volScalarField;
    location    "30";
    object      CO2.gas;
}
// * * * * * * * * * * * * * * * * * * * * * * * * * * * * * * * * * * * * * //

dimensions      [0 0 0 0 0 0 0];

internalField   nonuniform List<scalar> 
100
(
0.185614
0.169943
0.160388
0.162752
0.163883
0.163139
0.158516
0.151526
0.149035
0.150599
0.150652
0.150944
0.152276
0.153773
0.154239
0.153966
0.154059
0.153122
0.151651
0.148055
0.144794
0.140352
0.13606
0.132627
0.129207
0.126158
0.12424
0.124047
0.123974
0.124033
0.124265
0.124499
0.12462
0.124908
0.124911
0.124925
0.125247
0.125543
0.125148
0.124676
0.125177
0.124152
0.123148
0.120541
0.118723
0.115767
0.113032
0.112243
0.111298
0.110332
0.109527
0.108112
0.106878
0.106269
0.105219
0.103953
0.102471
0.101191
0.100707
0.0997279
0.0992217
0.098461
0.0976869
0.096875
0.0961574
0.0955566
0.0947943
0.0942797
0.09377
0.0933782
0.0927691
0.0919373
0.0906865
0.0900291
0.0890738
0.088314
0.0877227
0.0875752
0.0872145
0.0869901
0.0867693
0.0868045
0.0865516
0.0864748
0.0866271
0.0864069
0.0864522
0.0866678
0.0865329
0.0866684
0.0864261
0.0863793
0.0862261
0.0860791
0.0862368
0.0861166
0.0858887
0.0859871
0.0859734
0.0862921
)
;

boundaryField
{
    inlet
    {
        type            fixedValue;
        value           uniform 0.2;
    }
    outlet
    {
        type            zeroGradient;
    }
    yzfaces
    {
        type            empty;
    }
}


// ************************************************************************* //
