/*--------------------------------*- C++ -*----------------------------------*\
| =========                 |                                                 |
| \\      /  F ield         | foam-extend: Open Source CFD                    |
|  \\    /   O peration     | Version:     5.0                                |
|   \\  /    A nd           | Web:         http://www.foam-extend.org         |
|    \\/     M anipulation  |                                                 |
\*---------------------------------------------------------------------------*/
FoamFile
{
    version     2.0;
    format      ascii;
    class       volScalarField;
    location    "30";
    object      H2O.water;
}
// * * * * * * * * * * * * * * * * * * * * * * * * * * * * * * * * * * * * * //

dimensions      [0 0 0 0 0 0 0];

internalField   nonuniform List<scalar> 
100
(
0.0083287
0.0254438
0.0309428
0.0226432
0.0185648
0.019567
0.0229037
0.0280372
0.02363
0.0227339
0.0226343
0.0210665
0.0215365
0.0218542
0.0204283
0.0197331
0.0181526
0.0198481
0.0205194
0.0227596
0.0260613
0.0302239
0.0341147
0.0364391
0.0379722
0.0398315
0.0412088
0.0424467
0.0419513
0.0416463
0.0419512
0.0431369
0.0420645
0.0412504
0.0396688
0.0393419
0.0393123
0.0390028
0.0393265
0.0398893
0.0396921
0.0405437
0.0416197
0.0425319
0.0443462
0.0456918
0.0480871
0.0497533
0.0514945
0.0522746
0.053215
0.0539358
0.0550406
0.0549193
0.0557187
0.0567207
0.0573217
0.0585048
0.0590453
0.0593685
0.0602384
0.0607765
0.0606192
0.0607352
0.0609212
0.0613619
0.0617029
0.0624367
0.0624927
0.0631127
0.0636607
0.0639219
0.0648245
0.0649377
0.0651022
0.0657743
0.0658868
0.065822
0.0658486
0.065757
0.0654374
0.0655721
0.0657336
0.0653961
0.0651525
0.0649437
0.0647975
0.0649212
0.0650514
0.0652221
0.0657265
0.0657398
0.065911
0.0657484
0.0662419
0.0663731
0.0663724
0.0665822
0.0667925
0.0653717
)
;

boundaryField
{
    inlet
    {
        type            fixedValue;
        value           uniform 0;
    }
    outlet
    {
        type            zeroGradient;
    }
    yzfaces
    {
        type            empty;
    }
}


// ************************************************************************* //
