/*--------------------------------*- C++ -*----------------------------------*\
| =========                 |                                                 |
| \\      /  F ield         | foam-extend: Open Source CFD                    |
|  \\    /   O peration     | Version:     5.0                                |
|   \\  /    A nd           | Web:         http://www.foam-extend.org         |
|    \\/     M anipulation  |                                                 |
\*---------------------------------------------------------------------------*/
FoamFile
{
    version     2.0;
    format      ascii;
    class       volScalarField;
    location    "30";
    object      H2O.gas;
}
// * * * * * * * * * * * * * * * * * * * * * * * * * * * * * * * * * * * * * //

dimensions      [0 0 0 0 0 0 0];

internalField   nonuniform List<scalar> 
100
(
0.000362439
0.000330321
0.000313198
0.000318764
0.000321611
0.000317878
0.000308841
0.000294741
0.000294139
0.000294742
0.000294964
0.000296717
0.000296842
0.000296795
0.000297992
0.000298525
0.000300097
0.000297207
0.000294612
0.00028958
0.000283083
0.000274487
0.000265053
0.000258727
0.000254305
0.000248861
0.000244937
0.000241451
0.000240698
0.000241038
0.000241149
0.000240127
0.00024087
0.000241411
0.000243262
0.000244117
0.000244133
0.000244478
0.000244313
0.00024395
0.000243961
0.00024237
0.000240016
0.000238196
0.000234888
0.000231166
0.000225896
0.000221262
0.000217277
0.00021509
0.000213006
0.000210802
0.000208008
0.000206985
0.000204927
0.000202671
0.00020077
0.000197796
0.000195893
0.00019445
0.000192734
0.000190874
0.000189894
0.000188794
0.000188045
0.000187086
0.000185992
0.000184523
0.000183642
0.000182034
0.000180446
0.00017895
0.000176264
0.000174876
0.000173403
0.000171348
0.000170405
0.000169896
0.000169321
0.000168735
0.00016863
0.000168088
0.000167316
0.000167328
0.000167356
0.000167486
0.000167642
0.000167677
0.000167689
0.000167666
0.000167198
0.000167292
0.000167185
0.000167516
0.000166849
0.000166862
0.00016695
0.00016675
0.000166135
0.000166903
)
;

boundaryField
{
    inlet
    {
        type            fixedValue;
        value           uniform 0;
    }
    outlet
    {
        type            zeroGradient;
    }
    yzfaces
    {
        type            empty;
    }
}


// ************************************************************************* //
