/*--------------------------------*- C++ -*----------------------------------*\
| =========                 |                                                 |
| \\      /  F ield         | foam-extend: Open Source CFD                    |
|  \\    /   O peration     | Version:     5.0                                |
|   \\  /    A nd           | Web:         http://www.foam-extend.org         |
|    \\/     M anipulation  |                                                 |
\*---------------------------------------------------------------------------*/
FoamFile
{
    version     2.0;
    format      ascii;
    class       volScalarField;
    location    "30";
    object      H2O.water;
}
// * * * * * * * * * * * * * * * * * * * * * * * * * * * * * * * * * * * * * //

dimensions      [0 0 0 0 0 0 0];

internalField   nonuniform List<scalar> 
100
(
0.00856058
0.024683
0.0313925
0.023462
0.0198548
0.018923
0.0223509
0.0273823
0.0268494
0.0232879
0.0235387
0.02301
0.02067
0.0181458
0.0175764
0.0182964
0.0179459
0.0189355
0.0199229
0.0232069
0.0261806
0.0304568
0.034008
0.0366969
0.0389279
0.040655
0.0413414
0.0410722
0.0410453
0.041054
0.0403503
0.0398662
0.0400435
0.039874
0.0400522
0.0395927
0.039166
0.03902
0.0397484
0.0402099
0.0397266
0.0412923
0.0415772
0.044301
0.0454961
0.0482249
0.050555
0.0504015
0.0512328
0.0523521
0.0529949
0.054264
0.0550514
0.0551279
0.0559868
0.0570208
0.0581851
0.0590388
0.0589139
0.059726
0.0597233
0.0601437
0.0606843
0.0612999
0.0614931
0.0617138
0.0623824
0.0627267
0.0629302
0.0629735
0.0631812
0.0636097
0.0645076
0.064437
0.0649414
0.0652629
0.0657861
0.0657851
0.0659207
0.0657486
0.0653073
0.0649384
0.0650768
0.0648046
0.0642035
0.0645619
0.0644698
0.0641252
0.064527
0.0643151
0.0647415
0.0649146
0.065142
0.0653569
0.0652344
0.0654392
0.0659322
0.0655038
0.0656373
0.0642258
)
;

boundaryField
{
    inlet
    {
        type            fixedValue;
        value           uniform 0;
    }
    outlet
    {
        type            zeroGradient;
    }
    yzfaces
    {
        type            empty;
    }
}


// ************************************************************************* //
