/*--------------------------------*- C++ -*----------------------------------*\
| =========                 |                                                 |
| \\      /  F ield         | foam-extend: Open Source CFD                    |
|  \\    /   O peration     | Version:     5.0                                |
|   \\  /    A nd           | Web:         http://www.foam-extend.org         |
|    \\/     M anipulation  |                                                 |
\*---------------------------------------------------------------------------*/
FoamFile
{
    version     2.0;
    format      ascii;
    class       volScalarField;
    location    "30";
    object      H2O.gas;
}
// * * * * * * * * * * * * * * * * * * * * * * * * * * * * * * * * * * * * * //

dimensions      [0 0 0 0 0 0 0];

internalField   nonuniform List<scalar> 
100
(
0.000362183
0.000331605
0.00031296
0.000317574
0.000319781
0.000318328
0.000309308
0.000295668
0.000290807
0.00029386
0.000293963
0.000294533
0.000297131
0.000300053
0.000300961
0.00030043
0.000300611
0.000298783
0.000295912
0.000288895
0.000282532
0.000273864
0.00026549
0.000258791
0.000252119
0.000246169
0.000242426
0.000242049
0.000241907
0.000242021
0.000242475
0.000242931
0.000243167
0.00024373
0.000243734
0.000243763
0.000244391
0.000244967
0.000244197
0.000243276
0.000244255
0.000242255
0.000240295
0.000235207
0.000231661
0.000225892
0.000220555
0.000219017
0.000217172
0.000215287
0.000213717
0.000210957
0.000208549
0.00020736
0.000205311
0.00020284
0.000199949
0.000197451
0.000196506
0.000194596
0.000193608
0.000192124
0.000190614
0.000189029
0.000187629
0.000186457
0.000184969
0.000183965
0.000182971
0.000182206
0.000181018
0.000179395
0.000176954
0.000175671
0.000173807
0.000172324
0.000171171
0.000170883
0.000170179
0.000169741
0.00016931
0.000169379
0.000168886
0.000168736
0.000169033
0.000168603
0.000168692
0.000169112
0.000168849
0.000169113
0.000168641
0.000168549
0.00016825
0.000167964
0.000168271
0.000168037
0.000167592
0.000167784
0.000167757
0.000168379
)
;

boundaryField
{
    inlet
    {
        type            fixedValue;
        value           uniform 0;
    }
    outlet
    {
        type            zeroGradient;
    }
    yzfaces
    {
        type            empty;
    }
}


// ************************************************************************* //
