/*--------------------------------*- C++ -*----------------------------------*\
| =========                 |                                                 |
| \\      /  F ield         | foam-extend: Open Source CFD                    |
|  \\    /   O peration     | Version:     5.0                                |
|   \\  /    A nd           | Web:         http://www.foam-extend.org         |
|    \\/     M anipulation  |                                                 |
\*---------------------------------------------------------------------------*/
FoamFile
{
    version     2.0;
    format      ascii;
    class       volScalarField;
    location    "30";
    object      Na.water;
}
// * * * * * * * * * * * * * * * * * * * * * * * * * * * * * * * * * * * * * //

dimensions      [0 0 0 0 0 0 0];

internalField   nonuniform List<scalar> 
100
(
0.00259922
0.00207151
0.00360389
0.00636304
0.00769132
0.00812378
0.00871283
0.00967151
0.0120284
0.0123259
0.0123221
0.0126636
0.0123985
0.0122487
0.0126637
0.0128787
0.0132747
0.013151
0.0134622
0.0136032
0.0135779
0.0136415
0.0140505
0.0144681
0.0148077
0.0152367
0.015529
0.0157866
0.0162165
0.0162905
0.0161088
0.0157724
0.0161216
0.0163946
0.0167246
0.0166764
0.0166853
0.0167537
0.016632
0.016439
0.0165349
0.016508
0.0165628
0.0165615
0.0164809
0.0167357
0.0168512
0.0171729
0.0172941
0.0174537
0.0175073
0.0177032
0.0178508
0.0181683
0.0182902
0.0183555
0.018528
0.0186807
0.0188908
0.0190861
0.0190777
0.0192688
0.0195866
0.0197949
0.0199007
0.0199228
0.0200247
0.0200241
0.0202175
0.0203108
0.0204329
0.0206768
0.020894
0.0211794
0.0214717
0.0216447
0.0218271
0.0219893
0.0221093
0.0223009
0.0224836
0.022557
0.0226769
0.0228438
0.0229535
0.0230214
0.0230473
0.0229775
0.0229184
0.0228472
0.0227099
0.0226764
0.0226143
0.0226128
0.0225328
0.0224657
0.0224409
0.0223845
0.022433
0.0229501
)
;

boundaryField
{
    inlet
    {
        type            fixedValue;
        value           uniform 0;
    }
    outlet
    {
        type            zeroGradient;
    }
    yzfaces
    {
        type            empty;
    }
}


// ************************************************************************* //
