/*--------------------------------*- C++ -*----------------------------------*\
| =========                 |                                                 |
| \\      /  F ield         | foam-extend: Open Source CFD                    |
|  \\    /   O peration     | Version:     5.0                                |
|   \\  /    A nd           | Web:         http://www.foam-extend.org         |
|    \\/     M anipulation  |                                                 |
\*---------------------------------------------------------------------------*/
FoamFile
{
    version     2.0;
    format      ascii;
    class       volScalarField;
    location    "30";
    object      Na.water;
}
// * * * * * * * * * * * * * * * * * * * * * * * * * * * * * * * * * * * * * //

dimensions      [0 0 0 0 0 0 0];

internalField   nonuniform List<scalar> 
100
(
0.00254685
0.00213137
0.00343848
0.00624931
0.00750074
0.0083306
0.00887421
0.00977045
0.0112523
0.0122742
0.0121222
0.0122383
0.0127583
0.0132938
0.0133492
0.0131199
0.0132475
0.0132087
0.0134347
0.013543
0.0136428
0.0136738
0.0139917
0.0143267
0.0148807
0.015503
0.016099
0.0163309
0.0163799
0.0163429
0.0165867
0.0167219
0.0165657
0.0165063
0.0164175
0.0166388
0.0166924
0.0166185
0.0164418
0.0164366
0.0164354
0.0161579
0.016507
0.0164202
0.0167108
0.0167915
0.0169612
0.0174162
0.0174591
0.0173731
0.0174429
0.0174941
0.017707
0.0179547
0.018038
0.0181396
0.0182724
0.0184736
0.0187682
0.0188385
0.0190881
0.0192484
0.0193647
0.0194587
0.0197071
0.0198984
0.0199455
0.0200214
0.0201648
0.0203357
0.0205255
0.0207164
0.020871
0.0212263
0.0214387
0.0216529
0.0216789
0.0217456
0.0218576
0.0220555
0.0223854
0.0225539
0.0226077
0.0227831
0.0230038
0.0229227
0.0229529
0.0230189
0.0228842
0.0229235
0.0228406
0.0227819
0.0227374
0.022696
0.0226776
0.0226421
0.0225075
0.0226829
0.022627
0.0231757
)
;

boundaryField
{
    inlet
    {
        type            fixedValue;
        value           uniform 0;
    }
    outlet
    {
        type            zeroGradient;
    }
    yzfaces
    {
        type            empty;
    }
}


// ************************************************************************* //
