/*--------------------------------*- C++ -*----------------------------------*\
| =========                 |                                                 |
| \\      /  F ield         | foam-extend: Open Source CFD                    |
|  \\    /   O peration     | Version:     5.0                                |
|   \\  /    A nd           | Web:         http://www.foam-extend.org         |
|    \\/     M anipulation  |                                                 |
\*---------------------------------------------------------------------------*/
FoamFile
{
    version     2.0;
    format      ascii;
    class       surfaceScalarField;
    location    "30";
    object      phi;
}
// * * * * * * * * * * * * * * * * * * * * * * * * * * * * * * * * * * * * * //

dimensions      [0 3 -1 0 0 0 0];

internalField   nonuniform List<scalar> 
99
(
1.22217e-06
1.22823e-06
1.24052e-06
1.2379e-06
1.24549e-06
1.24954e-06
1.24805e-06
1.2403e-06
1.24961e-06
1.24674e-06
1.25457e-06
1.25177e-06
1.25407e-06
1.26323e-06
1.26552e-06
1.27466e-06
1.27567e-06
1.28343e-06
1.26052e-06
1.25984e-06
1.24777e-06
1.24695e-06
1.24466e-06
1.23718e-06
1.24019e-06
1.24034e-06
1.24562e-06
1.24894e-06
1.24644e-06
1.25158e-06
1.24599e-06
1.24123e-06
1.23988e-06
1.24397e-06
1.24674e-06
1.25261e-06
1.2523e-06
1.25711e-06
1.25694e-06
1.26396e-06
1.27499e-06
1.27614e-06
1.27159e-06
1.24928e-06
1.24002e-06
1.23632e-06
1.24342e-06
1.24114e-06
1.2472e-06
1.25992e-06
1.25301e-06
1.24929e-06
1.24542e-06
1.24797e-06
1.24417e-06
1.24348e-06
1.24651e-06
1.25318e-06
1.25442e-06
1.26336e-06
1.26258e-06
1.26197e-06
1.26261e-06
1.26711e-06
1.27061e-06
1.27039e-06
1.27285e-06
1.26798e-06
1.26967e-06
1.26493e-06
1.266e-06
1.26677e-06
1.26567e-06
1.25949e-06
1.26196e-06
1.26973e-06
1.27244e-06
1.2752e-06
1.2775e-06
1.27206e-06
1.2742e-06
1.28152e-06
1.28723e-06
1.2944e-06
1.29992e-06
1.30473e-06
1.31497e-06
1.31352e-06
1.3117e-06
1.31453e-06
1.31874e-06
1.32283e-06
1.31746e-06
1.31178e-06
1.30435e-06
1.29724e-06
1.29735e-06
1.29532e-06
1.28934e-06
)
;

boundaryField
{
    inlet
    {
        type            calculated;
        value           uniform -1.225e-06;
    }
    outlet
    {
        type            calculated;
        value           uniform 1.29147e-06;
    }
    yzfaces
    {
        type            empty;
    }
}


// ************************************************************************* //
