/*--------------------------------*- C++ -*----------------------------------*\
| =========                 |                                                 |
| \\      /  F ield         | foam-extend: Open Source CFD                    |
|  \\    /   O peration     | Version:     5.0                                |
|   \\  /    A nd           | Web:         http://www.foam-extend.org         |
|    \\/     M anipulation  |                                                 |
\*---------------------------------------------------------------------------*/
FoamFile
{
    version     2.0;
    format      ascii;
    class       surfaceScalarField;
    location    "30";
    object      phi;
}
// * * * * * * * * * * * * * * * * * * * * * * * * * * * * * * * * * * * * * //

dimensions      [0 3 -1 0 0 0 0];

internalField   nonuniform List<scalar> 
99
(
1.21895e-06
1.23065e-06
1.23414e-06
1.2349e-06
1.23556e-06
1.22651e-06
1.22127e-06
1.24048e-06
1.23855e-06
1.23502e-06
1.22277e-06
1.2154e-06
1.21964e-06
1.22976e-06
1.23608e-06
1.23758e-06
1.2283e-06
1.20875e-06
1.20486e-06
1.18448e-06
1.16908e-06
1.16009e-06
1.158e-06
1.14824e-06
1.14538e-06
1.14584e-06
1.14872e-06
1.15908e-06
1.16279e-06
1.16526e-06
1.16288e-06
1.17262e-06
1.16867e-06
1.17217e-06
1.16881e-06
1.17959e-06
1.19364e-06
1.19347e-06
1.20715e-06
1.21219e-06
1.21899e-06
1.20475e-06
1.19588e-06
1.18897e-06
1.17675e-06
1.16869e-06
1.15553e-06
1.15542e-06
1.15315e-06
1.14766e-06
1.14675e-06
1.13862e-06
1.13711e-06
1.132e-06
1.13475e-06
1.13096e-06
1.13239e-06
1.13777e-06
1.13522e-06
1.12574e-06
1.13365e-06
1.12822e-06
1.12969e-06
1.13094e-06
1.13269e-06
1.12525e-06
1.12561e-06
1.13233e-06
1.12857e-06
1.13521e-06
1.12852e-06
1.1267e-06
1.13417e-06
1.13705e-06
1.13699e-06
1.14625e-06
1.14538e-06
1.13965e-06
1.14323e-06
1.14821e-06
1.14079e-06
1.13581e-06
1.13497e-06
1.13207e-06
1.12456e-06
1.12314e-06
1.12386e-06
1.12469e-06
1.12723e-06
1.12046e-06
1.12777e-06
1.12549e-06
1.12508e-06
1.12298e-06
1.11971e-06
1.12104e-06
1.12139e-06
1.12232e-06
1.12227e-06
)
;

boundaryField
{
    inlet
    {
        type            calculated;
        value           uniform -1.225e-06;
    }
    outlet
    {
        type            calculated;
        value           uniform 1.11877e-06;
    }
    yzfaces
    {
        type            empty;
    }
}


// ************************************************************************* //
