/*--------------------------------*- C++ -*----------------------------------*\
| =========                 |                                                 |
| \\      /  F ield         | foam-extend: Open Source CFD                    |
|  \\    /   O peration     | Version:     5.0                                |
|   \\  /    A nd           | Web:         http://www.foam-extend.org         |
|    \\/     M anipulation  |                                                 |
\*---------------------------------------------------------------------------*/
FoamFile
{
    version     2.0;
    format      ascii;
    class       surfaceScalarField;
    location    "30";
    object      phi.water;
}
// * * * * * * * * * * * * * * * * * * * * * * * * * * * * * * * * * * * * * //

dimensions      [0 3 -1 0 0 0 0];

internalField   nonuniform List<scalar> 
99
(
1.74627e-08
6.45456e-08
1.09837e-07
9.67231e-08
8.69544e-08
9.03768e-08
1.0475e-07
1.48283e-07
1.50538e-07
1.4765e-07
1.47459e-07
1.41279e-07
1.4144e-07
1.4361e-07
1.40588e-07
1.40259e-07
1.31656e-07
1.36961e-07
1.4104e-07
1.50474e-07
1.63458e-07
1.864e-07
2.18233e-07
2.40641e-07
2.55513e-07
2.78792e-07
2.96746e-07
3.18349e-07
3.23861e-07
3.22903e-07
3.20817e-07
3.29249e-07
3.24556e-07
3.2465e-07
3.14758e-07
3.1221e-07
3.15618e-07
3.147e-07
3.17785e-07
3.21308e-07
3.22244e-07
3.23748e-07
3.34656e-07
3.38925e-07
3.51413e-07
3.67264e-07
3.92282e-07
4.20418e-07
4.45803e-07
4.59108e-07
4.7109e-07
4.82964e-07
5.03878e-07
5.07016e-07
5.24769e-07
5.40235e-07
5.54234e-07
5.82383e-07
5.97916e-07
6.05177e-07
6.24019e-07
6.3942e-07
6.50124e-07
6.62502e-07
6.67585e-07
6.7323e-07
6.84608e-07
7.0403e-07
7.10056e-07
7.28915e-07
7.42062e-07
7.56151e-07
7.93572e-07
8.09731e-07
8.28264e-07
8.61183e-07
8.72536e-07
8.7602e-07
8.8565e-07
8.97546e-07
8.92989e-07
8.96253e-07
9.05486e-07
9.01163e-07
8.97424e-07
8.93901e-07
8.92226e-07
8.93668e-07
8.94247e-07
8.90414e-07
9.0198e-07
8.97501e-07
9.00076e-07
8.93023e-07
8.99966e-07
9.01934e-07
8.99639e-07
9.02464e-07
9.12865e-07
)
;

boundaryField
{
    inlet
    {
        type            fixedValue;
        value           uniform 0;
    }
    outlet
    {
        type            calculated;
        value           uniform 8.95958e-07;
    }
    yzfaces
    {
        type            empty;
    }
}


// ************************************************************************* //
