/*--------------------------------*- C++ -*----------------------------------*\
| =========                 |                                                 |
| \\      /  F ield         | foam-extend: Open Source CFD                    |
|  \\    /   O peration     | Version:     5.0                                |
|   \\  /    A nd           | Web:         http://www.foam-extend.org         |
|    \\/     M anipulation  |                                                 |
\*---------------------------------------------------------------------------*/
FoamFile
{
    version     2.0;
    format      ascii;
    class       volVectorField;
    location    "30";
    object      U.gas;
}
// * * * * * * * * * * * * * * * * * * * * * * * * * * * * * * * * * * * * * //

dimensions      [0 1 -1 0 0 0 0];

internalField   nonuniform List<vector> 
100
(
(0.00535911 0 0)
(0.00588841 0 0)
(0.00623933 0 0)
(0.00613797 0 0)
(0.00608971 0 0)
(0.00614003 0 0)
(0.0062788 0 0)
(0.00660688 0 0)
(0.00665999 0 0)
(0.00663172 0 0)
(0.0065849 0 0)
(0.00649468 0 0)
(0.00648455 0 0)
(0.00652387 0 0)
(0.0065419 0 0)
(0.00655179 0 0)
(0.00649801 0 0)
(0.00648388 0 0)
(0.00647527 0 0)
(0.00651733 0 0)
(0.00656015 0 0)
(0.00668489 0 0)
(0.0068746 0 0)
(0.00699095 0 0)
(0.00706126 0 0)
(0.00719537 0 0)
(0.0073079 0 0)
(0.00744443 0 0)
(0.00750619 0 0)
(0.00751478 0 0)
(0.00751221 0 0)
(0.00756654 0 0)
(0.00756167 0 0)
(0.00754542 0 0)
(0.00749226 0 0)
(0.00749431 0 0)
(0.00757477 0 0)
(0.0076087 0 0)
(0.00765723 0 0)
(0.00772779 0 0)
(0.00776433 0 0)
(0.00778864 0 0)
(0.00778312 0 0)
(0.00778337 0 0)
(0.00782004 0 0)
(0.00786334 0 0)
(0.00795392 0 0)
(0.00804991 0 0)
(0.00816597 0 0)
(0.00820325 0 0)
(0.00824722 0 0)
(0.00828687 0 0)
(0.00834568 0 0)
(0.0083496 0 0)
(0.00841298 0 0)
(0.00848577 0 0)
(0.00854062 0 0)
(0.00867415 0 0)
(0.00874727 0 0)
(0.00874962 0 0)
(0.00880602 0 0)
(0.00888358 0 0)
(0.00889848 0 0)
(0.00894902 0 0)
(0.00898685 0 0)
(0.00900107 0 0)
(0.00901306 0 0)
(0.00909792 0 0)
(0.00913884 0 0)
(0.0092158 0 0)
(0.00927626 0 0)
(0.0092971 0 0)
(0.00943202 0 0)
(0.00952086 0 0)
(0.00959109 0 0)
(0.00971565 0 0)
(0.0097804 0 0)
(0.00976821 0 0)
(0.00978227 0 0)
(0.00984306 0 0)
(0.00983197 0 0)
(0.00980351 0 0)
(0.00981185 0 0)
(0.00978974 0 0)
(0.00974341 0 0)
(0.00969829 0 0)
(0.00968963 0 0)
(0.00969549 0 0)
(0.00970956 0 0)
(0.00969204 0 0)
(0.00971675 0 0)
(0.00973073 0 0)
(0.00972535 0 0)
(0.00969657 0 0)
(0.0097086 0 0)
(0.00969326 0 0)
(0.0096964 0 0)
(0.00971262 0 0)
(0.00974462 0 0)
(0.00968726 0 0)
)
;

boundaryField
{
    inlet
    {
        type            fixedValue;
        value           uniform (0.005 0 0);
    }
    outlet
    {
        type            zeroGradient;
    }
    yzfaces
    {
        type            empty;
    }
}


// ************************************************************************* //
