/*--------------------------------*- C++ -*----------------------------------*\
| =========                 |                                                 |
| \\      /  F ield         | foam-extend: Open Source CFD                    |
|  \\    /   O peration     | Version:     5.0                                |
|   \\  /    A nd           | Web:         http://www.foam-extend.org         |
|    \\/     M anipulation  |                                                 |
\*---------------------------------------------------------------------------*/
FoamFile
{
    version     2.0;
    format      ascii;
    class       volVectorField;
    location    "30";
    object      U.gas;
}
// * * * * * * * * * * * * * * * * * * * * * * * * * * * * * * * * * * * * * //

dimensions      [0 1 -1 0 0 0 0];

internalField   nonuniform List<vector> 
100
(
(0.00536995 0 0)
(0.00586778 0 0)
(0.00625432 0 0)
(0.00618395 0 0)
(0.00615572 0 0)
(0.00621305 0 0)
(0.00639723 0 0)
(0.00665805 0 0)
(0.00676434 0 0)
(0.00671043 0 0)
(0.00672322 0 0)
(0.00672409 0 0)
(0.00666575 0 0)
(0.00663381 0 0)
(0.00664569 0 0)
(0.00668771 0 0)
(0.00671026 0 0)
(0.0067737 0 0)
(0.00679651 0 0)
(0.00689135 0 0)
(0.00700235 0 0)
(0.00717535 0 0)
(0.00737697 0 0)
(0.00752205 0 0)
(0.00769005 0 0)
(0.00786736 0 0)
(0.00799051 0 0)
(0.00802355 0 0)
(0.00803007 0 0)
(0.00803486 0 0)
(0.00801954 0 0)
(0.00797271 0 0)
(0.00794624 0 0)
(0.00793807 0 0)
(0.00796112 0 0)
(0.00798777 0 0)
(0.00798597 0 0)
(0.00798361 0 0)
(0.00802306 0 0)
(0.00807243 0 0)
(0.00809804 0 0)
(0.00820251 0 0)
(0.00825113 0 0)
(0.00832649 0 0)
(0.00832981 0 0)
(0.008476 0 0)
(0.00866347 0 0)
(0.00872156 0 0)
(0.00879879 0 0)
(0.00893129 0 0)
(0.00900608 0 0)
(0.00906978 0 0)
(0.00912747 0 0)
(0.00916106 0 0)
(0.00923509 0 0)
(0.00931194 0 0)
(0.00943133 0 0)
(0.00956207 0 0)
(0.00962156 0 0)
(0.00974018 0 0)
(0.009806 0 0)
(0.0098627 0 0)
(0.00992305 0 0)
(0.0100078 0 0)
(0.0100967 0 0)
(0.0101569 0 0)
(0.0102296 0 0)
(0.0102588 0 0)
(0.0102875 0 0)
(0.0103052 0 0)
(0.0103435 0 0)
(0.0104238 0 0)
(0.0105339 0 0)
(0.0105497 0 0)
(0.01062 0 0)
(0.0107254 0 0)
(0.0108184 0 0)
(0.0108463 0 0)
(0.0109028 0 0)
(0.0109056 0 0)
(0.0109103 0 0)
(0.0109429 0 0)
(0.0110273 0 0)
(0.0110862 0 0)
(0.0111225 0 0)
(0.0111933 0 0)
(0.0112479 0 0)
(0.0112631 0 0)
(0.0112687 0 0)
(0.0112552 0 0)
(0.011315 0 0)
(0.0113508 0 0)
(0.0113613 0 0)
(0.0113269 0 0)
(0.0112493 0 0)
(0.0112028 0 0)
(0.0111956 0 0)
(0.0111723 0 0)
(0.011141 0 0)
(0.0110918 0 0)
)
;

boundaryField
{
    inlet
    {
        type            fixedValue;
        value           uniform (0.005 0 0);
    }
    outlet
    {
        type            zeroGradient;
    }
    yzfaces
    {
        type            empty;
    }
}


// ************************************************************************* //
