/*--------------------------------*- C++ -*----------------------------------*\
| =========                 |                                                 |
| \\      /  F ield         | foam-extend: Open Source CFD                    |
|  \\    /   O peration     | Version:     5.0                                |
|   \\  /    A nd           | Web:         http://www.foam-extend.org         |
|    \\/     M anipulation  |                                                 |
\*---------------------------------------------------------------------------*/
FoamFile
{
    version     2.0;
    format      ascii;
    class       volVectorField;
    location    "30";
    object      U.water;
}
// * * * * * * * * * * * * * * * * * * * * * * * * * * * * * * * * * * * * * //

dimensions      [0 1 -1 0 0 0 0];

internalField   nonuniform List<vector> 
100
(
(1.15265e-05 0 0)
(3.45644e-05 0 0)
(6.55923e-05 0 0)
(8.61804e-05 0 0)
(7.93354e-05 0 0)
(7.69452e-05 0 0)
(8.20677e-05 0 0)
(0.000100025 0 0)
(0.000122368 0 0)
(0.000129494 0 0)
(0.000124288 0 0)
(0.000124107 0 0)
(0.000121931 0 0)
(0.000117075 0 0)
(0.00011258 0 0)
(0.000111838 0 0)
(0.000113 0 0)
(0.000113857 0 0)
(0.000117414 0 0)
(0.000124458 0 0)
(0.000139029 0 0)
(0.000155219 0 0)
(0.00017771 0 0)
(0.000199986 0 0)
(0.000221425 0 0)
(0.000244445 0 0)
(0.000264815 0 0)
(0.000276706 0 0)
(0.000277927 0 0)
(0.000278306 0 0)
(0.000277176 0 0)
(0.000274577 0 0)
(0.000272936 0 0)
(0.000271942 0 0)
(0.000270565 0 0)
(0.000271597 0 0)
(0.000271717 0 0)
(0.000269674 0 0)
(0.000269648 0 0)
(0.000273571 0 0)
(0.000276741 0 0)
(0.000276856 0 0)
(0.000284515 0 0)
(0.000293915 0 0)
(0.000310503 0 0)
(0.000328516 0 0)
(0.00035713 0 0)
(0.000379882 0 0)
(0.000389339 0 0)
(0.000402296 0 0)
(0.000413845 0 0)
(0.000424093 0 0)
(0.000439285 0 0)
(0.000451998 0 0)
(0.000460954 0 0)
(0.000474477 0 0)
(0.000493181 0 0)
(0.000515137 0 0)
(0.000531457 0 0)
(0.0005436 0 0)
(0.000558048 0 0)
(0.000566792 0 0)
(0.000579651 0 0)
(0.000593944 0 0)
(0.00060818 0 0)
(0.000620481 0 0)
(0.00063273 0 0)
(0.000644171 0 0)
(0.000652826 0 0)
(0.000661185 0 0)
(0.000668906 0 0)
(0.000682045 0 0)
(0.000700929 0 0)
(0.000719887 0 0)
(0.000734577 0 0)
(0.000755887 0 0)
(0.000773826 0 0)
(0.000785101 0 0)
(0.000791892 0 0)
(0.000798497 0 0)
(0.00080281 0 0)
(0.000808744 0 0)
(0.000813734 0 0)
(0.000821967 0 0)
(0.000826085 0 0)
(0.000829258 0 0)
(0.000837577 0 0)
(0.000837706 0 0)
(0.000834092 0 0)
(0.000835562 0 0)
(0.000837611 0 0)
(0.000844419 0 0)
(0.00084605 0 0)
(0.00084606 0 0)
(0.000843416 0 0)
(0.000837592 0 0)
(0.000838718 0 0)
(0.000840465 0 0)
(0.000836693 0 0)
(0.000831352 0 0)
)
;

boundaryField
{
    inlet
    {
        type            fixedValue;
        value           uniform (0 0 0);
    }
    outlet
    {
        type            zeroGradient;
    }
    yzfaces
    {
        type            empty;
    }
}


// ************************************************************************* //
