/*--------------------------------*- C++ -*----------------------------------*\
| =========                 |                                                 |
| \\      /  F ield         | foam-extend: Open Source CFD                    |
|  \\    /   O peration     | Version:     5.0                                |
|   \\  /    A nd           | Web:         http://www.foam-extend.org         |
|    \\/     M anipulation  |                                                 |
\*---------------------------------------------------------------------------*/
FoamFile
{
    version     2.0;
    format      ascii;
    class       volVectorField;
    location    "30";
    object      U.water;
}
// * * * * * * * * * * * * * * * * * * * * * * * * * * * * * * * * * * * * * //

dimensions      [0 1 -1 0 0 0 0];

internalField   nonuniform List<vector> 
100
(
(1.13467e-05 0 0)
(3.53004e-05 0 0)
(6.65535e-05 0 0)
(8.53253e-05 0 0)
(7.68418e-05 0 0)
(7.38148e-05 0 0)
(8.12993e-05 0 0)
(0.000100201 0 0)
(0.000121551 0 0)
(0.000121985 0 0)
(0.000120086 0 0)
(0.000118382 0 0)
(0.000115447 0 0)
(0.000115901 0 0)
(0.000116123 0 0)
(0.00011432 0 0)
(0.000112497 0 0)
(0.000109743 0 0)
(0.000114367 0 0)
(0.00011973 0 0)
(0.000129236 0 0)
(0.000143595 0 0)
(0.000164616 0 0)
(0.000186934 0 0)
(0.000203087 0 0)
(0.000217677 0 0)
(0.000234771 0 0)
(0.00024976 0 0)
(0.000261427 0 0)
(0.000263947 0 0)
(0.000263215 0 0)
(0.000264593 0 0)
(0.000266967 0 0)
(0.000264397 0 0)
(0.000261415 0 0)
(0.000256072 0 0)
(0.000255902 0 0)
(0.000257388 0 0)
(0.000258037 0 0)
(0.000260409 0 0)
(0.000263308 0 0)
(0.000264172 0 0)
(0.000268652 0 0)
(0.000275769 0 0)
(0.000282326 0 0)
(0.000294464 0 0)
(0.000310124 0 0)
(0.000331739 0 0)
(0.000352874 0 0)
(0.000369488 0 0)
(0.000380125 0 0)
(0.00039019 0 0)
(0.000402142 0 0)
(0.000413355 0 0)
(0.000421292 0 0)
(0.000434466 0 0)
(0.000447272 0 0)
(0.000463271 0 0)
(0.000481652 0 0)
(0.000491428 0 0)
(0.000501832 0 0)
(0.000514957 0 0)
(0.000526106 0 0)
(0.000535264 0 0)
(0.000543084 0 0)
(0.000547577 0 0)
(0.000554382 0 0)
(0.000566066 0 0)
(0.000577495 0 0)
(0.000587354 0 0)
(0.000600513 0 0)
(0.000612347 0 0)
(0.000631287 0 0)
(0.000654147 0 0)
(0.000668601 0 0)
(0.00068831 0 0)
(0.000707259 0 0)
(0.00071386 0 0)
(0.000718939 0 0)
(0.000727336 0 0)
(0.000731359 0 0)
(0.000730753 0 0)
(0.000735133 0 0)
(0.000737924 0 0)
(0.000734441 0 0)
(0.000731214 0 0)
(0.000728951 0 0)
(0.00072868 0 0)
(0.0007296 0 0)
(0.000728617 0 0)
(0.000730865 0 0)
(0.000734517 0 0)
(0.000733294 0 0)
(0.000732624 0 0)
(0.000731276 0 0)
(0.000735357 0 0)
(0.000735416 0 0)
(0.000735856 0 0)
(0.000739945 0 0)
(0.000739204 0 0)
)
;

boundaryField
{
    inlet
    {
        type            fixedValue;
        value           uniform (0 0 0);
    }
    outlet
    {
        type            zeroGradient;
    }
    yzfaces
    {
        type            empty;
    }
}


// ************************************************************************* //
