/*--------------------------------*- C++ -*----------------------------------*\
| =========                 |                                                 |
| \\      /  F ield         | foam-extend: Open Source CFD                    |
|  \\    /   O peration     | Version:     5.0                                |
|   \\  /    A nd           | Web:         http://www.foam-extend.org         |
|    \\/     M anipulation  |                                                 |
\*---------------------------------------------------------------------------*/
FoamFile
{
    version     2.0;
    format      ascii;
    class       volScalarField;
    location    "1";
    object      alpha.gas;
}
// * * * * * * * * * * * * * * * * * * * * * * * * * * * * * * * * * * * * * //

dimensions      [0 0 0 0 0 0 0];

internalField   nonuniform List<scalar> 
100
(
0.147119
0.131316
0.121181
0.113797
0.10802
0.103334
0.0993881
0.0959971
0.0930334
0.0903972
0.0880372
0.0858971
0.0839721
0.0821798
0.0805373
0.0790357
0.077623
0.0762824
0.0750386
0.0738714
0.0727642
0.0717188
0.0707348
0.0697876
0.0688891
0.0680383
0.0672305
0.0664676
0.0657092
0.0649858
0.0642853
0.0636211
0.062985
0.0623488
0.0617395
0.0611428
0.0605591
0.0600049
0.0594688
0.0589466
0.0584429
0.0579467
0.0574586
0.0569938
0.0565431
0.0561019
0.0556634
0.0552455
0.0548402
0.0544431
0.0540603
0.0536763
0.0532984
0.0529297
0.0525587
0.0522063
0.0518462
0.0515015
0.0511715
0.0508421
0.0505202
0.0502007
0.0498917
0.0495902
0.0492921
0.0490041
0.0487195
0.048442
0.0481676
0.0478953
0.0476319
0.0473661
0.047107
0.0468507
0.0465941
0.0463484
0.0461073
0.0458661
0.0456202
0.0453739
0.0451307
0.0448981
0.0446623
0.0444336
0.0442078
0.0439892
0.0437699
0.0435515
0.0433407
0.043127
0.0429229
0.0427219
0.0425208
0.0423215
0.0421244
0.04193
0.0417336
0.0415405
0.0413504
0.0411633
)
;

boundaryField
{
    inlet
    {
        type            fixedValue;
        value           uniform 0.2;
    }
    outlet
    {
        type            zeroGradient;
    }
    yzfaces
    {
        type            empty;
    }
}


// ************************************************************************* //
