/*--------------------------------*- C++ -*----------------------------------*\
| =========                 |                                                 |
| \\      /  F ield         | foam-extend: Open Source CFD                    |
|  \\    /   O peration     | Version:     5.0                                |
|   \\  /    A nd           | Web:         http://www.foam-extend.org         |
|    \\/     M anipulation  |                                                 |
\*---------------------------------------------------------------------------*/
FoamFile
{
    version     2.0;
    format      ascii;
    class       volScalarField;
    location    "1";
    object      CO2.gas;
}
// * * * * * * * * * * * * * * * * * * * * * * * * * * * * * * * * * * * * * //

dimensions      [0 0 0 0 0 0 0];

internalField   nonuniform List<scalar> 
100
(
0.147094
0.131308
0.12117
0.113795
0.10802
0.103362
0.0994162
0.0960306
0.0930639
0.0904164
0.0880552
0.0859007
0.0839854
0.0821875
0.0805355
0.0790443
0.077633
0.0762824
0.0750393
0.0738728
0.0727647
0.0717237
0.0707467
0.0697998
0.0688985
0.068055
0.0672515
0.0664949
0.0657311
0.0650083
0.0643026
0.0636393
0.0630045
0.0623619
0.0617493
0.0611523
0.0605667
0.0600132
0.0594766
0.0589495
0.0584455
0.057949
0.0574579
0.0569962
0.0565453
0.0561079
0.0556672
0.05525
0.0548472
0.054447
0.0540677
0.0536814
0.0533027
0.0529321
0.0525617
0.0522116
0.0518493
0.0515048
0.051179
0.0508476
0.050529
0.050206
0.0499011
0.049598
0.0493021
0.0490157
0.0487282
0.0484506
0.048174
0.047901
0.0476387
0.0473714
0.0471113
0.0468563
0.0465977
0.0463547
0.0461127
0.0458694
0.0456209
0.045374
0.0451304
0.0449012
0.0446627
0.0444367
0.0442094
0.0439915
0.0437737
0.043553
0.043341
0.0431263
0.0429227
0.0427208
0.0425171
0.0423185
0.0421207
0.0419275
0.0417287
0.041535
0.0413457
0.041158
)
;

boundaryField
{
    inlet
    {
        type            fixedValue;
        value           uniform 0.2;
    }
    outlet
    {
        type            zeroGradient;
    }
    yzfaces
    {
        type            empty;
    }
}


// ************************************************************************* //
