/*--------------------------------*- C++ -*----------------------------------*\
| =========                 |                                                 |
| \\      /  F ield         | foam-extend: Open Source CFD                    |
|  \\    /   O peration     | Version:     5.0                                |
|   \\  /    A nd           | Web:         http://www.foam-extend.org         |
|    \\/     M anipulation  |                                                 |
\*---------------------------------------------------------------------------*/
FoamFile
{
    version     2.0;
    format      ascii;
    class       surfaceScalarField;
    location    "1";
    object      phi;
}
// * * * * * * * * * * * * * * * * * * * * * * * * * * * * * * * * * * * * * //

dimensions      [0 3 -1 0 0 0 0];

internalField   nonuniform List<scalar> 
99
(
1.22471e-05
1.22519e-05
1.22521e-05
1.22564e-05
1.22661e-05
1.22742e-05
1.22763e-05
1.22699e-05
1.22694e-05
1.22745e-05
1.22699e-05
1.22731e-05
1.22685e-05
1.22682e-05
1.22707e-05
1.22764e-05
1.22718e-05
1.22723e-05
1.22726e-05
1.22769e-05
1.22748e-05
1.22764e-05
1.22731e-05
1.22719e-05
1.22711e-05
1.22722e-05
1.22684e-05
1.22692e-05
1.22689e-05
1.22685e-05
1.22668e-05
1.22688e-05
1.22698e-05
1.22686e-05
1.22679e-05
1.22637e-05
1.22652e-05
1.22612e-05
1.22651e-05
1.22635e-05
1.22644e-05
1.22622e-05
1.22649e-05
1.22633e-05
1.22654e-05
1.22645e-05
1.22661e-05
1.2267e-05
1.22678e-05
1.22651e-05
1.22646e-05
1.2263e-05
1.22631e-05
1.22622e-05
1.22627e-05
1.22609e-05
1.22621e-05
1.22609e-05
1.22616e-05
1.22589e-05
1.22606e-05
1.22605e-05
1.22616e-05
1.22631e-05
1.22629e-05
1.22636e-05
1.22602e-05
1.22613e-05
1.22608e-05
1.22599e-05
1.22584e-05
1.22589e-05
1.22574e-05
1.22586e-05
1.22597e-05
1.22602e-05
1.22591e-05
1.22575e-05
1.22589e-05
1.22603e-05
1.22624e-05
1.22634e-05
1.22651e-05
1.22646e-05
1.22655e-05
1.22666e-05
1.22665e-05
1.22655e-05
1.22652e-05
1.2265e-05
1.22646e-05
1.22644e-05
1.2265e-05
1.22641e-05
1.2264e-05
1.22621e-05
1.22625e-05
1.22613e-05
1.22621e-05
)
;

boundaryField
{
    inlet
    {
        type            calculated;
        value           uniform -1.225e-05;
    }
    outlet
    {
        type            calculated;
        value           uniform 1.22587e-05;
    }
    yzfaces
    {
        type            empty;
    }
}


// ************************************************************************* //
