/*--------------------------------*- C++ -*----------------------------------*\
| =========                 |                                                 |
| \\      /  F ield         | foam-extend: Open Source CFD                    |
|  \\    /   O peration     | Version:     5.0                                |
|   \\  /    A nd           | Web:         http://www.foam-extend.org         |
|    \\/     M anipulation  |                                                 |
\*---------------------------------------------------------------------------*/
FoamFile
{
    version     2.0;
    format      ascii;
    class       surfaceScalarField;
    location    "1";
    object      phi.gas;
}
// * * * * * * * * * * * * * * * * * * * * * * * * * * * * * * * * * * * * * //

dimensions      [0 3 -1 0 0 0 0];

internalField   nonuniform List<scalar> 
99
(
8.7782e-05
9.6588e-05
0.000103518
0.000109405
0.000114594
0.000119224
0.000123397
0.000127149
0.000130699
0.000134082
0.000137165
0.000140134
0.000142859
0.000145521
0.000148055
0.000150505
0.000152778
0.000155024
0.000157159
0.000159274
0.000161231
0.000163151
0.000164953
0.000166741
0.000168459
0.000170135
0.000171673
0.000173272
0.000174834
0.000176355
0.000177809
0.000179257
0.000180694
0.000182083
0.000183448
0.000184741
0.000186074
0.000187284
0.000188598
0.000189801
0.000191014
0.000192177
0.000193375
0.000194467
0.000195596
0.000196676
0.000197771
0.000198816
0.000199849
0.000200794
0.000201771
0.000202732
0.000203705
0.000204661
0.000205606
0.000206519
0.000207466
0.000208328
0.000209216
0.000210033
0.000210924
0.000211763
0.000212594
0.000213433
0.00021421
0.000215007
0.000215717
0.000216494
0.000217242
0.000217959
0.000218663
0.000219399
0.000220081
0.000220816
0.000221522
0.000222199
0.000222859
0.000223522
0.000224244
0.000224954
0.000225639
0.000226313
0.000226987
0.000227607
0.000228237
0.000228867
0.000229477
0.00023006
0.000230656
0.000231222
0.000231781
0.000232346
0.000232919
0.000233452
0.000233986
0.000234496
0.00023505
0.000235552
0.000236086
)
;

boundaryField
{
    inlet
    {
        type            fixedValue;
        value           uniform -6.125e-05;
    }
    outlet
    {
        type            calculated;
        value           uniform 0.000235996;
    }
    yzfaces
    {
        type            empty;
    }
}


// ************************************************************************* //
