/*--------------------------------*- C++ -*----------------------------------*\
| =========                 |                                                 |
| \\      /  F ield         | foam-extend: Open Source CFD                    |
|  \\    /   O peration     | Version:     5.0                                |
|   \\  /    A nd           | Web:         http://www.foam-extend.org         |
|    \\/     M anipulation  |                                                 |
\*---------------------------------------------------------------------------*/
FoamFile
{
    version     2.0;
    format      ascii;
    class       volVectorField;
    location    "1";
    object      U.water;
}
// * * * * * * * * * * * * * * * * * * * * * * * * * * * * * * * * * * * * * //

dimensions      [0 1 -1 0 0 0 0];

internalField   nonuniform List<vector> 
100
(
(0.000214416 0 0)
(0.00051393 0 0)
(0.000772864 0 0)
(0.00100899 0 0)
(0.00122975 0 0)
(0.00143866 0 0)
(0.00163762 0 0)
(0.00182842 0 0)
(0.00201231 0 0)
(0.00219172 0 0)
(0.00236643 0 0)
(0.00253712 0 0)
(0.00270347 0 0)
(0.00286562 0 0)
(0.00302629 0 0)
(0.00318337 0 0)
(0.00333648 0 0)
(0.00348833 0 0)
(0.00363918 0 0)
(0.00378708 0 0)
(0.00393262 0 0)
(0.00407632 0 0)
(0.00421756 0 0)
(0.00435671 0 0)
(0.00449555 0 0)
(0.00463207 0 0)
(0.00476531 0 0)
(0.00489608 0 0)
(0.00502652 0 0)
(0.00515796 0 0)
(0.00528823 0 0)
(0.00541748 0 0)
(0.00554456 0 0)
(0.00567123 0 0)
(0.00579845 0 0)
(0.00592414 0 0)
(0.00605128 0 0)
(0.00617735 0 0)
(0.00630153 0 0)
(0.00642502 0 0)
(0.00654694 0 0)
(0.00666826 0 0)
(0.00679064 0 0)
(0.00691216 0 0)
(0.0070316 0 0)
(0.00715066 0 0)
(0.00726959 0 0)
(0.00738876 0 0)
(0.00750493 0 0)
(0.00761931 0 0)
(0.00773279 0 0)
(0.00784594 0 0)
(0.00796079 0 0)
(0.00807555 0 0)
(0.00819056 0 0)
(0.00830541 0 0)
(0.0084207 0 0)
(0.00853683 0 0)
(0.00864944 0 0)
(0.00876107 0 0)
(0.00887334 0 0)
(0.008986 0 0)
(0.00909864 0 0)
(0.00921016 0 0)
(0.0093205 0 0)
(0.00942963 0 0)
(0.00953632 0 0)
(0.00964317 0 0)
(0.00975035 0 0)
(0.00985671 0 0)
(0.00996224 0 0)
(0.0100682 0 0)
(0.0101747 0 0)
(0.0102811 0 0)
(0.0103894 0 0)
(0.0104964 0 0)
(0.0106002 0 0)
(0.0107036 0 0)
(0.0108103 0 0)
(0.0109204 0 0)
(0.0110317 0 0)
(0.0111416 0 0)
(0.0112504 0 0)
(0.0113588 0 0)
(0.0114659 0 0)
(0.0115727 0 0)
(0.0116782 0 0)
(0.011784 0 0)
(0.0118889 0 0)
(0.0119941 0 0)
(0.0120986 0 0)
(0.0122008 0 0)
(0.0123039 0 0)
(0.012407 0 0)
(0.0125101 0 0)
(0.0126126 0 0)
(0.0127155 0 0)
(0.0128195 0 0)
(0.0129228 0 0)
(0.0130249 0 0)
)
;

boundaryField
{
    inlet
    {
        type            fixedValue;
        value           uniform (0 0 0);
    }
    outlet
    {
        type            zeroGradient;
    }
    yzfaces
    {
        type            empty;
    }
}


// ************************************************************************* //
