/*--------------------------------*- C++ -*----------------------------------*\
| =========                 |                                                 |
| \\      /  F ield         | foam-extend: Open Source CFD                    |
|  \\    /   O peration     | Version:     5.0                                |
|   \\  /    A nd           | Web:         http://www.foam-extend.org         |
|    \\/     M anipulation  |                                                 |
\*---------------------------------------------------------------------------*/
FoamFile
{
    version     2.0;
    format      ascii;
    class       volScalarField;
    location    "7";
    object      alpha.gas;
}
// * * * * * * * * * * * * * * * * * * * * * * * * * * * * * * * * * * * * * //

dimensions      [0 0 0 0 0 0 0];

internalField   nonuniform List<scalar> 
100
(
0.163367
0.149869
0.140698
0.133387
0.127148
0.122404
0.118437
0.115368
0.112855
0.110382
0.10782
0.105128
0.10296
0.101197
0.0992274
0.0969353
0.0948686
0.09292
0.0907685
0.0883064
0.0861331
0.0841135
0.0827883
0.081968
0.0813863
0.0804067
0.0795338
0.0788544
0.0788247
0.0789587
0.0790329
0.0788703
0.0784202
0.0773397
0.0758504
0.0744293
0.0732222
0.0723663
0.0715863
0.0709561
0.0702689
0.0695969
0.0689732
0.0683927
0.0676604
0.0668828
0.0661477
0.0653894
0.0645841
0.0638339
0.0630792
0.0623546
0.0616518
0.0608969
0.0602954
0.0597709
0.0591133
0.0584659
0.0578245
0.0572713
0.0566981
0.056151
0.0554807
0.0547761
0.0539641
0.0531531
0.0522602
0.0512252
0.0500235
0.0487294
0.0473524
0.0446887
0.04129
0.0381764
0.0359468
0.0347237
0.0342947
0.0343348
0.0345952
0.0348959
0.0351358
0.0353267
0.0354542
0.0355481
0.0356303
0.0357124
0.0357803
0.0358291
0.0358601
0.0358817
0.0358956
0.0358861
0.035841
0.0357921
0.0356894
0.0355936
0.0354806
0.0353392
0.035173
0.0350013
)
;

boundaryField
{
    inlet
    {
        type            fixedValue;
        value           uniform 0.2;
    }
    outlet
    {
        type            zeroGradient;
    }
    yzfaces
    {
        type            empty;
    }
}


// ************************************************************************* //
