/*--------------------------------*- C++ -*----------------------------------*\
| =========                 |                                                 |
| \\      /  F ield         | foam-extend: Open Source CFD                    |
|  \\    /   O peration     | Version:     5.0                                |
|   \\  /    A nd           | Web:         http://www.foam-extend.org         |
|    \\/     M anipulation  |                                                 |
\*---------------------------------------------------------------------------*/
FoamFile
{
    version     2.0;
    format      ascii;
    class       volScalarField;
    location    "7";
    object      Cl.water;
}
// * * * * * * * * * * * * * * * * * * * * * * * * * * * * * * * * * * * * * //

dimensions      [0 0 0 0 0 0 0];

internalField   nonuniform List<scalar> 
100
(
0
0.00157769
0.00335917
0.00502465
0.00601934
0.00637539
0.00644667
0.00660523
0.00700804
0.00750139
0.00787068
0.00803715
0.00807995
0.00813735
0.00832771
0.00855639
0.00872492
0.00878225
0.00885455
0.00905472
0.00930125
0.00951363
0.0096397
0.00973138
0.0098774
0.0101717
0.0105575
0.0107984
0.0108385
0.0107536
0.010684
0.0106479
0.0105728
0.0104597
0.0104305
0.0105884
0.0108931
0.0112082
0.0113283
0.011292
0.0112453
0.0113616
0.0116311
0.0118306
0.0117878
0.0116079
0.0115489
0.0117984
0.0121558
0.0122468
0.0119937
0.0117394
0.0118312
0.0123942
0.0127143
0.0123576
0.0118171
0.0117566
0.0123734
0.0123669
0.0116143
0.0112115
0.0117875
0.0130989
0.0145862
0.0129458
0.0112419
0.0116657
0.0134888
0.0154556
0.0169336
0.00819036
0.0109863
0.0155707
0.0183231
0.0195131
0.0199293
0.0200161
0.0200108
0.0199809
0.0199544
0.0199343
0.0199168
0.0199051
0.019912
0.0199041
0.0198956
0.0198938
0.0198953
0.0198929
0.0198761
0.0198694
0.0198662
0.0198611
0.0198602
0.0198799
0.0198946
0.0199169
0.0199387
0.0199653
)
;

boundaryField
{
    inlet
    {
        type            fixedValue;
        value           uniform 0;
    }
    outlet
    {
        type            zeroGradient;
    }
    yzfaces
    {
        type            empty;
    }
}


// ************************************************************************* //
