/*--------------------------------*- C++ -*----------------------------------*\
| =========                 |                                                 |
| \\      /  F ield         | foam-extend: Open Source CFD                    |
|  \\    /   O peration     | Version:     5.0                                |
|   \\  /    A nd           | Web:         http://www.foam-extend.org         |
|    \\/     M anipulation  |                                                 |
\*---------------------------------------------------------------------------*/
FoamFile
{
    version     2.0;
    format      ascii;
    class       volScalarField;
    location    "7";
    object      CO2.water;
}
// * * * * * * * * * * * * * * * * * * * * * * * * * * * * * * * * * * * * * //

dimensions      [0 0 0 0 0 0 0];

internalField   nonuniform List<scalar> 
100
(
0.000963925
0.000970548
0.000825799
0.000648723
0.00059028
0.000652052
0.000751669
0.000813062
0.000802512
0.000757341
0.000736892
0.000762366
0.000810028
0.000837534
0.000838756
0.000833731
0.00084614
0.000874577
0.000902052
0.000916909
0.000922119
0.00093606
0.000964322
0.000991067
0.000988479
0.000952443
0.000908237
0.000883546
0.000891768
0.000913059
0.000925975
0.000933411
0.000953463
0.000988701
0.0010199
0.00101716
0.000975804
0.000932181
0.000922516
0.000950372
0.00097994
0.000969251
0.000925229
0.000899812
0.000925323
0.000980316
0.00101058
0.000975014
0.000916327
0.000917013
0.000986818
0.0010584
0.00105665
0.000956486
0.000904183
0.000990223
0.00112186
0.00115377
0.00103563
0.00105816
0.00124075
0.00134402
0.00123212
0.000963433
0.000661547
0.00104041
0.00142864
0.00136295
0.000996948
0.000608474
0.000325685
0.0022929
0.00177772
0.000863073
0.000328422
0.00010536
2.95342e-05
7.42398e-06
1.72072e-06
3.77586e-07
8.07281e-08
1.72446e-08
3.74494e-09
8.34143e-10
1.90603e-10
4.43864e-11
1.04534e-11
2.46897e-12
5.81503e-13
1.36152e-13
3.16012e-14
7.27366e-15
1.66065e-15
3.76614e-16
8.50878e-17
1.92302e-17
4.35187e-18
9.87961e-19
2.24895e-19
5.2647e-20
)
;

boundaryField
{
    inlet
    {
        type            fixedValue;
        value           uniform 0;
    }
    outlet
    {
        type            zeroGradient;
    }
    yzfaces
    {
        type            empty;
    }
}


// ************************************************************************* //
