/*--------------------------------*- C++ -*----------------------------------*\
| =========                 |                                                 |
| \\      /  F ield         | foam-extend: Open Source CFD                    |
|  \\    /   O peration     | Version:     5.0                                |
|   \\  /    A nd           | Web:         http://www.foam-extend.org         |
|    \\/     M anipulation  |                                                 |
\*---------------------------------------------------------------------------*/
FoamFile
{
    version     2.0;
    format      ascii;
    class       volScalarField;
    location    "7";
    object      CO2.gas;
}
// * * * * * * * * * * * * * * * * * * * * * * * * * * * * * * * * * * * * * //

dimensions      [0 0 0 0 0 0 0];

internalField   nonuniform List<scalar> 
100
(
0.163673
0.14946
0.140429
0.132532
0.125892
0.122164
0.118849
0.116521
0.114526
0.111811
0.108799
0.105687
0.103486
0.101445
0.0991233
0.0962514
0.0939888
0.0917497
0.0892672
0.0866726
0.084639
0.0828928
0.0821919
0.0820682
0.0818292
0.0808805
0.0803669
0.079929
0.0803092
0.0806055
0.0806836
0.0803948
0.079735
0.0781639
0.0763432
0.074751
0.0734068
0.0725852
0.0716999
0.0711249
0.0704805
0.0697596
0.0691267
0.0685906
0.067803
0.0669355
0.0661534
0.0654005
0.0645573
0.0638233
0.062984
0.0622027
0.0614947
0.0608028
0.0602078
0.0596353
0.0589233
0.0582693
0.0576135
0.0571733
0.0566595
0.0561008
0.0553566
0.0546009
0.0537551
0.0529418
0.0519529
0.0508615
0.049596
0.0482977
0.0468503
0.0441064
0.040649
0.0373621
0.0348865
0.033305
0.0324423
0.0319439
0.031614
0.0312493
0.0307497
0.0301456
0.0294113
0.0285746
0.0276969
0.0267402
0.0257153
0.0246303
0.023478
0.0222972
0.0210567
0.0197871
0.0184936
0.0171982
0.0158908
0.014612
0.0133577
0.0121294
0.0109298
0.00979266
)
;

boundaryField
{
    inlet
    {
        type            fixedValue;
        value           uniform 0.2;
    }
    outlet
    {
        type            zeroGradient;
    }
    yzfaces
    {
        type            empty;
    }
}


// ************************************************************************* //
