/*--------------------------------*- C++ -*----------------------------------*\
| =========                 |                                                 |
| \\      /  F ield         | foam-extend: Open Source CFD                    |
|  \\    /   O peration     | Version:     5.0                                |
|   \\  /    A nd           | Web:         http://www.foam-extend.org         |
|    \\/     M anipulation  |                                                 |
\*---------------------------------------------------------------------------*/
FoamFile
{
    version     2.0;
    format      ascii;
    class       volScalarField;
    location    "7";
    object      Na.water;
}
// * * * * * * * * * * * * * * * * * * * * * * * * * * * * * * * * * * * * * //

dimensions      [0 0 0 0 0 0 0];

internalField   nonuniform List<scalar> 
100
(
0
0.00157688
0.00335931
0.00502482
0.00601516
0.00637262
0.00644634
0.00660523
0.00700594
0.00750184
0.00786821
0.00803585
0.00807721
0.00812707
0.00831622
0.00854394
0.00871318
0.0087722
0.00884624
0.00904598
0.00929568
0.0095171
0.0096463
0.00973633
0.00987879
0.0101746
0.0105521
0.0107949
0.0108329
0.0107517
0.0106892
0.0106467
0.010569
0.0104513
0.0104251
0.0105832
0.0108933
0.0112076
0.0113295
0.0112887
0.0112414
0.0113615
0.0116311
0.0118309
0.0117878
0.0116065
0.0115527
0.0118091
0.0121658
0.012261
0.0120034
0.0117436
0.0118375
0.0124011
0.012721
0.0123678
0.0118274
0.0117649
0.0123816
0.0123744
0.0116246
0.0112235
0.0118036
0.0131115
0.0145944
0.0129554
0.0112494
0.011677
0.0134986
0.0154668
0.0169452
0.00819614
0.0109929
0.0155808
0.0183331
0.0195231
0.0199405
0.0200336
0.0200265
0.019991
0.01996
0.0199356
0.019914
0.0198993
0.019903
0.0198921
0.0198789
0.0198779
0.0198786
0.0198812
0.0198668
0.0198653
0.0198649
0.0198664
0.0198729
0.0198914
0.0199017
0.0199221
0.0199421
0.0199703
)
;

boundaryField
{
    inlet
    {
        type            fixedValue;
        value           uniform 0;
    }
    outlet
    {
        type            zeroGradient;
    }
    yzfaces
    {
        type            empty;
    }
}


// ************************************************************************* //
