/*--------------------------------*- C++ -*----------------------------------*\
| =========                 |                                                 |
| \\      /  F ield         | foam-extend: Open Source CFD                    |
|  \\    /   O peration     | Version:     5.0                                |
|   \\  /    A nd           | Web:         http://www.foam-extend.org         |
|    \\/     M anipulation  |                                                 |
\*---------------------------------------------------------------------------*/
FoamFile
{
    version     2.0;
    format      ascii;
    class       surfaceScalarField;
    location    "7";
    object      phi;
}
// * * * * * * * * * * * * * * * * * * * * * * * * * * * * * * * * * * * * * //

dimensions      [0 3 -1 0 0 0 0];

internalField   nonuniform List<scalar> 
99
(
1.22236e-06
1.23384e-06
1.2226e-06
1.23316e-06
1.23679e-06
1.23342e-06
1.23398e-06
1.23355e-06
1.22537e-06
1.22495e-06
1.2222e-06
1.21417e-06
1.21239e-06
1.2072e-06
1.20084e-06
1.197e-06
1.19917e-06
1.19239e-06
1.18992e-06
1.19296e-06
1.19482e-06
1.20328e-06
1.20918e-06
1.21378e-06
1.21211e-06
1.21212e-06
1.20795e-06
1.20787e-06
1.208e-06
1.20902e-06
1.20637e-06
1.205e-06
1.1952e-06
1.18983e-06
1.18276e-06
1.17828e-06
1.17992e-06
1.18052e-06
1.18266e-06
1.183e-06
1.18352e-06
1.18271e-06
1.1819e-06
1.17818e-06
1.17663e-06
1.17523e-06
1.17557e-06
1.16977e-06
1.17118e-06
1.1668e-06
1.16829e-06
1.16435e-06
1.1639e-06
1.16726e-06
1.16484e-06
1.16091e-06
1.15928e-06
1.16178e-06
1.16653e-06
1.16796e-06
1.16856e-06
1.16923e-06
1.17156e-06
1.16896e-06
1.16702e-06
1.16676e-06
1.16533e-06
1.1659e-06
1.1665e-06
1.16872e-06
1.16865e-06
1.16915e-06
1.16932e-06
1.16871e-06
1.17172e-06
1.17167e-06
1.17298e-06
1.1731e-06
1.17244e-06
1.17361e-06
1.17269e-06
1.17205e-06
1.17332e-06
1.17333e-06
1.17424e-06
1.17434e-06
1.17378e-06
1.17346e-06
1.17392e-06
1.17513e-06
1.17406e-06
1.17243e-06
1.17293e-06
1.17083e-06
1.17305e-06
1.17366e-06
1.17266e-06
1.17316e-06
1.1737e-06
)
;

boundaryField
{
    inlet
    {
        type            calculated;
        value           uniform -1.225e-06;
    }
    outlet
    {
        type            calculated;
        value           uniform 1.17137e-06;
    }
    yzfaces
    {
        type            empty;
    }
}


// ************************************************************************* //
