/*--------------------------------*- C++ -*----------------------------------*\
| =========                 |                                                 |
| \\      /  F ield         | foam-extend: Open Source CFD                    |
|  \\    /   O peration     | Version:     5.0                                |
|   \\  /    A nd           | Web:         http://www.foam-extend.org         |
|    \\/     M anipulation  |                                                 |
\*---------------------------------------------------------------------------*/
FoamFile
{
    version     2.0;
    format      ascii;
    class       surfaceScalarField;
    location    "7";
    object      phi.water;
}
// * * * * * * * * * * * * * * * * * * * * * * * * * * * * * * * * * * * * * //

dimensions      [0 3 -1 0 0 0 0];

internalField   nonuniform List<scalar> 
99
(
8.03306e-08
1.4291e-07
1.95268e-07
2.499e-07
3.02691e-07
3.45707e-07
3.88121e-07
4.21149e-07
4.47988e-07
4.80572e-07
5.17228e-07
5.56225e-07
5.92131e-07
6.21487e-07
6.53843e-07
6.99825e-07
7.45233e-07
7.8472e-07
8.34053e-07
8.96546e-07
9.54652e-07
1.01626e-06
1.05423e-06
1.07684e-06
1.08942e-06
1.1176e-06
1.13991e-06
1.16041e-06
1.15839e-06
1.15322e-06
1.14645e-06
1.15242e-06
1.16011e-06
1.19621e-06
1.24516e-06
1.29547e-06
1.34667e-06
1.38188e-06
1.41755e-06
1.44171e-06
1.47207e-06
1.50111e-06
1.52799e-06
1.54782e-06
1.58e-06
1.61768e-06
1.65259e-06
1.68266e-06
1.72459e-06
1.75685e-06
1.80059e-06
1.83488e-06
1.86929e-06
1.91647e-06
1.94817e-06
1.97093e-06
2.01011e-06
2.05316e-06
2.09788e-06
2.13236e-06
2.16764e-06
2.20335e-06
2.25478e-06
2.29468e-06
2.34601e-06
2.40161e-06
2.46203e-06
2.53669e-06
2.62508e-06
2.72753e-06
2.82365e-06
3.03609e-06
3.33434e-06
3.62692e-06
3.85764e-06
3.98341e-06
4.03453e-06
4.03537e-06
4.00822e-06
3.98167e-06
3.9567e-06
3.93528e-06
3.92694e-06
3.91649e-06
3.91009e-06
3.90209e-06
3.8938e-06
3.88652e-06
3.88516e-06
3.88717e-06
3.88364e-06
3.8802e-06
3.88802e-06
3.88661e-06
3.90414e-06
3.91407e-06
3.92074e-06
3.93625e-06
3.95403e-06
)
;

boundaryField
{
    inlet
    {
        type            fixedValue;
        value           uniform 0;
    }
    outlet
    {
        type            calculated;
        value           uniform 3.96424e-06;
    }
    yzfaces
    {
        type            empty;
    }
}


// ************************************************************************* //
