/*--------------------------------*- C++ -*----------------------------------*\
| =========                 |                                                 |
| \\      /  F ield         | foam-extend: Open Source CFD                    |
|  \\    /   O peration     | Version:     5.0                                |
|   \\  /    A nd           | Web:         http://www.foam-extend.org         |
|    \\/     M anipulation  |                                                 |
\*---------------------------------------------------------------------------*/
FoamFile
{
    version     2.0;
    format      ascii;
    class       volVectorField;
    location    "7";
    object      U.gas;
}
// * * * * * * * * * * * * * * * * * * * * * * * * * * * * * * * * * * * * * //

dimensions      [0 1 -1 0 0 0 0];

internalField   nonuniform List<vector> 
100
(
(0.00610588 0 0)
(0.00665865 0 0)
(0.00706796 0 0)
(0.00742429 0 0)
(0.00780076 0 0)
(0.00806973 0 0)
(0.00829647 0 0)
(0.00848548 0 0)
(0.00861555 0 0)
(0.00874893 0 0)
(0.00891235 0 0)
(0.0090618 0 0)
(0.00917617 0 0)
(0.00927404 0 0)
(0.00937699 0 0)
(0.00951284 0 0)
(0.00966192 0 0)
(0.00979432 0 0)
(0.00992957 0 0)
(0.0101367 0 0)
(0.0103331 0 0)
(0.0105446 0 0)
(0.0107068 0 0)
(0.010813 0 0)
(0.0108706 0 0)
(0.010957 0 0)
(0.0110104 0 0)
(0.0110437 0 0)
(0.0110289 0 0)
(0.0110184 0 0)
(0.0110074 0 0)
(0.0110097 0 0)
(0.0110041 0 0)
(0.0110434 0 0)
(0.011125 0 0)
(0.0111911 0 0)
(0.0112735 0 0)
(0.0113444 0 0)
(0.0114206 0 0)
(0.0114804 0 0)
(0.0115446 0 0)
(0.0115979 0 0)
(0.0116388 0 0)
(0.0116621 0 0)
(0.0117032 0 0)
(0.0117526 0 0)
(0.0118036 0 0)
(0.0118369 0 0)
(0.0118793 0 0)
(0.0119198 0 0)
(0.0119622 0 0)
(0.0120007 0 0)
(0.0120284 0 0)
(0.0121018 0 0)
(0.0121382 0 0)
(0.0121363 0 0)
(0.0121585 0 0)
(0.0122014 0 0)
(0.0122807 0 0)
(0.0123404 0 0)
(0.0123858 0 0)
(0.0124232 0 0)
(0.0124852 0 0)
(0.0125242 0 0)
(0.0125514 0 0)
(0.0125769 0 0)
(0.0126145 0 0)
(0.0126656 0 0)
(0.0127318 0 0)
(0.0127924 0 0)
(0.0128414 0 0)
(0.0130425 0 0)
(0.0131368 0 0)
(0.0129786 0 0)
(0.0126593 0 0)
(0.012329 0 0)
(0.0120979 0 0)
(0.0119975 0 0)
(0.0119742 0 0)
(0.0120084 0 0)
(0.0120537 0 0)
(0.0120775 0 0)
(0.0121115 0 0)
(0.0121381 0 0)
(0.0121553 0 0)
(0.0121696 0 0)
(0.0121766 0 0)
(0.0121823 0 0)
(0.0121903 0 0)
(0.0122021 0 0)
(0.0122082 0 0)
(0.0121997 0 0)
(0.0121957 0 0)
(0.0121818 0 0)
(0.0121829 0 0)
(0.0121859 0 0)
(0.0121761 0 0)
(0.0121629 0 0)
(0.0121539 0 0)
(0.0121263 0 0)
)
;

boundaryField
{
    inlet
    {
        type            fixedValue;
        value           uniform (0.005 0 0);
    }
    outlet
    {
        type            zeroGradient;
    }
    yzfaces
    {
        type            empty;
    }
}


// ************************************************************************* //
