/*--------------------------------*- C++ -*----------------------------------*\
| =========                 |                                                 |
| \\      /  F ield         | foam-extend: Open Source CFD                    |
|  \\    /   O peration     | Version:     5.0                                |
|   \\  /    A nd           | Web:         http://www.foam-extend.org         |
|    \\/     M anipulation  |                                                 |
\*---------------------------------------------------------------------------*/
FoamFile
{
    version     2.0;
    format      ascii;
    class       volVectorField;
    location    "7";
    object      U.water;
}
// * * * * * * * * * * * * * * * * * * * * * * * * * * * * * * * * * * * * * //

dimensions      [0 1 -1 0 0 0 0];

internalField   nonuniform List<vector> 
100
(
(3.87983e-05 0 0)
(9.18719e-05 0 0)
(0.000137949 0 0)
(0.000180903 0 0)
(0.00022366 0 0)
(0.000263909 0 0)
(0.000300282 0 0)
(0.00033322 0 0)
(0.000359543 0 0)
(0.00038397 0 0)
(0.000411282 0 0)
(0.000440432 0 0)
(0.000470465 0 0)
(0.000496805 0 0)
(0.000520169 0 0)
(0.000548977 0 0)
(0.000584157 0 0)
(0.000616902 0 0)
(0.000650745 0 0)
(0.000693652 0 0)
(0.000742803 0 0)
(0.00079276 0 0)
(0.000838502 0 0)
(0.000869607 0 0)
(0.00088894 0 0)
(0.000906928 0 0)
(0.00093044 0 0)
(0.000950942 0 0)
(0.000963195 0 0)
(0.000962841 0 0)
(0.000958342 0 0)
(0.000956779 0 0)
(0.000960109 0 0)
(0.000973307 0 0)
(0.00100338 0 0)
(0.0010412 0 0)
(0.00108109 0 0)
(0.0011164 0 0)
(0.00114478 0 0)
(0.00116994 0 0)
(0.00119249 0 0)
(0.00121646 0 0)
(0.00123929 0 0)
(0.00125899 0 0)
(0.00127932 0 0)
(0.00130634 0 0)
(0.00133529 0 0)
(0.0013615 0 0)
(0.00139035 0 0)
(0.00142027 0 0)
(0.00144998 0 0)
(0.00148059 0 0)
(0.00150875 0 0)
(0.00154223 0 0)
(0.00157475 0 0)
(0.0015966 0 0)
(0.00162037 0 0)
(0.00165335 0 0)
(0.00168951 0 0)
(0.00172428 0 0)
(0.00175451 0 0)
(0.00178398 0 0)
(0.00181801 0 0)
(0.0018543 0 0)
(0.00189085 0 0)
(0.00193443 0 0)
(0.00198076 0 0)
(0.00203479 0 0)
(0.00210109 0 0)
(0.00218011 0 0)
(0.00226638 0 0)
(0.00239102 0 0)
(0.00259629 0 0)
(0.00283531 0 0)
(0.00304913 0 0)
(0.00319694 0 0)
(0.00327149 0 0)
(0.0032937 0 0)
(0.00328355 0 0)
(0.00326175 0 0)
(0.00323999 0 0)
(0.00322077 0 0)
(0.00320816 0 0)
(0.00320051 0 0)
(0.0031946 0 0)
(0.00318952 0 0)
(0.00318313 0 0)
(0.00317703 0 0)
(0.00317393 0 0)
(0.00317431 0 0)
(0.00317256 0 0)
(0.00316822 0 0)
(0.00316878 0 0)
(0.00317052 0 0)
(0.00317621 0 0)
(0.00318784 0 0)
(0.00319517 0 0)
(0.00320446 0 0)
(0.00321798 0 0)
(0.0032287 0 0)
)
;

boundaryField
{
    inlet
    {
        type            fixedValue;
        value           uniform (0 0 0);
    }
    outlet
    {
        type            zeroGradient;
    }
    yzfaces
    {
        type            empty;
    }
}


// ************************************************************************* //
