/*--------------------------------*- C++ -*----------------------------------*\
| =========                 |                                                 |
| \\      /  F ield         | foam-extend: Open Source CFD                    |
|  \\    /   O peration     | Version:     5.0                                |
|   \\  /    A nd           | Web:         http://www.foam-extend.org         |
|    \\/     M anipulation  |                                                 |
\*---------------------------------------------------------------------------*/
FoamFile
{
    version     2.0;
    format      ascii;
    class       volScalarField;
    location    "1";
    object      H2O.water;
}
// * * * * * * * * * * * * * * * * * * * * * * * * * * * * * * * * * * * * * //

dimensions      [0 0 0 0 0 0 0];

internalField   nonuniform List<scalar> 
100
(
0.0141467
0.02105
0.0265382
0.0311747
0.0352083
0.038783
0.0419941
0.0449077
0.0475728
0.0500285
0.052302
0.0544198
0.0563988
0.0582563
0.0600054
0.061657
0.0632213
0.0647066
0.0661194
0.0674663
0.0687535
0.0699849
0.0711648
0.0722975
0.0733854
0.0744326
0.0754415
0.0764159
0.0773559
0.0782649
0.0791442
0.0799958
0.0808207
0.0816214
0.0823996
0.0831545
0.083888
0.0846026
0.0852978
0.085975
0.0866344
0.0872778
0.087905
0.0885178
0.0891153
0.0897003
0.0902715
0.090832
0.0913786
0.0919153
0.0924379
0.0929527
0.0934533
0.0939458
0.0944283
0.0949029
0.0953675
0.0958239
0.0962727
0.0967125
0.0971443
0.0975696
0.0979856
0.0983961
0.0987981
0.099195
0.0995844
0.0999667
0.100345
0.100716
0.101081
0.101441
0.101796
0.102145
0.10249
0.102828
0.103162
0.103492
0.103818
0.104137
0.104454
0.104764
0.105072
0.105376
0.105676
0.105973
0.106266
0.106552
0.106835
0.107116
0.107393
0.107667
0.107936
0.108204
0.108469
0.108731
0.108989
0.109244
0.109496
0.109746
)
;

boundaryField
{
    inlet
    {
        type            fixedValue;
        value           uniform 0;
    }
    outlet
    {
        type            zeroGradient;
    }
    yzfaces
    {
        type            empty;
    }
}


// ************************************************************************* //
