/*--------------------------------*- C++ -*----------------------------------*\
| =========                 |                                                 |
| \\      /  F ield         | foam-extend: Open Source CFD                    |
|  \\    /   O peration     | Version:     5.0                                |
|   \\  /    A nd           | Web:         http://www.foam-extend.org         |
|    \\/     M anipulation  |                                                 |
\*---------------------------------------------------------------------------*/
FoamFile
{
    version     2.0;
    format      ascii;
    class       surfaceScalarField;
    location    "1";
    object      phi.water;
}
// * * * * * * * * * * * * * * * * * * * * * * * * * * * * * * * * * * * * * //

dimensions      [0 3 -1 0 0 0 0];

internalField   nonuniform List<scalar> 
99
(
7.09781e-07
1.25358e-06
1.74836e-06
2.21371e-06
2.6584e-06
3.08631e-06
3.50126e-06
3.90452e-06
4.29843e-06
4.68252e-06
5.05845e-06
5.42717e-06
5.78725e-06
6.14135e-06
6.49404e-06
6.83629e-06
7.17653e-06
7.50967e-06
7.84101e-06
8.16669e-06
8.49085e-06
8.8085e-06
9.12295e-06
9.43498e-06
9.74369e-06
1.00489e-05
1.03512e-05
1.06504e-05
1.09473e-05
1.12419e-05
1.15336e-05
1.18217e-05
1.21108e-05
1.23952e-05
1.2677e-05
1.29578e-05
1.32355e-05
1.35125e-05
1.37888e-05
1.40632e-05
1.43284e-05
1.45972e-05
1.48665e-05
1.51309e-05
1.53953e-05
1.56609e-05
1.59221e-05
1.61863e-05
1.64401e-05
1.66976e-05
1.69564e-05
1.72076e-05
1.74586e-05
1.77131e-05
1.79588e-05
1.8209e-05
1.84622e-05
1.87086e-05
1.89555e-05
1.92005e-05
1.94448e-05
1.96909e-05
1.99306e-05
2.01726e-05
2.0411e-05
2.06517e-05
2.08853e-05
2.11237e-05
2.13584e-05
2.15909e-05
2.18256e-05
2.20605e-05
2.2292e-05
2.2523e-05
2.27553e-05
2.29863e-05
2.32139e-05
2.34437e-05
2.3671e-05
2.38991e-05
2.41231e-05
2.43502e-05
2.45722e-05
2.47964e-05
2.50186e-05
2.52398e-05
2.54595e-05
2.56794e-05
2.58974e-05
2.61156e-05
2.63356e-05
2.65512e-05
2.67662e-05
2.69845e-05
2.71994e-05
2.74162e-05
2.76334e-05
2.78462e-05
2.80607e-05
)
;

boundaryField
{
    inlet
    {
        type            fixedValue;
        value           uniform 0;
    }
    outlet
    {
        type            calculated;
        value           uniform 2.83066e-05;
    }
    yzfaces
    {
        type            empty;
    }
}


// ************************************************************************* //
