/*--------------------------------*- C++ -*----------------------------------*\
| =========                 |                                                 |
| \\      /  F ield         | foam-extend: Open Source CFD                    |
|  \\    /   O peration     | Version:     5.0                                |
|   \\  /    A nd           | Web:         http://www.foam-extend.org         |
|    \\/     M anipulation  |                                                 |
\*---------------------------------------------------------------------------*/
FoamFile
{
    version     2.0;
    format      ascii;
    class       surfaceScalarField;
    location    "1";
    object      phi.gas;
}
// * * * * * * * * * * * * * * * * * * * * * * * * * * * * * * * * * * * * * //

dimensions      [0 3 -1 0 0 0 0];

internalField   nonuniform List<scalar> 
99
(
0.000671555
0.000695069
0.000715577
0.000734032
0.000751017
0.000766876
0.000781695
0.000795722
0.0008091
0.000821785
0.000833932
0.000845503
0.000856491
0.000867268
0.000877731
0.000887687
0.000897369
0.000906759
0.000915903
0.00092479
0.000933525
0.000941862
0.000950064
0.000958023
0.00096596
0.000973635
0.000981069
0.000988408
0.000995551
0.00100261
0.00100957
0.00101637
0.00102312
0.00102966
0.00103607
0.00104244
0.00104851
0.00105471
0.00106085
0.00106682
0.00107243
0.00107825
0.00108388
0.00108943
0.00109501
0.00110058
0.00110594
0.00111124
0.00111639
0.00112166
0.00112677
0.00113172
0.00113669
0.0011416
0.00114634
0.00115117
0.00115606
0.00116077
0.00116545
0.00117003
0.00117456
0.00117921
0.00118368
0.00118812
0.00119253
0.00119687
0.00120114
0.00120545
0.0012097
0.00121384
0.00121802
0.00122213
0.0012262
0.00123024
0.00123434
0.00123832
0.0012422
0.0012461
0.00124998
0.00125384
0.00125762
0.00126145
0.00126517
0.0012689
0.00127254
0.00127614
0.00127969
0.0012833
0.00128685
0.00129036
0.00129388
0.00129735
0.00130077
0.00130428
0.00130768
0.00131115
0.0013145
0.00131783
0.00132126
)
;

boundaryField
{
    inlet
    {
        type            fixedValue;
        value           uniform -0.0006125;
    }
    outlet
    {
        type            calculated;
        value           uniform 0.00132277;
    }
    yzfaces
    {
        type            empty;
    }
}


// ************************************************************************* //
