/*--------------------------------*- C++ -*----------------------------------*\
| =========                 |                                                 |
| \\      /  F ield         | foam-extend: Open Source CFD                    |
|  \\    /   O peration     | Version:     5.0                                |
|   \\  /    A nd           | Web:         http://www.foam-extend.org         |
|    \\/     M anipulation  |                                                 |
\*---------------------------------------------------------------------------*/
FoamFile
{
    version     2.0;
    format      ascii;
    class       volVectorField;
    location    "1";
    object      U.water;
}
// * * * * * * * * * * * * * * * * * * * * * * * * * * * * * * * * * * * * * //

dimensions      [0 1 -1 0 0 0 0];

internalField   nonuniform List<vector> 
100
(
(0.00036039 0 0)
(0.00082055 0 0)
(0.00123473 0 0)
(0.00162265 0 0)
(0.00199203 0 0)
(0.00234703 0 0)
(0.00269015 0 0)
(0.00302346 0 0)
(0.00334832 0 0)
(0.00366576 0 0)
(0.00397581 0 0)
(0.0042794 0 0)
(0.00457727 0 0)
(0.00486905 0 0)
(0.00515691 0 0)
(0.00544098 0 0)
(0.00571933 0 0)
(0.00599454 0 0)
(0.00626543 0 0)
(0.00653366 0 0)
(0.00679861 0 0)
(0.00706052 0 0)
(0.00731867 0 0)
(0.00757419 0 0)
(0.00782778 0 0)
(0.0080783 0 0)
(0.00832611 0 0)
(0.00857172 0 0)
(0.00881486 0 0)
(0.0090562 0 0)
(0.00929572 0 0)
(0.00953279 0 0)
(0.00976806 0 0)
(0.0100024 0 0)
(0.0102337 0 0)
(0.0104633 0 0)
(0.010691 0 0)
(0.0109175 0 0)
(0.0111432 0 0)
(0.0113679 0 0)
(0.0115891 0 0)
(0.0118073 0 0)
(0.0120263 0 0)
(0.0122443 0 0)
(0.0124602 0 0)
(0.0126761 0 0)
(0.0128909 0 0)
(0.0131046 0 0)
(0.013317 0 0)
(0.0135258 0 0)
(0.013736 0 0)
(0.0139448 0 0)
(0.0141499 0 0)
(0.0143556 0 0)
(0.0145603 0 0)
(0.0147624 0 0)
(0.014967 0 0)
(0.0151712 0 0)
(0.0153722 0 0)
(0.0155727 0 0)
(0.0157723 0 0)
(0.0159723 0 0)
(0.0161709 0 0)
(0.0163674 0 0)
(0.0165638 0 0)
(0.0167592 0 0)
(0.0169536 0 0)
(0.0171462 0 0)
(0.0173397 0 0)
(0.0175309 0 0)
(0.0177215 0 0)
(0.0179126 0 0)
(0.0181031 0 0)
(0.0182921 0 0)
(0.0184811 0 0)
(0.0186698 0 0)
(0.0188569 0 0)
(0.0190433 0 0)
(0.01923 0 0)
(0.0194156 0 0)
(0.0196003 0 0)
(0.0197843 0 0)
(0.019968 0 0)
(0.0201501 0 0)
(0.0203323 0 0)
(0.0205135 0 0)
(0.0206939 0 0)
(0.0208734 0 0)
(0.0210523 0 0)
(0.0212303 0 0)
(0.0214089 0 0)
(0.0215871 0 0)
(0.021763 0 0)
(0.0219398 0 0)
(0.0221169 0 0)
(0.022293 0 0)
(0.0224695 0 0)
(0.0226452 0 0)
(0.0228195 0 0)
(0.0229933 0 0)
)
;

boundaryField
{
    inlet
    {
        type            fixedValue;
        value           uniform (0 0 0);
    }
    outlet
    {
        type            zeroGradient;
    }
    yzfaces
    {
        type            empty;
    }
}


// ************************************************************************* //
