/*--------------------------------*- C++ -*----------------------------------*\
| =========                 |                                                 |
| \\      /  F ield         | foam-extend: Open Source CFD                    |
|  \\    /   O peration     | Version:     5.0                                |
|   \\  /    A nd           | Web:         http://www.foam-extend.org         |
|    \\/     M anipulation  |                                                 |
\*---------------------------------------------------------------------------*/
FoamFile
{
    version     2.0;
    format      ascii;
    class       volScalarField;
    location    "60";
    object      alpha.water;
}
// * * * * * * * * * * * * * * * * * * * * * * * * * * * * * * * * * * * * * //

dimensions      [0 0 0 0 0 0 0];

internalField   nonuniform List<scalar> 
100
(
0.00775066
0.0200662
0.0329667
0.0367918
0.0349031
0.0348775
0.0341969
0.0353497
0.0348322
0.0347492
0.0348686
0.0352509
0.0352623
0.0368734
0.0401943
0.0468099
0.0521841
0.0510617
0.053161
0.0532264
0.0519286
0.0524301
0.0523609
0.0528784
0.052052
0.0529372
0.0524756
0.0493449
0.0473539
0.0480264
0.0487016
0.0491525
0.0489013
0.0481479
0.0482573
0.0498064
0.0487612
0.0468811
0.0451916
0.0450659
0.0448523
0.0442451
0.0454275
0.045741
0.0460168
0.0482322
0.049038
0.0518989
0.0538974
0.0577679
0.0616794
0.0668386
0.0695672
0.0715278
0.0741382
0.0764515
0.0780266
0.0777835
0.0769779
0.0766638
0.0760232
0.0752674
0.075939
0.0750329
0.0751652
0.0762914
0.0770527
0.077276
0.0769962
0.0769717
0.0767631
0.0762184
0.0760142
0.0761543
0.0764289
0.0759152
0.075334
0.0751522
0.0756729
0.0756606
0.0758696
0.0751474
0.0745448
0.0750565
0.075231
0.0745804
0.0756846
0.0763381
0.0765698
0.0767955
0.077099
0.0792267
0.0811182
0.0839412
0.085966
0.087111
0.0883456
0.0893432
0.0902502
0.0919944
)
;

boundaryField
{
    inlet
    {
        type            fixedValue;
        value           uniform 0;
    }
    outlet
    {
        type            zeroGradient;
    }
    yzfaces
    {
        type            empty;
    }
}


// ************************************************************************* //
