/*--------------------------------*- C++ -*----------------------------------*\
| =========                 |                                                 |
| \\      /  F ield         | foam-extend: Open Source CFD                    |
|  \\    /   O peration     | Version:     5.0                                |
|   \\  /    A nd           | Web:         http://www.foam-extend.org         |
|    \\/     M anipulation  |                                                 |
\*---------------------------------------------------------------------------*/
FoamFile
{
    version     2.0;
    format      ascii;
    class       volScalarField;
    location    "60";
    object      alpha.water;
}
// * * * * * * * * * * * * * * * * * * * * * * * * * * * * * * * * * * * * * //

dimensions      [0 0 0 0 0 0 0];

internalField   nonuniform List<scalar> 
100
(
0.00783471
0.0200123
0.0341997
0.036517
0.034086
0.0354274
0.0339044
0.035605
0.034595
0.034993
0.0350001
0.0352608
0.0353898
0.0361487
0.0398098
0.0465299
0.0520153
0.0537552
0.0540719
0.054398
0.0512976
0.0482027
0.0493616
0.0519254
0.0541943
0.0538731
0.0535101
0.0511376
0.0489718
0.0491111
0.0482749
0.048454
0.048677
0.047312
0.0463603
0.0455618
0.0450558
0.0451171
0.0453401
0.0446851
0.0444695
0.0446332
0.0447056
0.0458019
0.0468698
0.0473201
0.0496769
0.0511212
0.053843
0.057413
0.0597882
0.0649739
0.0696533
0.0713908
0.0735174
0.0750871
0.0762742
0.0774298
0.0782849
0.0788842
0.0794539
0.0795192
0.0790307
0.077925
0.0779496
0.0774989
0.0769632
0.0763486
0.0764422
0.0770073
0.0758164
0.0762538
0.0764711
0.077055
0.0774792
0.0782543
0.0782947
0.0778834
0.0762163
0.0765467
0.0762259
0.0758159
0.0754435
0.0761928
0.0764071
0.076876
0.0765808
0.0764465
0.076497
0.0768419
0.0774947
0.0786796
0.0796292
0.082213
0.0849124
0.0863502
0.0881044
0.0889619
0.0891203
0.0902227
)
;

boundaryField
{
    inlet
    {
        type            fixedValue;
        value           uniform 0;
    }
    outlet
    {
        type            zeroGradient;
    }
    yzfaces
    {
        type            empty;
    }
}


// ************************************************************************* //
