/*--------------------------------*- C++ -*----------------------------------*\
| =========                 |                                                 |
| \\      /  F ield         | foam-extend: Open Source CFD                    |
|  \\    /   O peration     | Version:     5.0                                |
|   \\  /    A nd           | Web:         http://www.foam-extend.org         |
|    \\/     M anipulation  |                                                 |
\*---------------------------------------------------------------------------*/
FoamFile
{
    version     2.0;
    format      ascii;
    class       volScalarField;
    location    "60";
    object      Cl.water;
}
// * * * * * * * * * * * * * * * * * * * * * * * * * * * * * * * * * * * * * //

dimensions      [0 0 0 0 0 0 0];

internalField   nonuniform List<scalar> 
100
(
0.00130526
0.000620196
0.000479741
0.00133656
0.00334099
0.00447938
0.00582758
0.0059183
0.00657686
0.00682094
0.00705125
0.00711912
0.00731772
0.00778466
0.00833135
0.00837639
0.00878962
0.00939718
0.00966738
0.0100044
0.01204
0.0129936
0.0115087
0.0105178
0.0101065
0.0102832
0.0106752
0.0116554
0.0121641
0.0118789
0.0120892
0.011879
0.0117594
0.012353
0.0122671
0.0123724
0.0123029
0.0122422
0.0125086
0.0127279
0.0128259
0.0126507
0.0127552
0.0125838
0.0125491
0.0127597
0.0125718
0.0123245
0.0125184
0.0125078
0.0130056
0.0133807
0.0143452
0.0153879
0.0156958
0.0153339
0.0146402
0.0140521
0.0138606
0.0136677
0.0139975
0.0145469
0.015068
0.015456
0.015308
0.0154098
0.0153179
0.0152456
0.0151549
0.0152367
0.0156331
0.0154153
0.0148719
0.0146113
0.0145795
0.0145235
0.0149009
0.0148926
0.0151426
0.0149266
0.0150668
0.0150051
0.0149674
0.0147704
0.015005
0.0150838
0.0152007
0.0152949
0.0151567
0.015271
0.015128
0.0150762
0.0152932
0.0153363
0.0154694
0.0157745
0.0158266
0.0160633
0.0162737
0.0156574
)
;

boundaryField
{
    inlet
    {
        type            fixedValue;
        value           uniform 0;
    }
    outlet
    {
        type            zeroGradient;
    }
    yzfaces
    {
        type            empty;
    }
}


// ************************************************************************* //
