/*--------------------------------*- C++ -*----------------------------------*\
| =========                 |                                                 |
| \\      /  F ield         | foam-extend: Open Source CFD                    |
|  \\    /   O peration     | Version:     5.0                                |
|   \\  /    A nd           | Web:         http://www.foam-extend.org         |
|    \\/     M anipulation  |                                                 |
\*---------------------------------------------------------------------------*/
FoamFile
{
    version     2.0;
    format      ascii;
    class       volScalarField;
    location    "60";
    object      Cl.water;
}
// * * * * * * * * * * * * * * * * * * * * * * * * * * * * * * * * * * * * * //

dimensions      [0 0 0 0 0 0 0];

internalField   nonuniform List<scalar> 
100
(
0.00126753
0.000604765
0.000527401
0.00139778
0.00338834
0.00436026
0.00564449
0.00590971
0.0065255
0.00695413
0.00705267
0.00713458
0.00736435
0.00716148
0.00728686
0.00773306
0.00969854
0.0112677
0.0103477
0.0104465
0.0112995
0.0107954
0.0105894
0.0106406
0.0109939
0.0102224
0.0107764
0.0122254
0.0126898
0.0119548
0.0115052
0.0114076
0.0116547
0.0118608
0.0113027
0.010853
0.0117307
0.0126349
0.0130228
0.0125648
0.0126631
0.0129929
0.0125351
0.0126393
0.0126439
0.012449
0.0128146
0.0127825
0.0128304
0.0129457
0.0128528
0.0127384
0.0130085
0.0130639
0.0130278
0.0134641
0.0142404
0.0151706
0.0157037
0.0155269
0.0154156
0.0156995
0.0157669
0.0158536
0.0151382
0.0144288
0.0142464
0.0143805
0.0146307
0.0147153
0.0149018
0.0151076
0.0149464
0.0148127
0.0149866
0.0152562
0.015351
0.0154401
0.0150435
0.0149672
0.0147878
0.0153529
0.0153616
0.0150214
0.0150591
0.0150241
0.0145752
0.0143639
0.0145525
0.0146535
0.0148041
0.0145964
0.0148417
0.0149086
0.0153403
0.0156218
0.0157678
0.0159692
0.0163101
0.0158911
)
;

boundaryField
{
    inlet
    {
        type            fixedValue;
        value           uniform 0;
    }
    outlet
    {
        type            zeroGradient;
    }
    yzfaces
    {
        type            empty;
    }
}


// ************************************************************************* //
