/*--------------------------------*- C++ -*----------------------------------*\
| =========                 |                                                 |
| \\      /  F ield         | foam-extend: Open Source CFD                    |
|  \\    /   O peration     | Version:     5.0                                |
|   \\  /    A nd           | Web:         http://www.foam-extend.org         |
|    \\/     M anipulation  |                                                 |
\*---------------------------------------------------------------------------*/
FoamFile
{
    version     2.0;
    format      ascii;
    class       volScalarField;
    location    "60";
    object      CO2.water;
}
// * * * * * * * * * * * * * * * * * * * * * * * * * * * * * * * * * * * * * //

dimensions      [0 0 0 0 0 0 0];

internalField   nonuniform List<scalar> 
100
(
0.000205775
0.000525614
0.000898238
0.000959102
0.000895253
0.000930485
0.000890483
0.000935149
0.000908623
0.000919076
0.000919261
0.000926108
0.000929497
0.000949429
0.00104559
0.00122209
0.00136616
0.00141185
0.00142017
0.00142874
0.00134731
0.00126602
0.00129646
0.0013638
0.00142339
0.00141495
0.00140542
0.0013431
0.00128622
0.00128988
0.00126792
0.00127262
0.00127848
0.00124263
0.00121763
0.00119666
0.00118337
0.00118498
0.00119084
0.00117363
0.00116797
0.00117227
0.00117417
0.00120297
0.00123101
0.00124284
0.00130474
0.00134268
0.00141416
0.00150793
0.00157031
0.00170651
0.00182941
0.00187505
0.0019309
0.00197213
0.00200331
0.00203366
0.00205612
0.00207186
0.00208682
0.00208853
0.0020757
0.00204667
0.00204731
0.00203547
0.0020214
0.00200526
0.00200772
0.00202256
0.00199128
0.00200277
0.00200848
0.00202381
0.00203496
0.00205531
0.00205637
0.00204557
0.00200179
0.00201046
0.00200204
0.00199127
0.00198149
0.00200117
0.0020068
0.00201911
0.00201136
0.00200783
0.00200916
0.00201822
0.00203536
0.00206648
0.00209142
0.00215929
0.00223018
0.00226795
0.00231402
0.00233654
0.0023407
0.00236966
)
;

boundaryField
{
    inlet
    {
        type            fixedValue;
        value           uniform 0;
    }
    outlet
    {
        type            zeroGradient;
    }
    yzfaces
    {
        type            empty;
    }
}


// ************************************************************************* //
