/*--------------------------------*- C++ -*----------------------------------*\
| =========                 |                                                 |
| \\      /  F ield         | foam-extend: Open Source CFD                    |
|  \\    /   O peration     | Version:     5.0                                |
|   \\  /    A nd           | Web:         http://www.foam-extend.org         |
|    \\/     M anipulation  |                                                 |
\*---------------------------------------------------------------------------*/
FoamFile
{
    version     2.0;
    format      ascii;
    class       volScalarField;
    location    "60";
    object      CO2.water;
}
// * * * * * * * * * * * * * * * * * * * * * * * * * * * * * * * * * * * * * //

dimensions      [0 0 0 0 0 0 0];

internalField   nonuniform List<scalar> 
100
(
0.000203568
0.000527029
0.000865855
0.000966319
0.000916714
0.000916042
0.000898167
0.000928444
0.000914852
0.000912672
0.000915808
0.000925849
0.000926147
0.000968462
0.00105569
0.00122944
0.00137059
0.00134111
0.00139625
0.00139797
0.00136388
0.00137705
0.00137523
0.00138883
0.00136712
0.00139037
0.00137825
0.00129602
0.00124373
0.00126139
0.00127912
0.00129097
0.00128437
0.00126458
0.00126745
0.00130814
0.00128069
0.00123131
0.00118694
0.00118363
0.00117802
0.00116208
0.00119313
0.00120137
0.00120861
0.0012668
0.00128796
0.0013631
0.00141559
0.00151725
0.00161998
0.00175549
0.00182715
0.00187865
0.00194721
0.00200796
0.00204933
0.00204295
0.00202179
0.00201354
0.00199671
0.00197686
0.0019945
0.0019707
0.00197418
0.00200376
0.00202375
0.00202962
0.00202227
0.00202163
0.00201615
0.00200184
0.00199648
0.00200016
0.00200737
0.00199388
0.00197861
0.00197384
0.00198751
0.00198719
0.00199268
0.00197371
0.00195789
0.00197132
0.00197591
0.00195882
0.00198782
0.00200498
0.00201107
0.002017
0.00202497
0.00208085
0.00213053
0.00220468
0.00225786
0.00228793
0.00232036
0.00234656
0.00237038
0.00241619
)
;

boundaryField
{
    inlet
    {
        type            fixedValue;
        value           uniform 0;
    }
    outlet
    {
        type            zeroGradient;
    }
    yzfaces
    {
        type            empty;
    }
}


// ************************************************************************* //
