/*--------------------------------*- C++ -*----------------------------------*\
| =========                 |                                                 |
| \\      /  F ield         | foam-extend: Open Source CFD                    |
|  \\    /   O peration     | Version:     5.0                                |
|   \\  /    A nd           | Web:         http://www.foam-extend.org         |
|    \\/     M anipulation  |                                                 |
\*---------------------------------------------------------------------------*/
FoamFile
{
    version     2.0;
    format      ascii;
    class       volScalarField;
    location    "60";
    object      H2O.water;
}
// * * * * * * * * * * * * * * * * * * * * * * * * * * * * * * * * * * * * * //

dimensions      [0 0 0 0 0 0 0];

internalField   nonuniform List<scalar> 
100
(
0.0050191
0.0182464
0.032342
0.0328847
0.0265067
0.0255376
0.021358
0.0228313
0.0205257
0.0204184
0.0199629
0.020085
0.0198118
0.0196121
0.022086
0.0285489
0.033063
0.033544
0.0333175
0.0329585
0.0258618
0.0209471
0.0250466
0.0295294
0.0325683
0.0318979
0.0307598
0.0264915
0.0233687
0.0240613
0.0228166
0.0234203
0.0238772
0.0213579
0.0205885
0.0196068
0.0192513
0.0194335
0.0191367
0.0180555
0.0176652
0.0181797
0.0180381
0.0194517
0.0205605
0.0205646
0.0232406
0.025152
0.0274107
0.0308998
0.0322118
0.03651
0.0391364
0.0387506
0.0402045
0.042451
0.04498
0.0472856
0.0485081
0.0494771
0.0493755
0.0483483
0.0468381
0.0449893
0.0453185
0.0446756
0.0443377
0.0438964
0.0441757
0.0445468
0.0425811
0.0434363
0.0447359
0.0458296
0.0462969
0.0471475
0.0464251
0.0460365
0.0439029
0.0446747
0.0440925
0.0438191
0.0435397
0.0446545
0.0443908
0.0446903
0.0441647
0.0438602
0.0442022
0.0443126
0.0452295
0.0464749
0.0469794
0.0493978
0.0517528
0.0525454
0.0541369
0.0545016
0.0542379
0.0565628
)
;

boundaryField
{
    inlet
    {
        type            fixedValue;
        value           uniform 0;
    }
    outlet
    {
        type            zeroGradient;
    }
    yzfaces
    {
        type            empty;
    }
}


// ************************************************************************* //
