/*--------------------------------*- C++ -*----------------------------------*\
| =========                 |                                                 |
| \\      /  F ield         | foam-extend: Open Source CFD                    |
|  \\    /   O peration     | Version:     5.0                                |
|   \\  /    A nd           | Web:         http://www.foam-extend.org         |
|    \\/     M anipulation  |                                                 |
\*---------------------------------------------------------------------------*/
FoamFile
{
    version     2.0;
    format      ascii;
    class       volScalarField;
    location    "60";
    object      H2O.water;
}
// * * * * * * * * * * * * * * * * * * * * * * * * * * * * * * * * * * * * * //

dimensions      [0 0 0 0 0 0 0];

internalField   nonuniform List<scalar> 
100
(
0.00501215
0.0183295
0.0310458
0.0330284
0.0272073
0.0252394
0.0220076
0.0226002
0.0208663
0.0199193
0.0198439
0.020052
0.0196044
0.0215807
0.0245583
0.0300965
0.0314016
0.0271698
0.0310584
0.0309266
0.0279719
0.0294611
0.0297952
0.0301929
0.0286852
0.031099
0.0295491
0.0236105
0.0207377
0.0228613
0.0244074
0.0250441
0.0243246
0.0231806
0.0243938
0.0267909
0.0240118
0.0203752
0.0179652
0.0187557
0.0183499
0.0170996
0.0191653
0.0192636
0.019524
0.0220746
0.0221202
0.0249654
0.0268171
0.0303569
0.0343518
0.0396053
0.041726
0.0435361
0.0461535
0.047523
0.0475007
0.0454056
0.0435635
0.0435955
0.0431895
0.041881
0.0423949
0.0413239
0.0428939
0.0454078
0.0465121
0.0464597
0.0456903
0.045499
0.0449353
0.043996
0.0441419
0.0445345
0.0444613
0.043412
0.0426444
0.0422966
0.0435977
0.0437372
0.0443122
0.0424757
0.0418673
0.0430461
0.0431317
0.0425812
0.0445544
0.0456239
0.0454587
0.0454712
0.0454655
0.0479566
0.0493146
0.0519213
0.0530331
0.0535885
0.0545054
0.0550719
0.0552772
0.0578004
)
;

boundaryField
{
    inlet
    {
        type            fixedValue;
        value           uniform 0;
    }
    outlet
    {
        type            zeroGradient;
    }
    yzfaces
    {
        type            empty;
    }
}


// ************************************************************************* //
