/*--------------------------------*- C++ -*----------------------------------*\
| =========                 |                                                 |
| \\      /  F ield         | foam-extend: Open Source CFD                    |
|  \\    /   O peration     | Version:     5.0                                |
|   \\  /    A nd           | Web:         http://www.foam-extend.org         |
|    \\/     M anipulation  |                                                 |
\*---------------------------------------------------------------------------*/
FoamFile
{
    version     2.0;
    format      ascii;
    class       volScalarField;
    location    "60";
    object      H2O.gas;
}
// * * * * * * * * * * * * * * * * * * * * * * * * * * * * * * * * * * * * * //

dimensions      [0 0 0 0 0 0 0];

internalField   nonuniform List<scalar> 
100
(
0.000374236
0.000350521
0.000322891
0.000318378
0.000323113
0.0003205
0.000323466
0.000320154
0.000322121
0.000321346
0.000321333
0.000320825
0.000320574
0.000319096
0.000311966
0.000298878
0.000288196
0.000284808
0.000284191
0.000283556
0.000289594
0.000295621
0.000293364
0.000288371
0.000283952
0.000284578
0.000285285
0.000289905
0.000294123
0.000293852
0.00029548
0.000295131
0.000294697
0.000297355
0.000299209
0.000300764
0.000301749
0.00030163
0.000301196
0.000302471
0.000302891
0.000302572
0.000302431
0.000300296
0.000298217
0.00029734
0.00029275
0.000289937
0.000284636
0.000277684
0.000273058
0.000262959
0.000253846
0.000250463
0.000246321
0.000243264
0.000240952
0.000238702
0.000237037
0.00023587
0.00023476
0.000234633
0.000235584
0.000237737
0.00023769
0.000238567
0.000239611
0.000240807
0.000240625
0.000239525
0.000241844
0.000240992
0.000240569
0.000239432
0.000238606
0.000237096
0.000237018
0.000237819
0.000241065
0.000240422
0.000241047
0.000241845
0.00024257
0.000241111
0.000240694
0.000239781
0.000240355
0.000240617
0.000240518
0.000239847
0.000238576
0.000236268
0.000234419
0.000229387
0.00022413
0.00022133
0.000217913
0.000216243
0.000215935
0.000213788
)
;

boundaryField
{
    inlet
    {
        type            fixedValue;
        value           uniform 0;
    }
    outlet
    {
        type            zeroGradient;
    }
    yzfaces
    {
        type            empty;
    }
}


// ************************************************************************* //
