/*--------------------------------*- C++ -*----------------------------------*\
| =========                 |                                                 |
| \\      /  F ield         | foam-extend: Open Source CFD                    |
|  \\    /   O peration     | Version:     5.0                                |
|   \\  /    A nd           | Web:         http://www.foam-extend.org         |
|    \\/     M anipulation  |                                                 |
\*---------------------------------------------------------------------------*/
FoamFile
{
    version     2.0;
    format      ascii;
    class       volScalarField;
    location    "60";
    object      H2O.gas;
}
// * * * * * * * * * * * * * * * * * * * * * * * * * * * * * * * * * * * * * //

dimensions      [0 0 0 0 0 0 0];

internalField   nonuniform List<scalar> 
100
(
0.0003744
0.000350416
0.000325293
0.000317843
0.000321521
0.000321571
0.000322897
0.000320652
0.000321659
0.000321821
0.000321589
0.000320844
0.000320822
0.000317684
0.000311217
0.000298333
0.000287867
0.000290053
0.000285965
0.000285837
0.000288365
0.000287388
0.000287523
0.000286515
0.000288124
0.000286401
0.000287299
0.000293396
0.000297274
0.000295964
0.000294649
0.000293771
0.00029426
0.000295728
0.000295515
0.000292498
0.000294533
0.000298195
0.000301485
0.00030173
0.000302146
0.000303328
0.000301025
0.000300415
0.000299878
0.000295563
0.000293994
0.000288423
0.00028453
0.000276993
0.000269375
0.000259328
0.000254014
0.000250196
0.000245112
0.000240607
0.00023754
0.000238013
0.000239582
0.000240194
0.000241441
0.000242913
0.000241605
0.00024337
0.000243112
0.000240919
0.000239436
0.000239001
0.000239546
0.000239594
0.00024
0.000241061
0.000241459
0.000241186
0.000240651
0.000241652
0.000242783
0.000243137
0.000242123
0.000242147
0.00024174
0.000243147
0.00024432
0.000243324
0.000242984
0.000244251
0.000242101
0.000240828
0.000240377
0.000239937
0.000239346
0.000235202
0.000231519
0.000226021
0.000222078
0.000219848
0.000217444
0.000215501
0.000213735
0.000210338
)
;

boundaryField
{
    inlet
    {
        type            fixedValue;
        value           uniform 0;
    }
    outlet
    {
        type            zeroGradient;
    }
    yzfaces
    {
        type            empty;
    }
}


// ************************************************************************* //
