/*--------------------------------*- C++ -*----------------------------------*\
| =========                 |                                                 |
| \\      /  F ield         | foam-extend: Open Source CFD                    |
|  \\    /   O peration     | Version:     5.0                                |
|   \\  /    A nd           | Web:         http://www.foam-extend.org         |
|    \\/     M anipulation  |                                                 |
\*---------------------------------------------------------------------------*/
FoamFile
{
    version     2.0;
    format      ascii;
    class       volScalarField;
    location    "60";
    object      Na.water;
}
// * * * * * * * * * * * * * * * * * * * * * * * * * * * * * * * * * * * * * //

dimensions      [0 0 0 0 0 0 0];

internalField   nonuniform List<scalar> 
100
(
0.00126741
0.000604911
0.000527603
0.00139925
0.00339074
0.00436179
0.00564673
0.00591141
0.00652554
0.00696313
0.0070562
0.0071385
0.00736737
0.00716273
0.00729347
0.00775088
0.00971341
0.0112831
0.0103586
0.0104553
0.0112934
0.0107965
0.010601
0.0106562
0.0110059
0.0102254
0.0107719
0.012213
0.0126827
0.0119489
0.0115099
0.0114098
0.0116376
0.011842
0.0112933
0.0108543
0.011738
0.0126397
0.0130167
0.0125617
0.0126612
0.0129906
0.0125339
0.0126367
0.0126402
0.0124418
0.0128153
0.0127879
0.0128343
0.0129481
0.0128547
0.0127394
0.0130056
0.0130491
0.0130098
0.0134565
0.0142362
0.0151644
0.0156888
0.0155278
0.0154214
0.01571
0.0157827
0.0158847
0.0151589
0.0144509
0.0142705
0.0144061
0.0146529
0.0147358
0.0149097
0.015113
0.0149294
0.0148069
0.0149736
0.0152531
0.0153599
0.0154417
0.0150442
0.0149691
0.014777
0.0153451
0.0153581
0.0150176
0.0150642
0.0150162
0.0145671
0.0143453
0.0145475
0.0146538
0.0148044
0.0145929
0.0148314
0.0149066
0.0153347
0.0156128
0.015752
0.0159556
0.0162926
0.0158867
)
;

boundaryField
{
    inlet
    {
        type            fixedValue;
        value           uniform 0;
    }
    outlet
    {
        type            zeroGradient;
    }
    yzfaces
    {
        type            empty;
    }
}


// ************************************************************************* //
