/*--------------------------------*- C++ -*----------------------------------*\
| =========                 |                                                 |
| \\      /  F ield         | foam-extend: Open Source CFD                    |
|  \\    /   O peration     | Version:     5.0                                |
|   \\  /    A nd           | Web:         http://www.foam-extend.org         |
|    \\/     M anipulation  |                                                 |
\*---------------------------------------------------------------------------*/
FoamFile
{
    version     2.0;
    format      ascii;
    class       volScalarField;
    location    "60";
    object      Na.water;
}
// * * * * * * * * * * * * * * * * * * * * * * * * * * * * * * * * * * * * * //

dimensions      [0 0 0 0 0 0 0];

internalField   nonuniform List<scalar> 
100
(
0.00130457
0.000620126
0.000479668
0.00133669
0.00334304
0.00447993
0.00582829
0.00592022
0.0065839
0.00683464
0.00706663
0.00713055
0.00733078
0.0078025
0.00834679
0.00838254
0.00879646
0.00940218
0.00966686
0.0100063
0.0120485
0.012996
0.0115098
0.0105144
0.0100962
0.010277
0.0106697
0.0116476
0.0121528
0.0118811
0.0121012
0.011882
0.011762
0.0123585
0.0122871
0.0123859
0.0123182
0.0122564
0.012504
0.012728
0.0128104
0.0126305
0.0127381
0.0125635
0.0125292
0.012753
0.0125597
0.0123021
0.0124997
0.0124975
0.0130005
0.0133766
0.0143423
0.0153773
0.0156862
0.01533
0.0146507
0.0140584
0.0138601
0.0136675
0.013994
0.0145354
0.0150489
0.0154331
0.0152758
0.015378
0.0152861
0.0152013
0.0151039
0.0152013
0.0156109
0.0153995
0.0148547
0.0145902
0.0145679
0.014528
0.0149123
0.0149087
0.015169
0.0149349
0.0150646
0.0150004
0.0149549
0.0147667
0.0150045
0.0150828
0.015204
0.0152836
0.0151289
0.0152401
0.0151018
0.015062
0.0152651
0.0153196
0.01546
0.0157624
0.0158269
0.0160605
0.016268
0.0156328
)
;

boundaryField
{
    inlet
    {
        type            fixedValue;
        value           uniform 0;
    }
    outlet
    {
        type            zeroGradient;
    }
    yzfaces
    {
        type            empty;
    }
}


// ************************************************************************* //
