/*--------------------------------*- C++ -*----------------------------------*\
| =========                 |                                                 |
| \\      /  F ield         | foam-extend: Open Source CFD                    |
|  \\    /   O peration     | Version:     5.0                                |
|   \\  /    A nd           | Web:         http://www.foam-extend.org         |
|    \\/     M anipulation  |                                                 |
\*---------------------------------------------------------------------------*/
FoamFile
{
    version     2.0;
    format      ascii;
    class       surfaceScalarField;
    location    "60";
    object      phi;
}
// * * * * * * * * * * * * * * * * * * * * * * * * * * * * * * * * * * * * * //

dimensions      [0 3 -1 0 0 0 0];

internalField   nonuniform List<scalar> 
99
(
1.22296e-06
1.2114e-06
1.23366e-06
1.24697e-06
1.24511e-06
1.23938e-06
1.24974e-06
1.24695e-06
1.23152e-06
1.24093e-06
1.24662e-06
1.24213e-06
1.24166e-06
1.23427e-06
1.22398e-06
1.20372e-06
1.21778e-06
1.20688e-06
1.20916e-06
1.2085e-06
1.20769e-06
1.212e-06
1.21212e-06
1.22341e-06
1.22821e-06
1.23951e-06
1.24975e-06
1.2562e-06
1.25578e-06
1.24594e-06
1.25711e-06
1.25505e-06
1.26855e-06
1.27172e-06
1.26984e-06
1.26467e-06
1.25885e-06
1.26816e-06
1.26414e-06
1.27012e-06
1.27703e-06
1.27693e-06
1.27641e-06
1.28709e-06
1.28745e-06
1.28122e-06
1.28513e-06
1.29862e-06
1.30467e-06
1.31029e-06
1.29373e-06
1.28629e-06
1.27884e-06
1.29207e-06
1.28396e-06
1.29243e-06
1.29034e-06
1.29884e-06
1.29966e-06
1.29626e-06
1.29832e-06
1.30912e-06
1.29155e-06
1.307e-06
1.3057e-06
1.30366e-06
1.31637e-06
1.31827e-06
1.31335e-06
1.32689e-06
1.33724e-06
1.34833e-06
1.34617e-06
1.34463e-06
1.35662e-06
1.3703e-06
1.38197e-06
1.38487e-06
1.38075e-06
1.38622e-06
1.38937e-06
1.38825e-06
1.39348e-06
1.39597e-06
1.4086e-06
1.40896e-06
1.41331e-06
1.42234e-06
1.41892e-06
1.4239e-06
1.43121e-06
1.44042e-06
1.4417e-06
1.44142e-06
1.45285e-06
1.45364e-06
1.45985e-06
1.46212e-06
1.46601e-06
)
;

boundaryField
{
    inlet
    {
        type            calculated;
        value           uniform -1.225e-06;
    }
    outlet
    {
        type            calculated;
        value           uniform 1.4621e-06;
    }
    yzfaces
    {
        type            empty;
    }
}


// ************************************************************************* //
