/*--------------------------------*- C++ -*----------------------------------*\
| =========                 |                                                 |
| \\      /  F ield         | foam-extend: Open Source CFD                    |
|  \\    /   O peration     | Version:     5.0                                |
|   \\  /    A nd           | Web:         http://www.foam-extend.org         |
|    \\/     M anipulation  |                                                 |
\*---------------------------------------------------------------------------*/
FoamFile
{
    version     2.0;
    format      ascii;
    class       surfaceScalarField;
    location    "60";
    object      phi;
}
// * * * * * * * * * * * * * * * * * * * * * * * * * * * * * * * * * * * * * //

dimensions      [0 3 -1 0 0 0 0];

internalField   nonuniform List<scalar> 
99
(
1.21741e-06
1.21513e-06
1.2353e-06
1.23144e-06
1.22568e-06
1.2113e-06
1.20178e-06
1.21236e-06
1.21447e-06
1.20389e-06
1.20543e-06
1.19693e-06
1.19886e-06
1.19597e-06
1.2003e-06
1.18968e-06
1.20976e-06
1.21596e-06
1.21898e-06
1.23647e-06
1.22955e-06
1.23559e-06
1.2156e-06
1.21657e-06
1.20961e-06
1.21668e-06
1.20646e-06
1.19754e-06
1.19302e-06
1.19914e-06
1.19379e-06
1.19539e-06
1.17631e-06
1.18555e-06
1.18974e-06
1.18801e-06
1.17527e-06
1.16653e-06
1.1527e-06
1.15143e-06
1.14156e-06
1.13214e-06
1.13171e-06
1.12627e-06
1.11759e-06
1.12329e-06
1.12486e-06
1.11071e-06
1.09871e-06
1.09368e-06
1.08125e-06
1.08592e-06
1.07253e-06
1.07122e-06
1.06875e-06
1.06064e-06
1.07047e-06
1.05341e-06
1.03837e-06
1.05194e-06
1.04982e-06
1.04907e-06
1.0496e-06
1.05792e-06
1.06033e-06
1.06866e-06
1.07259e-06
1.07086e-06
1.08321e-06
1.09258e-06
1.09689e-06
1.10178e-06
1.1048e-06
1.10192e-06
1.10783e-06
1.11546e-06
1.12122e-06
1.11789e-06
1.12456e-06
1.13389e-06
1.13074e-06
1.14374e-06
1.14033e-06
1.14121e-06
1.14566e-06
1.14632e-06
1.15805e-06
1.15572e-06
1.16667e-06
1.15867e-06
1.17272e-06
1.1666e-06
1.15162e-06
1.14796e-06
1.14051e-06
1.14214e-06
1.13987e-06
1.13788e-06
1.13495e-06
)
;

boundaryField
{
    inlet
    {
        type            calculated;
        value           uniform -1.225e-06;
    }
    outlet
    {
        type            calculated;
        value           uniform 1.13755e-06;
    }
    yzfaces
    {
        type            empty;
    }
}


// ************************************************************************* //
