/*--------------------------------*- C++ -*----------------------------------*\
| =========                 |                                                 |
| \\      /  F ield         | foam-extend: Open Source CFD                    |
|  \\    /   O peration     | Version:     5.0                                |
|   \\  /    A nd           | Web:         http://www.foam-extend.org         |
|    \\/     M anipulation  |                                                 |
\*---------------------------------------------------------------------------*/
FoamFile
{
    version     2.0;
    format      ascii;
    class       surfaceScalarField;
    location    "60";
    object      phi.water;
}
// * * * * * * * * * * * * * * * * * * * * * * * * * * * * * * * * * * * * * //

dimensions      [0 3 -1 0 0 0 0];

internalField   nonuniform List<scalar> 
99
(
8.28982e-09
3.15108e-08
8.45678e-08
9.98247e-08
8.55357e-08
9.38625e-08
8.51743e-08
9.42421e-08
8.77696e-08
9.05728e-08
9.04162e-08
9.11434e-08
9.08756e-08
8.95433e-08
9.90575e-08
1.26671e-07
1.60827e-07
1.70483e-07
1.72572e-07
1.80648e-07
1.63548e-07
1.41914e-07
1.44868e-07
1.59887e-07
1.77519e-07
1.77649e-07
1.79954e-07
1.67074e-07
1.52014e-07
1.53215e-07
1.48275e-07
1.49342e-07
1.54657e-07
1.46739e-07
1.41881e-07
1.37098e-07
1.33509e-07
1.34288e-07
1.36614e-07
1.33428e-07
1.32123e-07
1.33542e-07
1.3195e-07
1.38265e-07
1.4439e-07
1.43387e-07
1.57454e-07
1.6453e-07
1.79684e-07
2.03198e-07
2.11773e-07
2.4792e-07
2.89951e-07
3.05602e-07
3.26292e-07
3.43129e-07
3.54669e-07
3.70535e-07
3.79961e-07
3.86688e-07
3.93667e-07
3.98012e-07
3.9053e-07
3.77814e-07
3.7929e-07
3.75274e-07
3.72124e-07
3.66226e-07
3.65914e-07
3.79023e-07
3.64948e-07
3.72197e-07
3.73106e-07
3.8114e-07
3.8755e-07
4.01764e-07
4.06563e-07
4.05656e-07
3.81638e-07
3.8693e-07
3.85411e-07
3.8147e-07
3.75857e-07
3.85794e-07
3.90993e-07
3.96877e-07
3.94848e-07
3.95966e-07
3.94909e-07
4.00768e-07
4.07612e-07
4.23933e-07
4.33e-07
4.64703e-07
5.07595e-07
5.30005e-07
5.62102e-07
5.77767e-07
5.79211e-07
)
;

boundaryField
{
    inlet
    {
        type            fixedValue;
        value           uniform 0;
    }
    outlet
    {
        type            calculated;
        value           uniform 6.02605e-07;
    }
    yzfaces
    {
        type            empty;
    }
}


// ************************************************************************* //
