/*--------------------------------*- C++ -*----------------------------------*\
| =========                 |                                                 |
| \\      /  F ield         | foam-extend: Open Source CFD                    |
|  \\    /   O peration     | Version:     5.0                                |
|   \\  /    A nd           | Web:         http://www.foam-extend.org         |
|    \\/     M anipulation  |                                                 |
\*---------------------------------------------------------------------------*/
FoamFile
{
    version     2.0;
    format      ascii;
    class       surfaceScalarField;
    location    "60";
    object      phi.water;
}
// * * * * * * * * * * * * * * * * * * * * * * * * * * * * * * * * * * * * * //

dimensions      [0 3 -1 0 0 0 0];

internalField   nonuniform List<scalar> 
99
(
8.11416e-09
3.25262e-08
7.86827e-08
9.91314e-08
8.86764e-08
8.83437e-08
8.35395e-08
9.05048e-08
8.77573e-08
8.65945e-08
8.69688e-08
8.81676e-08
8.61725e-08
8.98996e-08
9.88083e-08
1.27246e-07
1.65068e-07
1.54801e-07
1.69422e-07
1.74673e-07
1.635e-07
1.67744e-07
1.63601e-07
1.68823e-07
1.61149e-07
1.68622e-07
1.69269e-07
1.49391e-07
1.36009e-07
1.40073e-07
1.42673e-07
1.46169e-07
1.4334e-07
1.39877e-07
1.38655e-07
1.49696e-07
1.44208e-07
1.33876e-07
1.23008e-07
1.22262e-07
1.21324e-07
1.14851e-07
1.21055e-07
1.21557e-07
1.19644e-07
1.3149e-07
1.32459e-07
1.44996e-07
1.50536e-07
1.70062e-07
1.87765e-07
2.24569e-07
2.42292e-07
2.54307e-07
2.73775e-07
2.9202e-07
3.12929e-07
3.04946e-07
2.94686e-07
2.96828e-07
2.89571e-07
2.81734e-07
2.90392e-07
2.83055e-07
2.83233e-07
2.94876e-07
3.0392e-07
3.07584e-07
3.07413e-07
3.09645e-07
3.09626e-07
3.05134e-07
3.04165e-07
3.04473e-07
3.10232e-07
3.08251e-07
3.02603e-07
2.99355e-07
3.06969e-07
3.08432e-07
3.11464e-07
3.08279e-07
2.99792e-07
3.05313e-07
3.09811e-07
3.00542e-07
3.14765e-07
3.20649e-07
3.25844e-07
3.2608e-07
3.27717e-07
3.45834e-07
3.58853e-07
3.89196e-07
4.11669e-07
4.26796e-07
4.40313e-07
4.51536e-07
4.60873e-07
)
;

boundaryField
{
    inlet
    {
        type            fixedValue;
        value           uniform 0;
    }
    outlet
    {
        type            calculated;
        value           uniform 4.90994e-07;
    }
    yzfaces
    {
        type            empty;
    }
}


// ************************************************************************* //
