/*--------------------------------*- C++ -*----------------------------------*\
| =========                 |                                                 |
| \\      /  F ield         | foam-extend: Open Source CFD                    |
|  \\    /   O peration     | Version:     5.0                                |
|   \\  /    A nd           | Web:         http://www.foam-extend.org         |
|    \\/     M anipulation  |                                                 |
\*---------------------------------------------------------------------------*/
FoamFile
{
    version     2.0;
    format      ascii;
    class       volVectorField;
    location    "60";
    object      U.gas;
}
// * * * * * * * * * * * * * * * * * * * * * * * * * * * * * * * * * * * * * //

dimensions      [0 1 -1 0 0 0 0];

internalField   nonuniform List<vector> 
100
(
(0.00519927 0 0)
(0.00551826 0 0)
(0.00600973 0 0)
(0.00617707 0 0)
(0.00611476 0 0)
(0.00614643 0 0)
(0.0061015 0 0)
(0.00618327 0 0)
(0.00610032 0 0)
(0.0061005 0 0)
(0.0061378 0 0)
(0.00615035 0 0)
(0.00614268 0 0)
(0.0061511 0 0)
(0.006244 0 0)
(0.00642862 0 0)
(0.00663818 0 0)
(0.00671773 0 0)
(0.00670581 0 0)
(0.00672441 0 0)
(0.00658358 0 0)
(0.00646578 0 0)
(0.00652964 0 0)
(0.00666986 0 0)
(0.00681244 0 0)
(0.0068395 0 0)
(0.00688306 0 0)
(0.00682233 0 0)
(0.00674606 0 0)
(0.00672691 0 0)
(0.00669418 0 0)
(0.00672726 0 0)
(0.00676741 0 0)
(0.00675243 0 0)
(0.00671638 0 0)
(0.00666477 0 0)
(0.00661539 0 0)
(0.00662756 0 0)
(0.00665072 0 0)
(0.00662816 0 0)
(0.0066535 0 0)
(0.0066784 0 0)
(0.00667966 0 0)
(0.00675285 0 0)
(0.00682715 0 0)
(0.00683013 0 0)
(0.00692785 0 0)
(0.00703819 0 0)
(0.00721806 0 0)
(0.00742279 0 0)
(0.00750723 0 0)
(0.00770848 0 0)
(0.00791609 0 0)
(0.00802414 0 0)
(0.00816328 0 0)
(0.0082546 0 0)
(0.00834494 0 0)
(0.00843534 0 0)
(0.00851705 0 0)
(0.00854455 0 0)
(0.0085756 0 0)
(0.00862052 0 0)
(0.00856501 0 0)
(0.00848754 0 0)
(0.00854052 0 0)
(0.00849956 0 0)
(0.00850112 0 0)
(0.00851022 0 0)
(0.00850812 0 0)
(0.00857275 0 0)
(0.00857025 0 0)
(0.00867304 0 0)
(0.00871474 0 0)
(0.00874045 0 0)
(0.00880062 0 0)
(0.0089361 0 0)
(0.00901872 0 0)
(0.00903754 0 0)
(0.00892026 0 0)
(0.00895419 0 0)
(0.00895889 0 0)
(0.00893829 0 0)
(0.00892779 0 0)
(0.00900549 0 0)
(0.00906612 0 0)
(0.00914022 0 0)
(0.00913307 0 0)
(0.00916788 0 0)
(0.00918992 0 0)
(0.00921869 0 0)
(0.00930375 0 0)
(0.00944141 0 0)
(0.00954036 0 0)
(0.00973487 0 0)
(0.00997311 0 0)
(0.0101166 0 0)
(0.0102777 0 0)
(0.0103691 0 0)
(0.0103983 0 0)
(0.0104916 0 0)
)
;

boundaryField
{
    inlet
    {
        type            fixedValue;
        value           uniform (0.005 0 0);
    }
    outlet
    {
        type            zeroGradient;
    }
    yzfaces
    {
        type            empty;
    }
}


// ************************************************************************* //
