/*--------------------------------*- C++ -*----------------------------------*\
| =========                 |                                                 |
| \\      /  F ield         | foam-extend: Open Source CFD                    |
|  \\    /   O peration     | Version:     5.0                                |
|   \\  /    A nd           | Web:         http://www.foam-extend.org         |
|    \\/     M anipulation  |                                                 |
\*---------------------------------------------------------------------------*/
FoamFile
{
    version     2.0;
    format      ascii;
    class       volVectorField;
    location    "60";
    object      U.gas;
}
// * * * * * * * * * * * * * * * * * * * * * * * * * * * * * * * * * * * * * //

dimensions      [0 1 -1 0 0 0 0];

internalField   nonuniform List<vector> 
100
(
(0.00518523 0 0)
(0.00551579 0 0)
(0.00597909 0 0)
(0.00615327 0 0)
(0.00605821 0 0)
(0.0060087 0 0)
(0.00592568 0 0)
(0.00596952 0 0)
(0.0059818 0 0)
(0.00595827 0 0)
(0.00594026 0 0)
(0.00593656 0 0)
(0.00592054 0 0)
(0.00597571 0 0)
(0.00610053 0 0)
(0.0063397 0 0)
(0.00658469 0 0)
(0.00660224 0 0)
(0.00672092 0 0)
(0.00677785 0 0)
(0.00674884 0 0)
(0.00677037 0 0)
(0.00672838 0 0)
(0.00669912 0 0)
(0.00664565 0 0)
(0.00668586 0 0)
(0.00665573 0 0)
(0.00647005 0 0)
(0.00635547 0 0)
(0.00638915 0 0)
(0.00641839 0 0)
(0.00642634 0 0)
(0.00636848 0 0)
(0.00631161 0 0)
(0.00635273 0 0)
(0.0064232 0 0)
(0.00633947 0 0)
(0.00620762 0 0)
(0.00608394 0 0)
(0.00604096 0 0)
(0.0060037 0 0)
(0.00593063 0 0)
(0.0059497 0 0)
(0.00594515 0 0)
(0.00591804 0 0)
(0.00599422 0 0)
(0.00604303 0 0)
(0.00612154 0 0)
(0.00612743 0 0)
(0.00623818 0 0)
(0.00635226 0 0)
(0.00655877 0 0)
(0.0066529 0 0)
(0.00669753 0 0)
(0.00681272 0 0)
(0.00689207 0 0)
(0.00697433 0 0)
(0.00693265 0 0)
(0.00678649 0 0)
(0.00676761 0 0)
(0.00677277 0 0)
(0.00672679 0 0)
(0.00676249 0 0)
(0.00674256 0 0)
(0.00678636 0 0)
(0.00687917 0 0)
(0.00695591 0 0)
(0.00697219 0 0)
(0.0069908 0 0)
(0.00706117 0 0)
(0.00709446 0 0)
(0.00709544 0 0)
(0.00711153 0 0)
(0.00712007 0 0)
(0.0071444 0 0)
(0.0071591 0 0)
(0.00717232 0 0)
(0.00717217 0 0)
(0.00721166 0 0)
(0.0072609 0 0)
(0.00729253 0 0)
(0.00728349 0 0)
(0.00728317 0 0)
(0.00730513 0 0)
(0.00733029 0 0)
(0.00731007 0 0)
(0.00741333 0 0)
(0.00747718 0 0)
(0.00751623 0 0)
(0.00753783 0 0)
(0.00757439 0 0)
(0.00772558 0 0)
(0.00776207 0 0)
(0.00786649 0 0)
(0.00794505 0 0)
(0.00798894 0 0)
(0.00806206 0 0)
(0.00810751 0 0)
(0.00814568 0 0)
(0.00825861 0 0)
)
;

boundaryField
{
    inlet
    {
        type            fixedValue;
        value           uniform (0.005 0 0);
    }
    outlet
    {
        type            zeroGradient;
    }
    yzfaces
    {
        type            empty;
    }
}


// ************************************************************************* //
