/*--------------------------------*- C++ -*----------------------------------*\
| =========                 |                                                 |
| \\      /  F ield         | foam-extend: Open Source CFD                    |
|  \\    /   O peration     | Version:     5.0                                |
|   \\  /    A nd           | Web:         http://www.foam-extend.org         |
|    \\/     M anipulation  |                                                 |
\*---------------------------------------------------------------------------*/
FoamFile
{
    version     2.0;
    format      ascii;
    class       volVectorField;
    location    "60";
    object      U.water;
}
// * * * * * * * * * * * * * * * * * * * * * * * * * * * * * * * * * * * * * //

dimensions      [0 1 -1 0 0 0 0];

internalField   nonuniform List<vector> 
100
(
(5.9518e-06 0 0)
(1.97987e-05 0 0)
(4.45215e-05 0 0)
(6.97401e-05 0 0)
(7.77841e-05 0 0)
(7.20824e-05 0 0)
(7.11791e-05 0 0)
(7.02131e-05 0 0)
(7.30324e-05 0 0)
(7.13214e-05 0 0)
(7.09811e-05 0 0)
(7.12858e-05 0 0)
(7.19621e-05 0 0)
(7.27516e-05 0 0)
(7.87993e-05 0 0)
(9.22982e-05 0 0)
(0.000115756 0 0)
(0.000132479 0 0)
(0.000130981 0 0)
(0.000139337 0 0)
(0.000139194 0 0)
(0.000134976 0 0)
(0.000135863 0 0)
(0.000134986 0 0)
(0.000135819 0 0)
(0.0001338 0 0)
(0.000136308 0 0)
(0.000131286 0 0)
(0.000118313 0 0)
(0.000112626 0 0)
(0.000115216 0 0)
(0.000117537 0 0)
(0.000117967 0 0)
(0.000116115 0 0)
(0.000114506 0 0)
(0.00011625 0 0)
(0.000119612 0 0)
(0.000113783 0 0)
(0.000105816 0 0)
(0.000100095 0 0)
(9.92788e-05 0 0)
(9.74663e-05 0 0)
(9.59479e-05 0 0)
(9.90893e-05 0 0)
(9.95561e-05 0 0)
(0.000101886 0 0)
(0.000108978 0 0)
(0.000113103 0 0)
(0.000121936 0 0)
(0.000131286 0 0)
(0.00014717 0 0)
(0.000167334 0 0)
(0.00019033 0 0)
(0.00020347 0 0)
(0.00021579 0 0)
(0.000230684 0 0)
(0.00024557 0 0)
(0.000252076 0 0)
(0.00024552 0 0)
(0.000241279 0 0)
(0.000239327 0 0)
(0.000234329 0 0)
(0.000232276 0 0)
(0.00023475 0 0)
(0.000231708 0 0)
(0.000235451 0 0)
(0.000243618 0 0)
(0.000248754 0 0)
(0.000250873 0 0)
(0.000251452 0 0)
(0.000252241 0 0)
(0.000251001 0 0)
(0.000248816 0 0)
(0.000248309 0 0)
(0.000249897 0 0)
(0.000252009 0 0)
(0.000249356 0 0)
(0.000246065 0 0)
(0.000246863 0 0)
(0.00025112 0 0)
(0.000251957 0 0)
(0.000252793 0 0)
(0.000248969 0 0)
(0.000246588 0 0)
(0.000250204 0 0)
(0.000250405 0 0)
(0.000250603 0 0)
(0.000258763 0 0)
(0.000263617 0 0)
(0.000265989 0 0)
(0.00026837 0 0)
(0.000274921 0 0)
(0.000288976 0 0)
(0.000305322 0 0)
(0.000326443 0 0)
(0.000342439 0 0)
(0.00035392 0 0)
(0.00036426 0 0)
(0.000373408 0 0)
(0.000386714 0 0)
)
;

boundaryField
{
    inlet
    {
        type            fixedValue;
        value           uniform (0 0 0);
    }
    outlet
    {
        type            zeroGradient;
    }
    yzfaces
    {
        type            empty;
    }
}


// ************************************************************************* //
