/*--------------------------------*- C++ -*----------------------------------*\
| =========                 |                                                 |
| \\      /  F ield         | foam-extend: Open Source CFD                    |
|  \\    /   O peration     | Version:     5.0                                |
|   \\  /    A nd           | Web:         http://www.foam-extend.org         |
|    \\/     M anipulation  |                                                 |
\*---------------------------------------------------------------------------*/
FoamFile
{
    version     2.0;
    format      ascii;
    class       volVectorField;
    location    "60";
    object      U.water;
}
// * * * * * * * * * * * * * * * * * * * * * * * * * * * * * * * * * * * * * //

dimensions      [0 1 -1 0 0 0 0];

internalField   nonuniform List<vector> 
100
(
(6.02116e-06 0 0)
(1.977e-05 0 0)
(4.58182e-05 0 0)
(7.27526e-05 0 0)
(7.78093e-05 0 0)
(7.17159e-05 0 0)
(7.47488e-05 0 0)
(7.18645e-05 0 0)
(7.50954e-05 0 0)
(7.25803e-05 0 0)
(7.39724e-05 0 0)
(7.40327e-05 0 0)
(7.46324e-05 0 0)
(7.51286e-05 0 0)
(7.87938e-05 0 0)
(9.23028e-05 0 0)
(0.000115676 0 0)
(0.000134354 0 0)
(0.000140011 0 0)
(0.000141726 0 0)
(0.000140479 0 0)
(0.000127353 0 0)
(0.000117892 0 0)
(0.000124306 0 0)
(0.000135953 0 0)
(0.000144721 0 0)
(0.00014439 0 0)
(0.000141748 0 0)
(0.000131776 0 0)
(0.000124065 0 0)
(0.000123826 0 0)
(0.000121403 0 0)
(0.000122831 0 0)
(0.000123235 0 0)
(0.000117967 0 0)
(0.000114077 0 0)
(0.000110752 0 0)
(0.000109375 0 0)
(0.000110048 0 0)
(0.000110507 0 0)
(0.000108564 0 0)
(0.00010823 0 0)
(0.000108808 0 0)
(0.000110189 0 0)
(0.000114965 0 0)
(0.000118642 0 0)
(0.000122272 0 0)
(0.000132111 0 0)
(0.000141056 0 0)
(0.000155633 0 0)
(0.000171632 0 0)
(0.00018811 0 0)
(0.000217593 0 0)
(0.000243342 0 0)
(0.000257473 0 0)
(0.000272781 0 0)
(0.000284584 0 0)
(0.000295594 0 0)
(0.000306036 0 0)
(0.000312841 0 0)
(0.000317898 0 0)
(0.000322618 0 0)
(0.00032133 0 0)
(0.000314605 0 0)
(0.000308311 0 0)
(0.000307621 0 0)
(0.000304661 0 0)
(0.000302036 0 0)
(0.000299376 0 0)
(0.000302094 0 0)
(0.000304904 0 0)
(0.00030028 0 0)
(0.000304354 0 0)
(0.000307472 0 0)
(0.000313551 0 0)
(0.000320725 0 0)
(0.000328867 0 0)
(0.000329848 0 0)
(0.00032335 0 0)
(0.000312889 0 0)
(0.00031504 0 0)
(0.000313004 0 0)
(0.00031001 0 0)
(0.000309837 0 0)
(0.000316884 0 0)
(0.00032057 0 0)
(0.000323232 0 0)
(0.000322943 0 0)
(0.000323107 0 0)
(0.00032505 0 0)
(0.000330217 0 0)
(0.000338787 0 0)
(0.000351515 0 0)
(0.000366604 0 0)
(0.000395166 0 0)
(0.000423618 0 0)
(0.000444395 0 0)
(0.000464073 0 0)
(0.000473461 0 0)
(0.000481097 0 0)
)
;

boundaryField
{
    inlet
    {
        type            fixedValue;
        value           uniform (0 0 0);
    }
    outlet
    {
        type            zeroGradient;
    }
    yzfaces
    {
        type            empty;
    }
}


// ************************************************************************* //
