/*--------------------------------*- C++ -*----------------------------------*\
| =========                 |                                                 |
| \\      /  F ield         | foam-extend: Open Source CFD                    |
|  \\    /   O peration     | Version:     5.0                                |
|   \\  /    A nd           | Web:         http://www.foam-extend.org         |
|    \\/     M anipulation  |                                                 |
\*---------------------------------------------------------------------------*/
FoamFile
{
    version     2.0;
    format      ascii;
    class       volScalarField;
    location    "4";
    object      H2O.gas;
}
// * * * * * * * * * * * * * * * * * * * * * * * * * * * * * * * * * * * * * //

dimensions      [0 0 0 0 0 0 0];

internalField   nonuniform List<scalar> 
100
(
0.000294662
0.000265339
0.000245579
0.000231096
0.000218761
0.000210099
0.000200697
0.00019338
0.000185938
0.000180897
0.000175091
0.000170608
0.000167533
0.000163267
0.000160175
0.000156759
0.000153731
0.000150201
0.000147119
0.000144534
0.000141609
0.000138927
0.000136408
0.000134089
0.000131806
0.000129696
0.000127385
0.000125319
0.000123534
0.000121783
0.000119999
0.000118115
0.000116503
0.000114615
0.00011322
0.000111505
0.000109899
0.000108304
0.000106856
0.000105341
0.000104052
0.000102476
0.000101082
9.96938e-05
9.81163e-05
9.6696e-05
9.52051e-05
9.37705e-05
9.23131e-05
9.08732e-05
8.92775e-05
8.76592e-05
8.60146e-05
8.4424e-05
8.2784e-05
8.12094e-05
7.9486e-05
0.00698759
0.0100509
0.0128328
0.0153186
0.0175209
0.01937
0.0209234
0.0220819
0.0229079
0.0233544
0.0234742
0.0231806
0.0225394
0.0215411
0.020202
0.0186986
0.0170454
0.0153924
0.01391
0.0126791
0.0117467
0.0111055
0.010663
0.0103974
0.010235
0.0101318
0.0100717
0.0100442
0.0100222
0.0100223
0.0100061
0.0100093
0.00999991
0.0100045
0.0100063
0.0100002
0.0100073
0.010005
0.0100075
0.0100098
0.0100115
0.0100054
0.0100012
)
;

boundaryField
{
    inlet
    {
        type            fixedValue;
        value           uniform 0;
    }
    outlet
    {
        type            zeroGradient;
    }
    yzfaces
    {
        type            empty;
    }
}


// ************************************************************************* //
