/*--------------------------------*- C++ -*----------------------------------*\
| =========                 |                                                 |
| \\      /  F ield         | foam-extend: Open Source CFD                    |
|  \\    /   O peration     | Version:     5.0                                |
|   \\  /    A nd           | Web:         http://www.foam-extend.org         |
|    \\/     M anipulation  |                                                 |
\*---------------------------------------------------------------------------*/
FoamFile
{
    version     2.0;
    format      ascii;
    class       surfaceScalarField;
    location    "4";
    object      phi;
}
// * * * * * * * * * * * * * * * * * * * * * * * * * * * * * * * * * * * * * //

dimensions      [0 3 -1 0 0 0 0];

internalField   nonuniform List<scalar> 
99
(
1.22568e-06
1.22608e-06
1.23075e-06
1.22904e-06
1.23442e-06
1.23112e-06
1.23725e-06
1.23917e-06
1.24697e-06
1.23716e-06
1.24229e-06
1.24542e-06
1.24391e-06
1.24917e-06
1.25107e-06
1.25647e-06
1.25433e-06
1.25891e-06
1.26293e-06
1.25802e-06
1.26051e-06
1.26196e-06
1.26191e-06
1.26334e-06
1.26627e-06
1.26518e-06
1.26686e-06
1.26924e-06
1.26767e-06
1.26653e-06
1.26524e-06
1.26353e-06
1.26053e-06
1.26276e-06
1.26156e-06
1.26249e-06
1.26196e-06
1.26171e-06
1.26384e-06
1.26467e-06
1.26219e-06
1.26437e-06
1.26456e-06
1.25872e-06
1.26041e-06
1.26057e-06
1.26048e-06
1.26023e-06
1.25977e-06
1.25319e-06
1.25187e-06
1.25322e-06
1.25445e-06
1.25372e-06
1.2539e-06
1.25192e-06
1.25101e-06
1.25161e-06
1.25335e-06
1.25262e-06
1.25241e-06
1.25188e-06
1.2507e-06
1.25011e-06
1.24962e-06
1.24991e-06
1.25002e-06
1.24891e-06
1.2474e-06
1.24754e-06
1.24584e-06
1.24553e-06
1.24532e-06
1.24536e-06
1.24518e-06
1.24493e-06
1.24601e-06
1.24763e-06
1.24632e-06
1.24576e-06
1.24546e-06
1.2459e-06
1.24571e-06
1.24573e-06
1.24719e-06
1.24796e-06
1.24626e-06
1.24626e-06
1.24582e-06
1.24665e-06
1.2495e-06
1.24891e-06
1.25097e-06
1.25256e-06
1.2546e-06
1.25545e-06
1.25732e-06
1.25808e-06
1.25922e-06
)
;

boundaryField
{
    inlet
    {
        type            calculated;
        value           uniform -1.225e-06;
    }
    outlet
    {
        type            calculated;
        value           uniform 1.25988e-06;
    }
    yzfaces
    {
        type            empty;
    }
}


// ************************************************************************* //
