/*--------------------------------*- C++ -*----------------------------------*\
| =========                 |                                                 |
| \\      /  F ield         | foam-extend: Open Source CFD                    |
|  \\    /   O peration     | Version:     5.0                                |
|   \\  /    A nd           | Web:         http://www.foam-extend.org         |
|    \\/     M anipulation  |                                                 |
\*---------------------------------------------------------------------------*/
FoamFile
{
    version     2.0;
    format      ascii;
    class       volVectorField;
    location    "4";
    object      U.water;
}
// * * * * * * * * * * * * * * * * * * * * * * * * * * * * * * * * * * * * * //

dimensions      [0 1 -1 0 0 0 0];

internalField   nonuniform List<vector> 
100
(
(6.01945e-05 0 0)
(0.000142458 0 0)
(0.000213251 0 0)
(0.000278355 0 0)
(0.000340862 0 0)
(0.000399965 0 0)
(0.000455502 0 0)
(0.000517487 0 0)
(0.000577732 0 0)
(0.000633778 0 0)
(0.000683714 0 0)
(0.000740933 0 0)
(0.000785631 0 0)
(0.000828264 0 0)
(0.000878238 0 0)
(0.000923262 0 0)
(0.000969587 0 0)
(0.00101816 0 0)
(0.00107384 0 0)
(0.00112068 0 0)
(0.00116578 0 0)
(0.00121735 0 0)
(0.00126626 0 0)
(0.00131462 0 0)
(0.00136354 0 0)
(0.0014098 0 0)
(0.00145711 0 0)
(0.00150957 0 0)
(0.00155527 0 0)
(0.00159517 0 0)
(0.00163563 0 0)
(0.0016788 0 0)
(0.00172129 0 0)
(0.00176608 0 0)
(0.00181236 0 0)
(0.00185426 0 0)
(0.00190162 0 0)
(0.00194678 0 0)
(0.00199363 0 0)
(0.00204036 0 0)
(0.00208264 0 0)
(0.00212647 0 0)
(0.00217639 0 0)
(0.00221662 0 0)
(0.00226187 0 0)
(0.0023146 0 0)
(0.00236426 0 0)
(0.00241479 0 0)
(0.00246543 0 0)
(0.00251155 0 0)
(0.00255839 0 0)
(0.00261762 0 0)
(0.0026824 0 0)
(0.00274558 0 0)
(0.00280765 0 0)
(0.00286945 0 0)
(0.00293209 0 0)
(0.0030017 0 0)
(0.00307624 0 0)
(0.00315208 0 0)
(0.00322823 0 0)
(0.00330935 0 0)
(0.003393 0 0)
(0.00348267 0 0)
(0.00357866 0 0)
(0.0036836 0 0)
(0.00379706 0 0)
(0.00391554 0 0)
(0.00403914 0 0)
(0.00417249 0 0)
(0.00430987 0 0)
(0.00444778 0 0)
(0.00458523 0 0)
(0.00471293 0 0)
(0.00482322 0 0)
(0.00491129 0 0)
(0.00497928 0 0)
(0.0050307 0 0)
(0.00506147 0 0)
(0.00507661 0 0)
(0.00508648 0 0)
(0.00509369 0 0)
(0.00509827 0 0)
(0.00510027 0 0)
(0.00510465 0 0)
(0.00510994 0 0)
(0.00510846 0 0)
(0.00510523 0 0)
(0.00510449 0 0)
(0.00510542 0 0)
(0.00511302 0 0)
(0.00511762 0 0)
(0.00512059 0 0)
(0.00512807 0 0)
(0.00513552 0 0)
(0.00514146 0 0)
(0.005147 0 0)
(0.00515238 0 0)
(0.00515629 0 0)
(0.00516011 0 0)
)
;

boundaryField
{
    inlet
    {
        type            fixedValue;
        value           uniform (0 0 0);
    }
    outlet
    {
        type            zeroGradient;
    }
    yzfaces
    {
        type            empty;
    }
}


// ************************************************************************* //
