/*--------------------------------*- C++ -*----------------------------------*\
| =========                 |                                                 |
| \\      /  F ield         | foam-extend: Open Source CFD                    |
|  \\    /   O peration     | Version:     5.0                                |
|   \\  /    A nd           | Web:         http://www.foam-extend.org         |
|    \\/     M anipulation  |                                                 |
\*---------------------------------------------------------------------------*/
FoamFile
{
    version     2.0;
    format      ascii;
    class       volScalarField;
    location    "5";
    object      alpha.gas;
}
// * * * * * * * * * * * * * * * * * * * * * * * * * * * * * * * * * * * * * //

dimensions      [0 0 0 0 0 0 0];

internalField   nonuniform List<scalar> 
100
(
0.156342
0.141719
0.13362
0.126677
0.120019
0.114594
0.110145
0.106169
0.102406
0.0991011
0.0964668
0.0939057
0.0914292
0.0894985
0.087936
0.0866892
0.0849279
0.0833609
0.0819687
0.0800738
0.0785917
0.0772885
0.07637
0.0752677
0.0743015
0.0731713
0.0720308
0.0710617
0.0700596
0.0690349
0.0680504
0.0671787
0.0663166
0.0655877
0.0648068
0.0639856
0.0631751
0.0623937
0.0616564
0.0608374
0.0601282
0.0593524
0.058653
0.057997
0.0573537
0.0567432
0.0560635
0.0554925
0.0548714
0.0543268
0.0537284
0.0531529
0.0525878
0.0520075
0.0514821
0.0508432
0.0502569
0.0496154
0.04894
0.0483375
0.0477087
0.047085
0.0464479
0.0457112
0.0450817
0.0444314
0.0437586
0.0430699
0.0424008
0.0417281
0.0410429
0.040313
0.0395579
0.038778
0.0379951
0.037149
0.036284
0.0353754
0.0344075
0.0333777
0.0322905
0.0311055
0.0298448
0.0284513
0.0269229
0.0252827
0.0235167
0.0216433
0.0197113
0.0177766
0.0159449
0.0143188
0.012981
0.0119612
0.0112394
0.0107636
0.0104621
0.0102768
0.0101647
0.0101038
)
;

boundaryField
{
    inlet
    {
        type            fixedValue;
        value           uniform 0.2;
    }
    outlet
    {
        type            zeroGradient;
    }
    yzfaces
    {
        type            empty;
    }
}


// ************************************************************************* //
