/*--------------------------------*- C++ -*----------------------------------*\
| =========                 |                                                 |
| \\      /  F ield         | foam-extend: Open Source CFD                    |
|  \\    /   O peration     | Version:     5.0                                |
|   \\  /    A nd           | Web:         http://www.foam-extend.org         |
|    \\/     M anipulation  |                                                 |
\*---------------------------------------------------------------------------*/
FoamFile
{
    version     2.0;
    format      ascii;
    class       volScalarField;
    location    "5";
    object      alpha.gas;
}
// * * * * * * * * * * * * * * * * * * * * * * * * * * * * * * * * * * * * * //

dimensions      [0 0 0 0 0 0 0];

internalField   nonuniform List<scalar> 
100
(
0.156391
0.142416
0.133624
0.126465
0.120489
0.114596
0.110424
0.106011
0.102731
0.0991591
0.0965727
0.0941739
0.0916181
0.0892869
0.0876014
0.086639
0.0852099
0.0838133
0.0818067
0.0803162
0.0787205
0.0772614
0.0760722
0.0748955
0.0740705
0.0731264
0.0718419
0.0709949
0.0700583
0.0691267
0.0682325
0.0672442
0.0664748
0.0658091
0.0648265
0.0639426
0.0632341
0.0624894
0.0617908
0.0609716
0.0602153
0.0595051
0.058789
0.0581083
0.0574133
0.0566812
0.0560616
0.05549
0.054842
0.0542343
0.0536394
0.0530315
0.0525265
0.0519366
0.0513295
0.0507066
0.0500947
0.0494167
0.0488721
0.0482447
0.0477106
0.0470326
0.0464528
0.0457839
0.0451079
0.0444565
0.043789
0.0431124
0.0424181
0.0417417
0.0410482
0.0403444
0.0396273
0.0388522
0.0380493
0.0372195
0.0363876
0.0354737
0.034479
0.0334703
0.0323835
0.0312139
0.0299271
0.0285308
0.0270204
0.025387
0.0236312
0.0217756
0.0198411
0.0179147
0.0160762
0.0144334
0.0130684
0.0120252
0.0112838
0.0107899
0.0104765
0.0102827
0.0101657
0.0100973
)
;

boundaryField
{
    inlet
    {
        type            fixedValue;
        value           uniform 0.2;
    }
    outlet
    {
        type            zeroGradient;
    }
    yzfaces
    {
        type            empty;
    }
}


// ************************************************************************* //
