/*--------------------------------*- C++ -*----------------------------------*\
| =========                 |                                                 |
| \\      /  F ield         | foam-extend: Open Source CFD                    |
|  \\    /   O peration     | Version:     5.0                                |
|   \\  /    A nd           | Web:         http://www.foam-extend.org         |
|    \\/     M anipulation  |                                                 |
\*---------------------------------------------------------------------------*/
FoamFile
{
    version     2.0;
    format      ascii;
    class       volScalarField;
    location    "5";
    object      Cl.water;
}
// * * * * * * * * * * * * * * * * * * * * * * * * * * * * * * * * * * * * * //

dimensions      [0 0 0 0 0 0 0];

internalField   nonuniform List<scalar> 
100
(
0.00501153
0.00668528
0.00762656
0.00841489
0.00917975
0.00979364
0.0103167
0.010772
0.0111934
0.0115734
0.0118894
0.012181
0.0124521
0.0126844
0.0128581
0.0130173
0.0132166
0.0133908
0.0135601
0.0137619
0.0139352
0.0140798
0.014199
0.0143242
0.0144378
0.0145601
0.014689
0.0148067
0.0149178
0.015036
0.0151479
0.0152496
0.0153449
0.0154331
0.0155215
0.0156184
0.0157105
0.0157979
0.0158896
0.0159787
0.016064
0.0161491
0.0162286
0.0163039
0.016381
0.0164569
0.0165267
0.0166001
0.0166679
0.0167344
0.0167954
0.0168656
0.0169341
0.0170001
0.0170636
0.0171285
0.0171931
0.0172617
0.0173386
0.0174145
0.0174881
0.017559
0.0176354
0.0177093
0.017792
0.0178666
0.0179405
0.0180174
0.0180953
0.018172
0.0182563
0.0183369
0.0184243
0.0185124
0.0186063
0.0186999
0.018806
0.0189107
0.0190209
0.0191394
0.0192661
0.0193998
0.0195445
0.0197031
0.0198709
0.020061
0.0202624
0.020479
0.0207053
0.0209303
0.0211444
0.0213263
0.0214804
0.0215953
0.0216741
0.021736
0.021757
0.0217852
0.0218033
0.0217984
)
;

boundaryField
{
    inlet
    {
        type            fixedValue;
        value           uniform 0;
    }
    outlet
    {
        type            zeroGradient;
    }
    yzfaces
    {
        type            empty;
    }
}


// ************************************************************************* //
