/*--------------------------------*- C++ -*----------------------------------*\
| =========                 |                                                 |
| \\      /  F ield         | foam-extend: Open Source CFD                    |
|  \\    /   O peration     | Version:     5.0                                |
|   \\  /    A nd           | Web:         http://www.foam-extend.org         |
|    \\/     M anipulation  |                                                 |
\*---------------------------------------------------------------------------*/
FoamFile
{
    version     2.0;
    format      ascii;
    class       volScalarField;
    location    "5";
    object      Cl.water;
}
// * * * * * * * * * * * * * * * * * * * * * * * * * * * * * * * * * * * * * //

dimensions      [0 0 0 0 0 0 0];

internalField   nonuniform List<scalar> 
100
(
0.00500337
0.00660467
0.00761843
0.00845768
0.00914225
0.0097914
0.0102772
0.0107788
0.0111733
0.0115821
0.0118807
0.012144
0.0124367
0.0126911
0.0128989
0.0130245
0.0131889
0.0133575
0.0135694
0.0137379
0.0139181
0.0140836
0.0142234
0.0143548
0.0144634
0.01457
0.0147062
0.0148156
0.0149204
0.0150326
0.0151363
0.0152477
0.0153393
0.0154232
0.0155206
0.0156279
0.0157099
0.0157911
0.0158733
0.0159663
0.0160505
0.0161368
0.0162206
0.0162948
0.0163737
0.0164457
0.01652
0.0165882
0.016656
0.0167236
0.0167934
0.0168658
0.0169322
0.0169979
0.0170654
0.0171298
0.0172033
0.0172711
0.0173469
0.0174138
0.0174842
0.0175553
0.0176347
0.0177039
0.0177739
0.0178537
0.0179301
0.0180117
0.0180914
0.0181731
0.0182684
0.0184478
0.0190217
0.0214403
0.0334959
0.0341519
0.0344184
0.0346255
0.0347928
0.0350469
0.0352966
0.0355293
0.0358097
0.0360748
0.0363811
0.0367428
0.0371087
0.037508
0.0379263
0.0383129
0.0387152
0.0390606
0.0393797
0.0396187
0.0397826
0.039897
0.0399504
0.0399789
0.0399717
0.0399927
)
;

boundaryField
{
    inlet
    {
        type            fixedValue;
        value           uniform 0;
    }
    outlet
    {
        type            zeroGradient;
    }
    yzfaces
    {
        type            empty;
    }
}


// ************************************************************************* //
