/*--------------------------------*- C++ -*----------------------------------*\
| =========                 |                                                 |
| \\      /  F ield         | foam-extend: Open Source CFD                    |
|  \\    /   O peration     | Version:     5.0                                |
|   \\  /    A nd           | Web:         http://www.foam-extend.org         |
|    \\/     M anipulation  |                                                 |
\*---------------------------------------------------------------------------*/
FoamFile
{
    version     2.0;
    format      ascii;
    class       volScalarField;
    location    "5";
    object      CO2.gas;
}
// * * * * * * * * * * * * * * * * * * * * * * * * * * * * * * * * * * * * * //

dimensions      [0 0 0 0 0 0 0];

internalField   nonuniform List<scalar> 
100
(
0.156038
0.141443
0.133359
0.12643
0.119786
0.114371
0.10993
0.105962
0.102207
0.0989081
0.0962789
0.0937228
0.0912512
0.0893242
0.0877648
0.0865204
0.0847625
0.0831985
0.0818091
0.0799178
0.0784387
0.077138
0.0762213
0.0751212
0.0741568
0.0730288
0.0718906
0.0709233
0.0699231
0.0689004
0.0679179
0.0670479
0.0661874
0.0654599
0.0646806
0.063861
0.0630521
0.0622722
0.0615363
0.060719
0.0600111
0.0592368
0.0585388
0.0578841
0.057242
0.0566327
0.0559543
0.0553844
0.0547645
0.054221
0.0536238
0.0530494
0.0524854
0.0519063
0.0513819
0.0507442
0.0501591
0.0495188
0.0488447
0.0482433
0.0476158
0.0469933
0.0463574
0.0456222
0.0449939
0.0443449
0.0436734
0.042986
0.0423182
0.0416469
0.040963
0.0402345
0.0394809
0.0387024
0.0379211
0.0370766
0.0362133
0.0353065
0.0343405
0.0333127
0.0322276
0.0310449
0.0297867
0.0283959
0.0268705
0.0252335
0.0234709
0.0216011
0.0196729
0.017742
0.0159138
0.0142909
0.0129557
0.0119379
0.0112175
0.0107427
0.0104417
0.0102568
0.0101449
0.0100841
)
;

boundaryField
{
    inlet
    {
        type            fixedValue;
        value           uniform 0.2;
    }
    outlet
    {
        type            zeroGradient;
    }
    yzfaces
    {
        type            empty;
    }
}


// ************************************************************************* //
