/*--------------------------------*- C++ -*----------------------------------*\
| =========                 |                                                 |
| \\      /  F ield         | foam-extend: Open Source CFD                    |
|  \\    /   O peration     | Version:     5.0                                |
|   \\  /    A nd           | Web:         http://www.foam-extend.org         |
|    \\/     M anipulation  |                                                 |
\*---------------------------------------------------------------------------*/
FoamFile
{
    version     2.0;
    format      ascii;
    class       volScalarField;
    location    "5";
    object      CO2.water;
}
// * * * * * * * * * * * * * * * * * * * * * * * * * * * * * * * * * * * * * //

dimensions      [0 0 0 0 0 0 0];

internalField   nonuniform List<scalar> 
100
(
0.00114538
0.0015124
0.00174332
0.00193136
0.00208831
0.00224309
0.00235266
0.00246858
0.00255474
0.00264854
0.00271647
0.00277947
0.0028466
0.00290783
0.0029521
0.00297738
0.00301491
0.00305159
0.00310429
0.00314344
0.00318535
0.00322367
0.00325491
0.00328581
0.00330748
0.00333228
0.00336601
0.00338826
0.00341286
0.00343733
0.00346081
0.00348677
0.00350698
0.00352446
0.00355027
0.00357349
0.00359209
0.00361165
0.00363
0.00365152
0.00367138
0.00369003
0.00370884
0.00372672
0.00374498
0.0037642
0.00378048
0.00379549
0.00381251
0.00382847
0.00384409
0.00386006
0.00387332
0.00388882
0.00390476
0.00392112
0.00393719
0.003955
0.00396931
0.00398578
0.00399981
0.00401762
0.00403285
0.00405042
0.00406817
0.00408528
0.00410281
0.00412058
0.00413882
0.00415658
0.0041748
0.00419328
0.00421212
0.00423247
0.000194364
4.34675e-05
9.98431e-06
2.35309e-06
5.68514e-07
1.42576e-07
3.72043e-08
1.03625e-08
3.11239e-09
1.01526e-09
3.5492e-10
1.34191e-10
5.20309e-11
2.07165e-11
7.7995e-12
2.6895e-12
7.646e-13
5.70376e-14
0
0
0
0
0
0
0
0
)
;

boundaryField
{
    inlet
    {
        type            fixedValue;
        value           uniform 0;
    }
    outlet
    {
        type            zeroGradient;
    }
    yzfaces
    {
        type            empty;
    }
}


// ************************************************************************* //
