/*--------------------------------*- C++ -*----------------------------------*\
| =========                 |                                                 |
| \\      /  F ield         | foam-extend: Open Source CFD                    |
|  \\    /   O peration     | Version:     5.0                                |
|   \\  /    A nd           | Web:         http://www.foam-extend.org         |
|    \\/     M anipulation  |                                                 |
\*---------------------------------------------------------------------------*/
FoamFile
{
    version     2.0;
    format      ascii;
    class       volScalarField;
    location    "5";
    object      CO2.water;
}
// * * * * * * * * * * * * * * * * * * * * * * * * * * * * * * * * * * * * * //

dimensions      [0 0 0 0 0 0 0];

internalField   nonuniform List<scalar> 
100
(
0.00114665
0.00153072
0.00174345
0.00192579
0.00210066
0.00224315
0.00236
0.00246443
0.00256326
0.00265006
0.00271925
0.00278652
0.00285156
0.00290227
0.00294331
0.00297606
0.00302232
0.00306347
0.00310004
0.00314981
0.00318873
0.00322296
0.00324708
0.00327604
0.00330141
0.0033311
0.00336105
0.00338651
0.00341283
0.00343974
0.0034656
0.00348849
0.00351113
0.00353028
0.00355079
0.00357236
0.00359364
0.00361417
0.00363353
0.00365504
0.00367367
0.00369405
0.00371241
0.00372964
0.00374654
0.00376257
0.00378043
0.00379542
0.00381174
0.00382604
0.00384176
0.00385687
0.00387171
0.00388695
0.00390075
0.00391754
0.00393293
0.00394978
0.00396752
0.00398335
0.00399986
0.00401624
0.00403298
0.00405233
0.00406886
0.00408594
0.00410361
0.0041217
0.00413927
0.00415694
0.00417494
0.00419411
0.00421394
0.00423442
0.00425498
0.00427721
0.00429993
0.00432379
0.00434921
0.00437626
0.00440481
0.00443594
0.00446905
0.00450565
0.00454579
0.00458887
0.00463525
0.00468446
0.0047352
0.00478601
0.00483412
0.00487683
0.00491197
0.00493875
0.00495771
0.00497021
0.00497813
0.00498299
0.00498594
0.00498754
)
;

boundaryField
{
    inlet
    {
        type            fixedValue;
        value           uniform 0;
    }
    outlet
    {
        type            zeroGradient;
    }
    yzfaces
    {
        type            empty;
    }
}


// ************************************************************************* //
