/*--------------------------------*- C++ -*----------------------------------*\
| =========                 |                                                 |
| \\      /  F ield         | foam-extend: Open Source CFD                    |
|  \\    /   O peration     | Version:     5.0                                |
|   \\  /    A nd           | Web:         http://www.foam-extend.org         |
|    \\/     M anipulation  |                                                 |
\*---------------------------------------------------------------------------*/
FoamFile
{
    version     2.0;
    format      ascii;
    class       volScalarField;
    location    "5";
    object      CO2.gas;
}
// * * * * * * * * * * * * * * * * * * * * * * * * * * * * * * * * * * * * * //

dimensions      [0 0 0 0 0 0 0];

internalField   nonuniform List<scalar> 
100
(
0.156086
0.142139
0.133364
0.126219
0.120255
0.114373
0.110209
0.105805
0.10253
0.098966
0.0963846
0.0939905
0.0914397
0.0891131
0.0874308
0.0864702
0.0850439
0.0836501
0.0816474
0.0801598
0.0785672
0.0771109
0.075924
0.0747496
0.0739262
0.072984
0.0717019
0.0708566
0.0699218
0.0689921
0.0680996
0.0671132
0.0663454
0.0656809
0.0647003
0.0638181
0.063111
0.0623677
0.0616705
0.0608529
0.060098
0.0593892
0.0586745
0.0579951
0.0573015
0.0565708
0.0559524
0.0553819
0.0547352
0.0541287
0.0535349
0.0529282
0.0524242
0.0518354
0.0512295
0.0506079
0.0499971
0.0493204
0.0487769
0.0481507
0.0476177
0.046941
0.0463624
0.0456947
0.0450201
0.04437
0.0437037
0.0430285
0.0423355
0.0416604
0.0409682
0.0402658
0.0395501
0.0387765
0.029496
0.0251399
0.0212205
0.0177091
0.0145834
0.0119018
0.00955707
0.00754022
0.00582899
0.00439735
0.00322793
0.00229314
0.00156226
0.00101274
0.000617824
0.000350935
0.000183568
8.75814e-05
3.80816e-05
1.51906e-05
5.6476e-06
1.99953e-06
6.8568e-07
2.33874e-07
7.98184e-08
1.62512e-08
)
;

boundaryField
{
    inlet
    {
        type            fixedValue;
        value           uniform 0.2;
    }
    outlet
    {
        type            zeroGradient;
    }
    yzfaces
    {
        type            empty;
    }
}


// ************************************************************************* //
