/*--------------------------------*- C++ -*----------------------------------*\
| =========                 |                                                 |
| \\      /  F ield         | foam-extend: Open Source CFD                    |
|  \\    /   O peration     | Version:     5.0                                |
|   \\  /    A nd           | Web:         http://www.foam-extend.org         |
|    \\/     M anipulation  |                                                 |
\*---------------------------------------------------------------------------*/
FoamFile
{
    version     2.0;
    format      ascii;
    class       volScalarField;
    location    "5";
    object      H2O.gas;
}
// * * * * * * * * * * * * * * * * * * * * * * * * * * * * * * * * * * * * * //

dimensions      [0 0 0 0 0 0 0];

internalField   nonuniform List<scalar> 
100
(
0.000304472
0.000275994
0.00026022
0.0002467
0.000233734
0.000223169
0.000214504
0.000206761
0.000199433
0.000192996
0.000187866
0.000182879
0.000178056
0.000174296
0.000171253
0.000168825
0.000165395
0.000162343
0.000159632
0.000155941
0.000153055
0.000150517
0.000148728
0.000146582
0.0001447
0.000142499
0.000140278
0.000138391
0.000136439
0.000134443
0.000132526
0.000130829
0.00012915
0.00012773
0.000126209
0.00012461
0.000123032
0.00012151
0.000120074
0.000118479
0.000117098
0.000115587
0.000114225
0.000112948
0.000111695
0.000110506
0.000109182
0.00010807
0.00010686
0.0001058
0.000104635
0.000103514
0.000102413
0.000101283
0.00010026
9.90156e-05
9.78739e-05
9.66245e-05
9.53092e-05
9.41358e-05
9.29113e-05
9.16966e-05
9.04558e-05
8.90212e-05
8.77954e-05
8.65289e-05
8.52186e-05
8.38773e-05
8.25743e-05
8.12643e-05
7.99299e-05
7.85084e-05
7.70379e-05
7.55189e-05
7.39944e-05
7.23465e-05
7.0662e-05
6.88926e-05
6.70075e-05
6.50021e-05
6.28848e-05
6.0577e-05
5.8122e-05
5.5408e-05
5.24317e-05
4.92374e-05
4.5798e-05
4.21496e-05
3.83872e-05
3.46195e-05
3.10522e-05
2.78854e-05
2.52801e-05
2.32941e-05
2.18883e-05
2.09619e-05
2.03746e-05
2.00138e-05
1.97955e-05
1.96769e-05
)
;

boundaryField
{
    inlet
    {
        type            fixedValue;
        value           uniform 0;
    }
    outlet
    {
        type            zeroGradient;
    }
    yzfaces
    {
        type            empty;
    }
}


// ************************************************************************* //
