/*--------------------------------*- C++ -*----------------------------------*\
| =========                 |                                                 |
| \\      /  F ield         | foam-extend: Open Source CFD                    |
|  \\    /   O peration     | Version:     5.0                                |
|   \\  /    A nd           | Web:         http://www.foam-extend.org         |
|    \\/     M anipulation  |                                                 |
\*---------------------------------------------------------------------------*/
FoamFile
{
    version     2.0;
    format      ascii;
    class       volScalarField;
    location    "5";
    object      H2O.gas;
}
// * * * * * * * * * * * * * * * * * * * * * * * * * * * * * * * * * * * * * //

dimensions      [0 0 0 0 0 0 0];

internalField   nonuniform List<scalar> 
100
(
0.000304567
0.000277352
0.00026023
0.000246287
0.00023465
0.000223173
0.000215048
0.000206453
0.000200065
0.00019311
0.000188073
0.000183401
0.000178424
0.000173884
0.000170601
0.000168727
0.000165944
0.000163224
0.000159316
0.000156413
0.000153306
0.000150464
0.000148148
0.000145857
0.00014425
0.000142411
0.00013991
0.00013826
0.000136436
0.000134622
0.000132881
0.000130956
0.000129458
0.000128161
0.000126248
0.000124526
0.000123147
0.000121696
0.000120336
0.000118741
0.000117268
0.000115884
0.00011449
0.000113164
0.000111811
0.000110385
0.000109178
0.000108065
0.000106803
0.00010562
0.000104461
0.000103277
0.000102294
0.000101145
9.99627e-05
9.87497e-05
9.75579e-05
9.62375e-05
9.51769e-05
9.39551e-05
9.2915e-05
9.15946e-05
9.04656e-05
8.91628e-05
8.78464e-05
8.65778e-05
8.52777e-05
8.39602e-05
8.2608e-05
8.12907e-05
7.99401e-05
7.85695e-05
7.71729e-05
7.56635e-05
0.00854721
0.0120925
0.0151537
0.0177465
0.0198343
0.0215537
0.0228304
0.0236593
0.0240948
0.0241036
0.0237634
0.0230843
0.0220596
0.0207573
0.0192224
0.0175538
0.0158882
0.0143392
0.0130346
0.0120189
0.0112853
0.0107949
0.0104802
0.0102883
0.0101654
0.0101014
)
;

boundaryField
{
    inlet
    {
        type            fixedValue;
        value           uniform 0;
    }
    outlet
    {
        type            zeroGradient;
    }
    yzfaces
    {
        type            empty;
    }
}


// ************************************************************************* //
