/*--------------------------------*- C++ -*----------------------------------*\
| =========                 |                                                 |
| \\      /  F ield         | foam-extend: Open Source CFD                    |
|  \\    /   O peration     | Version:     5.0                                |
|   \\  /    A nd           | Web:         http://www.foam-extend.org         |
|    \\/     M anipulation  |                                                 |
\*---------------------------------------------------------------------------*/
FoamFile
{
    version     2.0;
    format      ascii;
    class       volScalarField;
    location    "5";
    object      H2O.water;
}
// * * * * * * * * * * * * * * * * * * * * * * * * * * * * * * * * * * * * * //

dimensions      [0 0 0 0 0 0 0];

internalField   nonuniform List<scalar> 
100
(
0.0324588
0.0428658
0.0493951
0.0546917
0.0591363
0.0635679
0.0666643
0.0699568
0.0723629
0.0750207
0.0769385
0.0787466
0.0806505
0.0824147
0.0836402
0.0843387
0.0854049
0.0864171
0.0879517
0.0890631
0.0902581
0.0913418
0.0922204
0.0931009
0.0936946
0.0943906
0.0953722
0.0959901
0.0966981
0.097379
0.0980347
0.0987867
0.0993483
0.0998301
0.100591
0.101243
0.101763
0.102321
0.102834
0.103455
0.104016
0.104533
0.10507
0.105577
0.106095
0.10665
0.107103
0.107521
0.108014
0.108464
0.108907
0.109358
0.109721
0.110168
0.110617
0.111088
0.111533
0.112055
0.112442
0.112918
0.113298
0.113826
0.114241
0.114747
0.115255
0.11573
0.116228
0.116732
0.11725
0.117744
0.118222
0.118543
0.118096
0.114022
0.0947313
0.0944856
0.0947114
0.0951973
0.0956561
0.0963699
0.0970437
0.0976514
0.0984318
0.0991393
0.100011
0.101035
0.10205
0.103133
0.104278
0.105341
0.106438
0.107367
0.108257
0.10891
0.10932
0.109601
0.109757
0.109901
0.109909
0.110012
)
;

boundaryField
{
    inlet
    {
        type            fixedValue;
        value           uniform 0;
    }
    outlet
    {
        type            zeroGradient;
    }
    yzfaces
    {
        type            empty;
    }
}


// ************************************************************************* //
