/*--------------------------------*- C++ -*----------------------------------*\
| =========                 |                                                 |
| \\      /  F ield         | foam-extend: Open Source CFD                    |
|  \\    /   O peration     | Version:     5.0                                |
|   \\  /    A nd           | Web:         http://www.foam-extend.org         |
|    \\/     M anipulation  |                                                 |
\*---------------------------------------------------------------------------*/
FoamFile
{
    version     2.0;
    format      ascii;
    class       volScalarField;
    location    "5";
    object      Na.water;
}
// * * * * * * * * * * * * * * * * * * * * * * * * * * * * * * * * * * * * * //

dimensions      [0 0 0 0 0 0 0];

internalField   nonuniform List<scalar> 
100
(
0.00500846
0.00668156
0.00761753
0.00841272
0.00918006
0.00979499
0.0103231
0.0107795
0.0112063
0.0115861
0.0118976
0.0121835
0.0124538
0.0126832
0.0128555
0.0130207
0.0132182
0.0133869
0.0135563
0.0137655
0.0139397
0.0140851
0.014203
0.0143215
0.0144318
0.0145613
0.0146907
0.0148069
0.0149187
0.0150382
0.0151511
0.0152511
0.0153506
0.0154365
0.0155284
0.0156194
0.0157148
0.0157923
0.0158818
0.0159789
0.01606
0.0161482
0.0162298
0.0163098
0.0163821
0.0164522
0.0165274
0.0165946
0.0166572
0.016728
0.0167988
0.016864
0.0169281
0.0169947
0.0170603
0.0171245
0.0172037
0.0172725
0.0173464
0.0174162
0.0174876
0.0175639
0.0176314
0.0177096
0.0177903
0.0178649
0.017944
0.0180204
0.0180998
0.0181804
0.0182565
0.0183379
0.0184193
0.0185114
0.0186063
0.0186983
0.0187928
0.018899
0.0190132
0.0191276
0.0192525
0.0193906
0.0195401
0.0196993
0.0198705
0.0200647
0.0202643
0.0204757
0.0207052
0.0209164
0.021127
0.0213154
0.0214714
0.0215906
0.0216709
0.0217347
0.0217726
0.0217886
0.0218009
0.0218062
)
;

boundaryField
{
    inlet
    {
        type            fixedValue;
        value           uniform 0;
    }
    outlet
    {
        type            zeroGradient;
    }
    yzfaces
    {
        type            empty;
    }
}


// ************************************************************************* //
