/*--------------------------------*- C++ -*----------------------------------*\
| =========                 |                                                 |
| \\      /  F ield         | foam-extend: Open Source CFD                    |
|  \\    /   O peration     | Version:     5.0                                |
|   \\  /    A nd           | Web:         http://www.foam-extend.org         |
|    \\/     M anipulation  |                                                 |
\*---------------------------------------------------------------------------*/
FoamFile
{
    version     2.0;
    format      ascii;
    class       volScalarField;
    location    "5";
    object      Na.water;
}
// * * * * * * * * * * * * * * * * * * * * * * * * * * * * * * * * * * * * * //

dimensions      [0 0 0 0 0 0 0];

internalField   nonuniform List<scalar> 
100
(
0.00500166
0.00660062
0.00761871
0.00845399
0.00914369
0.00980153
0.0102815
0.0107848
0.0111785
0.0115896
0.0118916
0.012156
0.012448
0.0126995
0.0129075
0.0130205
0.0131814
0.0133605
0.0135678
0.0137394
0.013918
0.0140895
0.0142292
0.014363
0.0144641
0.0145808
0.0147137
0.0148111
0.0149104
0.0150244
0.0151358
0.0152347
0.0153306
0.0154131
0.0155117
0.0156129
0.0157009
0.0157867
0.015872
0.0159558
0.0160465
0.0161351
0.0162115
0.016293
0.0163732
0.0164584
0.0165347
0.016605
0.0166756
0.0167499
0.0168164
0.016885
0.0169465
0.0170091
0.0170829
0.0171544
0.0172315
0.0173022
0.0173693
0.0174382
0.0175073
0.0175681
0.017639
0.0177143
0.0177953
0.017875
0.0179499
0.0180236
0.0181016
0.0181845
0.0182868
0.0184713
0.0190428
0.0214526
0.0335035
0.0341561
0.0344124
0.0346177
0.0347773
0.0350391
0.0352966
0.0355275
0.035813
0.0360761
0.0364009
0.0367695
0.0371395
0.0375374
0.0379467
0.0383308
0.0387193
0.0390541
0.0393563
0.0395845
0.0397325
0.0398349
0.0398947
0.039945
0.0399496
0.0399733
)
;

boundaryField
{
    inlet
    {
        type            fixedValue;
        value           uniform 0;
    }
    outlet
    {
        type            zeroGradient;
    }
    yzfaces
    {
        type            empty;
    }
}


// ************************************************************************* //
