/*--------------------------------*- C++ -*----------------------------------*\
| =========                 |                                                 |
| \\      /  F ield         | foam-extend: Open Source CFD                    |
|  \\    /   O peration     | Version:     5.0                                |
|   \\  /    A nd           | Web:         http://www.foam-extend.org         |
|    \\/     M anipulation  |                                                 |
\*---------------------------------------------------------------------------*/
FoamFile
{
    version     2.0;
    format      ascii;
    class       volScalarField;
    location    "5";
    object      Ns;
}
// * * * * * * * * * * * * * * * * * * * * * * * * * * * * * * * * * * * * * //

dimensions      [0 -3 0 0 1 0 0];

internalField   nonuniform List<scalar> 
100
(
2108.77
2035.26
1994.01
1957.83
1914.55
1865.93
1893.99
1849.19
1835.86
1809.79
1825.97
1829.17
1843.17
1791.4
1829.2
1806.14
1788.5
1810.5
1774.99
1791.88
1763.54
1775.27
1793.3
1805.98
1786.3
1762.78
2149.59
1899.84
1802.03
1779.52
1781.48
1785.07
1781.78
1783.04
1764.29
1770.88
1790.5
1773.95
1784.2
1767.91
1786.69
1786.67
1772.75
1767.19
2139.52
1866.63
1792.99
1790.2
1782.62
1776.08
1770.06
1765.4
1778.85
1782.16
1769.71
1774.83
1782.15
1779.33
1780.26
1765.38
1778.33
1778.29
2139.84
1853.83
1797.5
1783.24
1788.64
1768.66
1769.52
1773.89
1767
1756.88
1694.75
1411.63
2
2
2
2
2
2
2
2
2
2
2
2
2
2
2
2
2
2
2
2
2
2
2
2
2
2
)
;

boundaryField
{
    inlet
    {
        type            fixedValue;
        value           uniform 0;
    }
    outlet
    {
        type            zeroGradient;
    }
    yzfaces
    {
        type            empty;
    }
}


// ************************************************************************* //
