/*--------------------------------*- C++ -*----------------------------------*\
| =========                 |                                                 |
| \\      /  F ield         | foam-extend: Open Source CFD                    |
|  \\    /   O peration     | Version:     5.0                                |
|   \\  /    A nd           | Web:         http://www.foam-extend.org         |
|    \\/     M anipulation  |                                                 |
\*---------------------------------------------------------------------------*/
FoamFile
{
    version     2.0;
    format      ascii;
    class       surfaceScalarField;
    location    "5";
    object      phi;
}
// * * * * * * * * * * * * * * * * * * * * * * * * * * * * * * * * * * * * * //

dimensions      [0 3 -1 0 0 0 0];

internalField   nonuniform List<scalar> 
99
(
1.22827e-06
1.23527e-06
1.23584e-06
1.22181e-06
1.21501e-06
1.221e-06
1.22602e-06
1.23356e-06
1.22976e-06
1.22601e-06
1.21907e-06
1.22261e-06
1.21868e-06
1.22797e-06
1.22576e-06
1.2271e-06
1.22014e-06
1.20971e-06
1.21291e-06
1.21805e-06
1.22212e-06
1.22713e-06
1.22785e-06
1.23083e-06
1.22689e-06
1.22594e-06
1.22996e-06
1.22848e-06
1.2333e-06
1.23194e-06
1.22779e-06
1.22929e-06
1.22859e-06
1.22461e-06
1.22613e-06
1.22877e-06
1.22874e-06
1.22929e-06
1.22805e-06
1.22986e-06
1.23038e-06
1.2276e-06
1.22794e-06
1.22758e-06
1.22895e-06
1.23185e-06
1.23242e-06
1.23092e-06
1.23232e-06
1.2328e-06
1.23416e-06
1.23506e-06
1.23132e-06
1.22963e-06
1.22841e-06
1.22963e-06
1.22502e-06
1.22809e-06
1.22431e-06
1.22377e-06
1.2186e-06
1.21961e-06
1.21782e-06
1.21777e-06
1.2186e-06
1.21621e-06
1.21469e-06
1.21413e-06
1.21231e-06
1.21304e-06
1.21286e-06
1.21306e-06
1.21158e-06
1.21199e-06
1.21063e-06
1.21107e-06
1.20807e-06
1.20742e-06
1.20874e-06
1.2071e-06
1.20605e-06
1.20459e-06
1.20519e-06
1.20739e-06
1.20805e-06
1.2092e-06
1.21017e-06
1.2099e-06
1.21239e-06
1.2111e-06
1.20917e-06
1.20901e-06
1.21069e-06
1.2112e-06
1.21176e-06
1.21048e-06
1.21038e-06
1.2088e-06
1.20974e-06
)
;

boundaryField
{
    inlet
    {
        type            calculated;
        value           uniform -1.225e-06;
    }
    outlet
    {
        type            calculated;
        value           uniform 1.21103e-06;
    }
    yzfaces
    {
        type            empty;
    }
}


// ************************************************************************* //
