/*--------------------------------*- C++ -*----------------------------------*\
| =========                 |                                                 |
| \\      /  F ield         | foam-extend: Open Source CFD                    |
|  \\    /   O peration     | Version:     5.0                                |
|   \\  /    A nd           | Web:         http://www.foam-extend.org         |
|    \\/     M anipulation  |                                                 |
\*---------------------------------------------------------------------------*/
FoamFile
{
    version     2.0;
    format      ascii;
    class       surfaceScalarField;
    location    "5";
    object      phi;
}
// * * * * * * * * * * * * * * * * * * * * * * * * * * * * * * * * * * * * * //

dimensions      [0 3 -1 0 0 0 0];

internalField   nonuniform List<scalar> 
99
(
1.22699e-06
1.23889e-06
1.23808e-06
1.2425e-06
1.23976e-06
1.24055e-06
1.23527e-06
1.23272e-06
1.23359e-06
1.23804e-06
1.22927e-06
1.2308e-06
1.23566e-06
1.23857e-06
1.24384e-06
1.24089e-06
1.23892e-06
1.24586e-06
1.24235e-06
1.24399e-06
1.2458e-06
1.24821e-06
1.24739e-06
1.24409e-06
1.24466e-06
1.24803e-06
1.24727e-06
1.24831e-06
1.25016e-06
1.24927e-06
1.25155e-06
1.25071e-06
1.2536e-06
1.25406e-06
1.2538e-06
1.25156e-06
1.2501e-06
1.25517e-06
1.25141e-06
1.25353e-06
1.25395e-06
1.25347e-06
1.25531e-06
1.25176e-06
1.25062e-06
1.24694e-06
1.24764e-06
1.24554e-06
1.24866e-06
1.24591e-06
1.24622e-06
1.24341e-06
1.24245e-06
1.24065e-06
1.2356e-06
1.23633e-06
1.23451e-06
1.23619e-06
1.2383e-06
1.23852e-06
1.23697e-06
1.23578e-06
1.23429e-06
1.23756e-06
1.23617e-06
1.23426e-06
1.23347e-06
1.23478e-06
1.23495e-06
1.23296e-06
1.2317e-06
1.2316e-06
1.23214e-06
1.23315e-06
1.23082e-06
1.23232e-06
1.23248e-06
1.23254e-06
1.23069e-06
1.23089e-06
1.23024e-06
1.22965e-06
1.22903e-06
1.22799e-06
1.23049e-06
1.22993e-06
1.23035e-06
1.23269e-06
1.23136e-06
1.23259e-06
1.23225e-06
1.23274e-06
1.23336e-06
1.2326e-06
1.23412e-06
1.23112e-06
1.23119e-06
1.23001e-06
1.22873e-06
)
;

boundaryField
{
    inlet
    {
        type            calculated;
        value           uniform -1.225e-06;
    }
    outlet
    {
        type            calculated;
        value           uniform 1.23042e-06;
    }
    yzfaces
    {
        type            empty;
    }
}


// ************************************************************************* //
