/*--------------------------------*- C++ -*----------------------------------*\
| =========                 |                                                 |
| \\      /  F ield         | foam-extend: Open Source CFD                    |
|  \\    /   O peration     | Version:     5.0                                |
|   \\  /    A nd           | Web:         http://www.foam-extend.org         |
|    \\/     M anipulation  |                                                 |
\*---------------------------------------------------------------------------*/
FoamFile
{
    version     2.0;
    format      ascii;
    class       surfaceScalarField;
    location    "5";
    object      phi.water;
}
// * * * * * * * * * * * * * * * * * * * * * * * * * * * * * * * * * * * * * //

dimensions      [0 3 -1 0 0 0 0];

internalField   nonuniform List<scalar> 
99
(
1.06428e-07
1.89653e-07
2.4498e-07
3.03313e-07
3.6973e-07
4.32966e-07
4.9074e-07
5.47899e-07
6.10386e-07
6.74729e-07
7.21033e-07
7.76687e-07
8.37634e-07
8.87686e-07
9.32215e-07
9.61395e-07
1.01051e-06
1.06311e-06
1.10028e-06
1.16544e-06
1.21989e-06
1.26982e-06
1.30172e-06
1.3421e-06
1.37965e-06
1.42896e-06
1.47639e-06
1.51983e-06
1.56789e-06
1.61457e-06
1.66423e-06
1.7063e-06
1.75585e-06
1.79225e-06
1.83215e-06
1.87298e-06
1.91739e-06
1.97076e-06
2.00741e-06
2.05777e-06
2.10266e-06
2.15127e-06
2.19647e-06
2.23486e-06
2.27366e-06
2.30849e-06
2.35604e-06
2.39265e-06
2.44167e-06
2.47512e-06
2.51888e-06
2.55625e-06
2.59432e-06
2.63504e-06
2.66408e-06
2.71576e-06
2.75786e-06
2.8146e-06
2.87452e-06
2.92368e-06
2.97082e-06
3.0203e-06
3.0748e-06
3.1465e-06
3.19757e-06
3.25028e-06
3.30878e-06
3.3767e-06
3.43813e-06
3.49518e-06
3.55574e-06
3.62822e-06
3.70335e-06
3.77987e-06
3.84938e-06
3.93925e-06
4.02558e-06
4.11728e-06
4.20966e-06
4.3161e-06
4.42409e-06
4.54168e-06
4.66536e-06
4.80387e-06
4.96506e-06
5.11905e-06
5.28682e-06
5.4603e-06
5.61313e-06
5.76567e-06
5.88883e-06
5.98962e-06
6.0628e-06
6.10901e-06
6.14519e-06
6.14733e-06
6.16131e-06
6.16128e-06
6.16203e-06
)
;

boundaryField
{
    inlet
    {
        type            fixedValue;
        value           uniform 0;
    }
    outlet
    {
        type            calculated;
        value           uniform 6.17762e-06;
    }
    yzfaces
    {
        type            empty;
    }
}


// ************************************************************************* //
