/*--------------------------------*- C++ -*----------------------------------*\
| =========                 |                                                 |
| \\      /  F ield         | foam-extend: Open Source CFD                    |
|  \\    /   O peration     | Version:     5.0                                |
|   \\  /    A nd           | Web:         http://www.foam-extend.org         |
|    \\/     M anipulation  |                                                 |
\*---------------------------------------------------------------------------*/
FoamFile
{
    version     2.0;
    format      ascii;
    class       volVectorField;
    location    "5";
    object      U.gas;
}
// * * * * * * * * * * * * * * * * * * * * * * * * * * * * * * * * * * * * * //

dimensions      [0 1 -1 0 0 0 0];

internalField   nonuniform List<vector> 
100
(
(0.00638729 0 0)
(0.00705235 0 0)
(0.00747804 0 0)
(0.00786274 0 0)
(0.00825899 0 0)
(0.00859074 0 0)
(0.00886712 0 0)
(0.00911333 0 0)
(0.00938014 0 0)
(0.00964662 0 0)
(0.0098276 0 0)
(0.010002 0 0)
(0.0102303 0 0)
(0.0104162 0 0)
(0.010577 0 0)
(0.0106871 0 0)
(0.0108272 0 0)
(0.0109825 0 0)
(0.0111171 0 0)
(0.0112901 0 0)
(0.0114283 0 0)
(0.0115597 0 0)
(0.0116378 0 0)
(0.0117224 0 0)
(0.0117917 0 0)
(0.0119184 0 0)
(0.0120342 0 0)
(0.0121151 0 0)
(0.0122189 0 0)
(0.0123146 0 0)
(0.0124064 0 0)
(0.0124841 0 0)
(0.0125663 0 0)
(0.0126377 0 0)
(0.0127081 0 0)
(0.0127661 0 0)
(0.0128127 0 0)
(0.0128911 0 0)
(0.0129508 0 0)
(0.013011 0 0)
(0.0130703 0 0)
(0.0131294 0 0)
(0.0131821 0 0)
(0.0132144 0 0)
(0.0132296 0 0)
(0.0132403 0 0)
(0.0132719 0 0)
(0.0132885 0 0)
(0.0133344 0 0)
(0.013359 0 0)
(0.013381 0 0)
(0.0133927 0 0)
(0.0133976 0 0)
(0.0134096 0 0)
(0.013387 0 0)
(0.0134014 0 0)
(0.0134088 0 0)
(0.0134319 0 0)
(0.0134742 0 0)
(0.0134909 0 0)
(0.0134984 0 0)
(0.0134912 0 0)
(0.0134807 0 0)
(0.0135058 0 0)
(0.0134982 0 0)
(0.0134767 0 0)
(0.0134576 0 0)
(0.0134484 0 0)
(0.0134346 0 0)
(0.0134025 0 0)
(0.0133586 0 0)
(0.0133234 0 0)
(0.013287 0 0)
(0.0132511 0 0)
(0.0131862 0 0)
(0.0131233 0 0)
(0.0130558 0 0)
(0.0129687 0 0)
(0.0128562 0 0)
(0.0127256 0 0)
(0.0125769 0 0)
(0.0124021 0 0)
(0.012188 0 0)
(0.0119368 0 0)
(0.0116392 0 0)
(0.0112765 0 0)
(0.0108297 0 0)
(0.0103046 0 0)
(0.00968154 0 0)
(0.00897017 0 0)
(0.00820173 0 0)
(0.00742217 0 0)
(0.00669867 0 0)
(0.00608232 0 0)
(0.00560603 0 0)
(0.00526149 0 0)
(0.0050317 0 0)
(0.00488756 0 0)
(0.00479503 0 0)
(0.00474084 0 0)
)
;

boundaryField
{
    inlet
    {
        type            fixedValue;
        value           uniform (0.005 0 0);
    }
    outlet
    {
        type            zeroGradient;
    }
    yzfaces
    {
        type            empty;
    }
}


// ************************************************************************* //
