/*--------------------------------*- C++ -*----------------------------------*\
| =========                 |                                                 |
| \\      /  F ield         | foam-extend: Open Source CFD                    |
|  \\    /   O peration     | Version:     5.0                                |
|   \\  /    A nd           | Web:         http://www.foam-extend.org         |
|    \\/     M anipulation  |                                                 |
\*---------------------------------------------------------------------------*/
FoamFile
{
    version     2.0;
    format      ascii;
    class       volVectorField;
    location    "5";
    object      U.gas;
}
// * * * * * * * * * * * * * * * * * * * * * * * * * * * * * * * * * * * * * //

dimensions      [0 1 -1 0 0 0 0];

internalField   nonuniform List<vector> 
100
(
(0.00638863 0 0)
(0.00701233 0 0)
(0.00746132 0 0)
(0.00780252 0 0)
(0.00807726 0 0)
(0.00843876 0 0)
(0.00874345 0 0)
(0.00909702 0 0)
(0.00934098 0 0)
(0.0095824 0 0)
(0.00973058 0 0)
(0.00990496 0 0)
(0.0101124 0 0)
(0.0103238 0 0)
(0.0104848 0 0)
(0.0105497 0 0)
(0.0106561 0 0)
(0.0106986 0 0)
(0.0108516 0 0)
(0.0110066 0 0)
(0.0111917 0 0)
(0.0113586 0 0)
(0.0114825 0 0)
(0.0116046 0 0)
(0.0116619 0 0)
(0.0117253 0 0)
(0.0118657 0 0)
(0.0119355 0 0)
(0.0120368 0 0)
(0.0121346 0 0)
(0.012182 0 0)
(0.0122579 0 0)
(0.0123157 0 0)
(0.0123423 0 0)
(0.0124268 0 0)
(0.012513 0 0)
(0.012573 0 0)
(0.0126368 0 0)
(0.0126847 0 0)
(0.0127571 0 0)
(0.0128213 0 0)
(0.012856 0 0)
(0.0128939 0 0)
(0.0129377 0 0)
(0.0129876 0 0)
(0.0130598 0 0)
(0.0131076 0 0)
(0.0131304 0 0)
(0.0131726 0 0)
(0.0132137 0 0)
(0.0132526 0 0)
(0.0132946 0 0)
(0.0132908 0 0)
(0.0132937 0 0)
(0.0133027 0 0)
(0.0133277 0 0)
(0.0133272 0 0)
(0.0133447 0 0)
(0.0133397 0 0)
(0.0133386 0 0)
(0.013303 0 0)
(0.0133083 0 0)
(0.013295 0 0)
(0.0132981 0 0)
(0.0133015 0 0)
(0.0132864 0 0)
(0.0132594 0 0)
(0.013235 0 0)
(0.0132052 0 0)
(0.0131739 0 0)
(0.013152 0 0)
(0.0131197 0 0)
(0.0130763 0 0)
(0.0130328 0 0)
(0.0129749 0 0)
(0.0129055 0 0)
(0.0128156 0 0)
(0.012721 0 0)
(0.0126276 0 0)
(0.0125005 0 0)
(0.0123497 0 0)
(0.0121706 0 0)
(0.0119702 0 0)
(0.0117396 0 0)
(0.0114586 0 0)
(0.0111078 0 0)
(0.0106816 0 0)
(0.0101657 0 0)
(0.00956625 0 0)
(0.00887478 0 0)
(0.00811467 0 0)
(0.00734264 0 0)
(0.00662901 0 0)
(0.0060176 0 0)
(0.00553848 0 0)
(0.00519369 0 0)
(0.00496117 0 0)
(0.00481136 0 0)
(0.00472048 0 0)
(0.00467045 0 0)
)
;

boundaryField
{
    inlet
    {
        type            fixedValue;
        value           uniform (0.005 0 0);
    }
    outlet
    {
        type            zeroGradient;
    }
    yzfaces
    {
        type            empty;
    }
}


// ************************************************************************* //
