/*--------------------------------*- C++ -*----------------------------------*\
| =========                 |                                                 |
| \\      /  F ield         | foam-extend: Open Source CFD                    |
|  \\    /   O peration     | Version:     5.0                                |
|   \\  /    A nd           | Web:         http://www.foam-extend.org         |
|    \\/     M anipulation  |                                                 |
\*---------------------------------------------------------------------------*/
FoamFile
{
    version     2.0;
    format      ascii;
    class       volVectorField;
    location    "5";
    object      U.water;
}
// * * * * * * * * * * * * * * * * * * * * * * * * * * * * * * * * * * * * * //

dimensions      [0 1 -1 0 0 0 0];

internalField   nonuniform List<vector> 
100
(
(5.06989e-05 0 0)
(0.000119011 0 0)
(0.000174797 0 0)
(0.000222711 0 0)
(0.000269101 0 0)
(0.000318952 0 0)
(0.000371715 0 0)
(0.00042056 0 0)
(0.000471177 0 0)
(0.000517382 0 0)
(0.00056352 0 0)
(0.000603017 0 0)
(0.000645572 0 0)
(0.000694125 0 0)
(0.000738741 0 0)
(0.00076877 0 0)
(0.000791621 0 0)
(0.00081843 0 0)
(0.000855328 0 0)
(0.000904223 0 0)
(0.000947988 0 0)
(0.000994854 0 0)
(0.00103715 0 0)
(0.00107439 0 0)
(0.00110653 0 0)
(0.00113284 0 0)
(0.00117007 0 0)
(0.0012099 0 0)
(0.0012431 0 0)
(0.00127905 0 0)
(0.00131112 0 0)
(0.00134545 0 0)
(0.00138198 0 0)
(0.00140897 0 0)
(0.00144049 0 0)
(0.00148382 0 0)
(0.00152099 0 0)
(0.00155343 0 0)
(0.00158596 0 0)
(0.00162129 0 0)
(0.00166072 0 0)
(0.00169585 0 0)
(0.00172964 0 0)
(0.0017652 0 0)
(0.00180245 0 0)
(0.00184318 0 0)
(0.0018827 0 0)
(0.0019157 0 0)
(0.00194955 0 0)
(0.00198633 0 0)
(0.00202282 0 0)
(0.00206038 0 0)
(0.00209235 0 0)
(0.00212097 0 0)
(0.0021555 0 0)
(0.00219354 0 0)
(0.00222991 0 0)
(0.00226995 0 0)
(0.0023096 0 0)
(0.00234392 0 0)
(0.00237831 0 0)
(0.00241403 0 0)
(0.00245707 0 0)
(0.0024983 0 0)
(0.00254652 0 0)
(0.00259177 0 0)
(0.00263482 0 0)
(0.00268196 0 0)
(0.0027303 0 0)
(0.0027805 0 0)
(0.00283293 0 0)
(0.00288663 0 0)
(0.00293984 0 0)
(0.00299637 0 0)
(0.00305734 0 0)
(0.00312146 0 0)
(0.0031848 0 0)
(0.00324967 0 0)
(0.00332768 0 0)
(0.00340878 0 0)
(0.00349031 0 0)
(0.00357874 0 0)
(0.00367695 0 0)
(0.00378952 0 0)
(0.00390958 0 0)
(0.00403545 0 0)
(0.00416785 0 0)
(0.00430029 0 0)
(0.00443433 0 0)
(0.00455935 0 0)
(0.00466178 0 0)
(0.00474782 0 0)
(0.00481997 0 0)
(0.00487387 0 0)
(0.00490932 0 0)
(0.00492906 0 0)
(0.00493939 0 0)
(0.00494393 0 0)
(0.00494733 0 0)
(0.00495469 0 0)
)
;

boundaryField
{
    inlet
    {
        type            fixedValue;
        value           uniform (0 0 0);
    }
    outlet
    {
        type            zeroGradient;
    }
    yzfaces
    {
        type            empty;
    }
}


// ************************************************************************* //
