/*--------------------------------*- C++ -*----------------------------------*\
| =========                 |                                                 |
| \\      /  F ield         | foam-extend: Open Source CFD                    |
|  \\    /   O peration     | Version:     5.0                                |
|   \\  /    A nd           | Web:         http://www.foam-extend.org         |
|    \\/     M anipulation  |                                                 |
\*---------------------------------------------------------------------------*/
FoamFile
{
    version     2.0;
    format      ascii;
    class       volVectorField;
    location    "5";
    object      U.water;
}
// * * * * * * * * * * * * * * * * * * * * * * * * * * * * * * * * * * * * * //

dimensions      [0 1 -1 0 0 0 0];

internalField   nonuniform List<vector> 
100
(
(5.06159e-05 0 0)
(0.000120598 0 0)
(0.000177693 0 0)
(0.000224346 0 0)
(0.000274151 0 0)
(0.000326926 0 0)
(0.000376943 0 0)
(0.000424065 0 0)
(0.000472113 0 0)
(0.000523676 0 0)
(0.000570114 0 0)
(0.000611337 0 0)
(0.000657368 0 0)
(0.000702714 0 0)
(0.000741753 0 0)
(0.000774147 0 0)
(0.000805021 0 0)
(0.000846077 0 0)
(0.00088404 0 0)
(0.000923852 0 0)
(0.000972529 0 0)
(0.00101483 0 0)
(0.00105019 0 0)
(0.00107923 0 0)
(0.00111121 0 0)
(0.00114595 0 0)
(0.0011851 0 0)
(0.00122295 0 0)
(0.00126008 0 0)
(0.00129836 0 0)
(0.00133751 0 0)
(0.00137527 0 0)
(0.00141241 0 0)
(0.00144824 0 0)
(0.00147967 0 0)
(0.00151267 0 0)
(0.00154684 0 0)
(0.00158592 0 0)
(0.00162344 0 0)
(0.00165899 0 0)
(0.00169845 0 0)
(0.00173609 0 0)
(0.00177453 0 0)
(0.0018091 0 0)
(0.00184102 0 0)
(0.00187156 0 0)
(0.00190452 0 0)
(0.00193908 0 0)
(0.00197317 0 0)
(0.00200753 0 0)
(0.00203906 0 0)
(0.00207231 0 0)
(0.00210353 0 0)
(0.00213601 0 0)
(0.00216489 0 0)
(0.00219622 0 0)
(0.00223465 0 0)
(0.00227431 0 0)
(0.00232071 0 0)
(0.00236598 0 0)
(0.002406 0 0)
(0.00244612 0 0)
(0.00248801 0 0)
(0.00253778 0 0)
(0.0025895 0 0)
(0.0026326 0 0)
(0.00267757 0 0)
(0.00272876 0 0)
(0.00278181 0 0)
(0.00283087 0 0)
(0.00287944 0 0)
(0.00293278 0 0)
(0.00299176 0 0)
(0.00305411 0 0)
(0.00311529 0 0)
(0.00317987 0 0)
(0.00325152 0 0)
(0.00332489 0 0)
(0.0034002 0 0)
(0.00348077 0 0)
(0.00356823 0 0)
(0.00366066 0 0)
(0.00376007 0 0)
(0.00386625 0 0)
(0.00398725 0 0)
(0.00411609 0 0)
(0.00424697 0 0)
(0.00438615 0 0)
(0.00451997 0 0)
(0.00464393 0 0)
(0.00475554 0 0)
(0.00484616 0 0)
(0.00491723 0 0)
(0.00496581 0 0)
(0.00500007 0 0)
(0.00501799 0 0)
(0.00502475 0 0)
(0.00503017 0 0)
(0.00502975 0 0)
(0.00503345 0 0)
)
;

boundaryField
{
    inlet
    {
        type            fixedValue;
        value           uniform (0 0 0);
    }
    outlet
    {
        type            zeroGradient;
    }
    yzfaces
    {
        type            empty;
    }
}


// ************************************************************************* //
