/*--------------------------------*- C++ -*----------------------------------*\
| =========                 |                                                 |
| \\      /  F ield         | foam-extend: Open Source CFD                    |
|  \\    /   O peration     | Version:     5.0                                |
|   \\  /    A nd           | Web:         http://www.foam-extend.org         |
|    \\/     M anipulation  |                                                 |
\*---------------------------------------------------------------------------*/
FoamFile
{
    version     2.0;
    format      ascii;
    class       volScalarField;
    location    "8.43515";
    object      CO2.water;
}
// * * * * * * * * * * * * * * * * * * * * * * * * * * * * * * * * * * * * * //

dimensions      [0 0 0 0 0 0 0];

internalField   nonuniform List<scalar> 
100
(
6.2208e-05
1.26097e-05
2.09627e-06
3.13967e-07
4.40404e-08
5.90178e-09
7.64077e-10
9.62466e-11
1.18538e-11
1.43265e-12
1.70359e-13
1.9971e-14
2.31131e-15
2.64439e-16
2.9944e-17
3.35899e-18
3.73469e-19
4.11829e-20
4.50717e-21
4.89744e-22
5.28563e-23
5.66834e-24
6.04256e-25
6.40376e-26
6.74943e-27
7.0771e-28
7.3831e-29
7.66436e-30
7.92065e-31
8.14775e-32
8.34517e-33
8.51176e-34
8.64536e-35
8.74728e-36
8.8166e-37
8.85223e-38
8.85769e-39
8.83145e-40
8.77521e-41
8.69e-42
8.57782e-43
8.44169e-44
8.2812e-45
8.09989e-46
7.89817e-47
7.6798e-48
7.44697e-49
7.20028e-50
6.94357e-51
6.67746e-52
6.40491e-53
6.12728e-54
5.84671e-55
5.5663e-56
5.28579e-57
5.00816e-58
4.73356e-59
4.46406e-60
4.2001e-61
3.94306e-62
3.69335e-63
3.45216e-64
3.2201e-65
2.9975e-66
2.78452e-67
2.58145e-68
2.38836e-69
2.20552e-70
2.03251e-71
1.86956e-72
1.71648e-73
1.57289e-74
1.43884e-75
1.31392e-76
1.19762e-77
1.08968e-78
9.8982e-80
8.9754e-81
8.12538e-82
7.34382e-83
6.62657e-84
5.96954e-85
5.3696e-86
4.82267e-87
4.32473e-88
3.87235e-89
3.46147e-90
3.08976e-91
2.75375e-92
2.45104e-93
2.17819e-94
1.93336e-95
1.71339e-96
1.51649e-97
1.34034e-98
1.18311e-99
1.04278e-100
9.17829e-102
8.06694e-103
7.08088e-104
)
;

boundaryField
{
    inlet
    {
        type            fixedValue;
        value           uniform 0;
    }
    outlet
    {
        type            zeroGradient;
    }
    yzfaces
    {
        type            empty;
    }
}


// ************************************************************************* //
