/*--------------------------------*- C++ -*----------------------------------*\
| =========                 |                                                 |
| \\      /  F ield         | foam-extend: Open Source CFD                    |
|  \\    /   O peration     | Version:     5.0                                |
|   \\  /    A nd           | Web:         http://www.foam-extend.org         |
|    \\/     M anipulation  |                                                 |
\*---------------------------------------------------------------------------*/
FoamFile
{
    version     2.0;
    format      ascii;
    class       volScalarField;
    location    "1.7397539380403";
    object      alpha.gas;
}
// * * * * * * * * * * * * * * * * * * * * * * * * * * * * * * * * * * * * * //

dimensions      [0 0 0 0 0 0 0];

internalField   nonuniform List<scalar> 
100
(
0.129614
0.112261
0.101178
0.0934099
0.087489
0.0821468
0.0776496
0.0737558
0.0701789
0.0667698
0.0635236
0.0604204
0.0574015
0.0545142
0.0506328
0.0464965
0.0431198
0.0405944
0.0388648
0.0376651
0.0368202
0.0361203
0.0354253
0.0346634
0.0337576
0.0326951
0.0314763
0.0300917
0.0285375
0.0267932
0.0248604
0.02279
0.0206265
0.0184448
0.0163786
0.0145494
0.0130593
0.0119509
0.0111882
0.0106993
0.0104005
0.0102231
0.0101236
0.010069
0.0100374
0.0100202
0.0100115
0.0100058
0.0100027
0.0100007
0.00999769
0.00999612
0.00999736
0.00999742
0.00999984
0.01
0.0100008
0.0100003
0.0100021
0.0100018
0.00999998
0.00999924
0.0100007
0.0100015
0.0100017
0.0100009
0.0100012
0.0100014
0.0100011
0.0100013
0.0100022
0.0100005
0.0100025
0.0100027
0.0100011
0.0100007
0.0100022
0.010002
0.01
0.0100002
0.00999877
0.01
0.00999828
0.00999833
0.00999744
0.00999898
0.0100001
0.0100032
0.0100009
0.0100003
0.00999945
0.00999764
0.0100003
0.00999881
0.00999857
0.00999828
0.00999652
0.00999641
0.00999689
0.00999504
)
;

boundaryField
{
    inlet
    {
        type            fixedValue;
        value           uniform 0.2;
    }
    outlet
    {
        type            zeroGradient;
    }
    yzfaces
    {
        type            empty;
    }
}


// ************************************************************************* //
