/*--------------------------------*- C++ -*----------------------------------*\
| =========                 |                                                 |
| \\      /  F ield         | foam-extend: Open Source CFD                    |
|  \\    /   O peration     | Version:     5.0                                |
|   \\  /    A nd           | Web:         http://www.foam-extend.org         |
|    \\/     M anipulation  |                                                 |
\*---------------------------------------------------------------------------*/
FoamFile
{
    version     2.0;
    format      ascii;
    class       volScalarField;
    location    "1.7397539380403";
    object      Cl.water;
}
// * * * * * * * * * * * * * * * * * * * * * * * * * * * * * * * * * * * * * //

dimensions      [0 0 0 0 0 0 0];

internalField   nonuniform List<scalar> 
100
(
0
0.00470235
0.008382
0.00653238
0.00679392
0.00888156
0.00741072
0.00748642
0.00947055
0.0119339
0.00849496
0.00886346
0.0116719
0.0144504
0.00721967
0.0104202
0.0147556
0.0174963
0.0188256
0.0194018
0.0196754
0.0198103
0.0199054
0.0200024
0.0201138
0.0202384
0.0203944
0.0205709
0.0207411
0.0209548
0.0211722
0.0214456
0.0217003
0.021972
0.0222323
0.0224545
0.0226166
0.0227667
0.0228443
0.022917
0.0229458
0.0229708
0.0229767
0.0229899
0.0229858
0.0229898
0.0230051
0.0230046
0.0230023
0.0229779
0.0229848
0.022993
0.0229725
0.0229963
0.0229753
0.0230064
0.0230033
0.0230149
0.0230283
0.0229998
0.023
0.0229788
0.0229891
0.0229849
0.0229672
0.0229987
0.0229837
0.0229971
0.0229788
0.022992
0.0229869
0.0229992
0.0230118
0.0230175
0.0230154
0.0230158
0.0230123
0.0230135
0.0230099
0.0230058
0.0230353
0.0230288
0.0230255
0.0230111
0.0230142
0.0230082
0.0229732
0.0229945
0.0229998
0.0230002
0.0230091
0.0230078
0.0229833
0.0229681
0.0229695
0.0229602
0.0229628
0.0229513
0.0229429
0.0229674
)
;

boundaryField
{
    inlet
    {
        type            fixedValue;
        value           uniform 0;
    }
    outlet
    {
        type            zeroGradient;
    }
    yzfaces
    {
        type            empty;
    }
}


// ************************************************************************* //
