/*--------------------------------*- C++ -*----------------------------------*\
| =========                 |                                                 |
| \\      /  F ield         | foam-extend: Open Source CFD                    |
|  \\    /   O peration     | Version:     5.0                                |
|   \\  /    A nd           | Web:         http://www.foam-extend.org         |
|    \\/     M anipulation  |                                                 |
\*---------------------------------------------------------------------------*/
FoamFile
{
    version     2.0;
    format      ascii;
    class       volScalarField;
    location    "1.7397539380403";
    object      CO2.water;
}
// * * * * * * * * * * * * * * * * * * * * * * * * * * * * * * * * * * * * * //

dimensions      [0 0 0 0 0 0 0];

internalField   nonuniform List<scalar> 
100
(
0.00185001
0.00129625
0.000779445
0.00138541
0.00148919
0.00116408
0.00159771
0.00168607
0.001345
0.000896068
0.00172718
0.00173183
0.00120202
0.000682995
0.00235256
0.00176402
0.00091051
0.000390239
0.000147917
5.12668e-05
1.6672e-05
5.17804e-06
1.56026e-06
4.59516e-07
1.29886e-07
3.41243e-08
8.72751e-09
2.23556e-09
5.86671e-10
1.6106e-10
4.71048e-11
1.5162e-11
5.42489e-12
2.1205e-12
8.86203e-13
3.74515e-13
1.60254e-13
6.8902e-14
2.9855e-14
1.29123e-14
5.60285e-15
2.42161e-15
1.04703e-15
4.51364e-16
1.94416e-16
8.35367e-17
3.57914e-17
1.53715e-17
6.57272e-18
2.81899e-18
1.20412e-18
5.13373e-19
2.19063e-19
9.31889e-20
3.97417e-20
1.68872e-20
7.18195e-21
3.05809e-21
1.29785e-21
5.52458e-22
2.34254e-22
9.93794e-23
4.21201e-23
1.78762e-23
7.58968e-24
3.21567e-24
1.36436e-24
5.77384e-25
2.44217e-25
1.03035e-25
4.34711e-26
1.83741e-26
7.76563e-27
3.27502e-27
1.38254e-27
5.82471e-28
2.45217e-28
1.0316e-28
4.3331e-29
1.82529e-29
7.63871e-30
3.21317e-30
1.34901e-30
5.66183e-31
2.37066e-31
9.92173e-32
4.17184e-32
1.74816e-32
7.32419e-33
3.07741e-33
1.29033e-33
5.40002e-34
2.26242e-34
9.48546e-35
3.96358e-35
1.66128e-35
6.95731e-36
2.91165e-36
1.21822e-36
6.45255e-37
)
;

boundaryField
{
    inlet
    {
        type            fixedValue;
        value           uniform 0;
    }
    outlet
    {
        type            zeroGradient;
    }
    yzfaces
    {
        type            empty;
    }
}


// ************************************************************************* //
