/*--------------------------------*- C++ -*----------------------------------*\
| =========                 |                                                 |
| \\      /  F ield         | foam-extend: Open Source CFD                    |
|  \\    /   O peration     | Version:     5.0                                |
|   \\  /    A nd           | Web:         http://www.foam-extend.org         |
|    \\/     M anipulation  |                                                 |
\*---------------------------------------------------------------------------*/
FoamFile
{
    version     2.0;
    format      ascii;
    class       volScalarField;
    location    "1.7397539380403";
    object      H2O.gas;
}
// * * * * * * * * * * * * * * * * * * * * * * * * * * * * * * * * * * * * * //

dimensions      [0 0 0 0 0 0 0];

internalField   nonuniform List<scalar> 
100
(
2.03827e-10
2.12461e-08
1.49315e-07
5.8371e-07
1.71516e-06
4.22134e-06
9.20236e-06
1.82679e-05
3.39586e-05
6.07859e-05
0.000101771
0.000162818
0.000258752
0.000418812
0.000563879
0.00082713
0.00132915
0.0021271
0.00320907
0.00453756
0.006086
0.00779453
0.00960692
0.011477
0.0133331
0.015091
0.0166902
0.0180289
0.0190012
0.0195615
0.0196188
0.0192279
0.0183468
0.0171038
0.0156676
0.0142067
0.0129044
0.0118979
0.0111654
0.0106964
0.0103985
0.0102228
0.0101185
0.0100682
0.0100339
0.0100178
0.0100139
0.0100096
0.0100076
0.00999279
0.00999292
0.00999489
0.00998485
0.00999477
0.00998686
0.00999782
0.00999631
0.0100007
0.0100083
0.00999883
0.0100009
0.00999163
0.00999591
0.00999482
0.00998736
0.00999954
0.00999457
0.010002
0.00999592
0.0100048
0.0100031
0.0100043
0.0100085
0.0100107
0.0100081
0.0100075
0.0100086
0.0100062
0.0100059
0.0100049
0.0100148
0.0100101
0.0100067
0.0100021
0.0100036
0.0100006
0.00998651
0.00999768
0.00999575
0.00999426
0.00999977
0.00999942
0.0099938
0.00998894
0.00998856
0.0099826
0.0099828
0.00997858
0.00997426
0.00998301
)
;

boundaryField
{
    inlet
    {
        type            fixedValue;
        value           uniform 0;
    }
    outlet
    {
        type            zeroGradient;
    }
    yzfaces
    {
        type            empty;
    }
}


// ************************************************************************* //
