/*--------------------------------*- C++ -*----------------------------------*\
| =========                 |                                                 |
| \\      /  F ield         | foam-extend: Open Source CFD                    |
|  \\    /   O peration     | Version:     5.0                                |
|   \\  /    A nd           | Web:         http://www.foam-extend.org         |
|    \\/     M anipulation  |                                                 |
\*---------------------------------------------------------------------------*/
FoamFile
{
    version     2.0;
    format      ascii;
    class       volScalarField;
    location    "1.7397539380403";
    object      Na.water;
}
// * * * * * * * * * * * * * * * * * * * * * * * * * * * * * * * * * * * * * //

dimensions      [0 0 0 0 0 0 0];

internalField   nonuniform List<scalar> 
100
(
0
0.00470365
0.00838531
0.00653064
0.00679515
0.00888646
0.0074134
0.00748499
0.00946626
0.0119321
0.00849383
0.00886299
0.0116728
0.014447
0.007217
0.0104167
0.014756
0.0174986
0.01883
0.0194049
0.0196714
0.0198053
0.0198946
0.0199965
0.0201129
0.0202422
0.0204045
0.0205768
0.020746
0.0209631
0.0211801
0.0214455
0.0217014
0.0219641
0.0222188
0.0224391
0.0226042
0.0227689
0.0228461
0.0229163
0.0229392
0.0229634
0.0229612
0.0229794
0.022977
0.0229784
0.0229913
0.0230003
0.0229966
0.0229663
0.0229803
0.0229914
0.0229778
0.0230006
0.0229768
0.0230076
0.0230005
0.0230161
0.0230227
0.0229949
0.0229995
0.0229817
0.0229876
0.0229889
0.0229725
0.022995
0.0229902
0.0230043
0.0229925
0.0230085
0.0229896
0.0229987
0.0230056
0.0230049
0.0230019
0.0230062
0.0230068
0.0230079
0.0230107
0.0230141
0.0230369
0.0230271
0.0230221
0.023012
0.0230231
0.0230151
0.0229786
0.0229984
0.0229933
0.0229879
0.0229978
0.0230007
0.0229845
0.0229769
0.0229739
0.0229675
0.0229722
0.0229651
0.0229516
0.0229802
)
;

boundaryField
{
    inlet
    {
        type            fixedValue;
        value           uniform 0;
    }
    outlet
    {
        type            zeroGradient;
    }
    yzfaces
    {
        type            empty;
    }
}


// ************************************************************************* //
