/*--------------------------------*- C++ -*----------------------------------*\
| =========                 |                                                 |
| \\      /  F ield         | foam-extend: Open Source CFD                    |
|  \\    /   O peration     | Version:     5.0                                |
|   \\  /    A nd           | Web:         http://www.foam-extend.org         |
|    \\/     M anipulation  |                                                 |
\*---------------------------------------------------------------------------*/
FoamFile
{
    version     2.0;
    format      ascii;
    class       surfaceScalarField;
    location    "1.7397539380403";
    object      phi;
}
// * * * * * * * * * * * * * * * * * * * * * * * * * * * * * * * * * * * * * //

dimensions      [0 3 -1 0 0 0 0];

internalField   nonuniform List<scalar> 
99
(
1.22092e-06
1.21581e-06
1.21084e-06
1.21355e-06
1.21303e-06
1.20869e-06
1.20888e-06
1.20938e-06
1.20952e-06
1.21111e-06
1.21207e-06
1.21079e-06
1.21003e-06
1.21207e-06
1.20524e-06
1.2032e-06
1.20324e-06
1.20688e-06
1.20686e-06
1.20712e-06
1.20647e-06
1.20556e-06
1.20559e-06
1.20532e-06
1.2058e-06
1.20669e-06
1.2074e-06
1.20824e-06
1.20669e-06
1.20453e-06
1.20479e-06
1.20425e-06
1.20331e-06
1.2048e-06
1.20426e-06
1.20434e-06
1.20611e-06
1.20571e-06
1.2061e-06
1.20542e-06
1.20468e-06
1.20471e-06
1.20594e-06
1.2063e-06
1.206e-06
1.20797e-06
1.20752e-06
1.20784e-06
1.20933e-06
1.20981e-06
1.21038e-06
1.20885e-06
1.20893e-06
1.20715e-06
1.2081e-06
1.20719e-06
1.20847e-06
1.20881e-06
1.20842e-06
1.20798e-06
1.20634e-06
1.20641e-06
1.20571e-06
1.20382e-06
1.20499e-06
1.20728e-06
1.20877e-06
1.20829e-06
1.20767e-06
1.20613e-06
1.20584e-06
1.20794e-06
1.20715e-06
1.20807e-06
1.20884e-06
1.20867e-06
1.20954e-06
1.20776e-06
1.20761e-06
1.20954e-06
1.20845e-06
1.20843e-06
1.20824e-06
1.20757e-06
1.20825e-06
1.20547e-06
1.20705e-06
1.20701e-06
1.20535e-06
1.20782e-06
1.20731e-06
1.20747e-06
1.20718e-06
1.20838e-06
1.20852e-06
1.20782e-06
1.20568e-06
1.20639e-06
1.20731e-06
)
;

boundaryField
{
    inlet
    {
        type            calculated;
        value           uniform -1.225e-06;
    }
    outlet
    {
        type            calculated;
        value           uniform 1.20682e-06;
    }
    yzfaces
    {
        type            empty;
    }
}


// ************************************************************************* //
