/*--------------------------------*- C++ -*----------------------------------*\
| =========                 |                                                 |
| \\      /  F ield         | foam-extend: Open Source CFD                    |
|  \\    /   O peration     | Version:     5.0                                |
|   \\  /    A nd           | Web:         http://www.foam-extend.org         |
|    \\/     M anipulation  |                                                 |
\*---------------------------------------------------------------------------*/
FoamFile
{
    version     2.0;
    format      ascii;
    class       surfaceScalarField;
    location    "1.7397539380403";
    object      phi.water;
}
// * * * * * * * * * * * * * * * * * * * * * * * * * * * * * * * * * * * * * //

dimensions      [0 3 -1 0 0 0 0];

internalField   nonuniform List<scalar> 
99
(
2.53315e-07
4.35924e-07
6.06195e-07
7.61433e-07
9.03564e-07
1.05584e-06
1.20472e-06
1.35138e-06
1.50234e-06
1.6631e-06
1.83097e-06
2.00294e-06
2.18376e-06
2.36973e-06
2.63504e-06
2.96897e-06
3.26859e-06
3.51554e-06
3.68821e-06
3.8101e-06
3.89278e-06
3.9596e-06
4.02967e-06
4.10181e-06
4.19156e-06
4.29807e-06
4.41926e-06
4.55978e-06
4.70857e-06
4.86977e-06
5.0506e-06
5.23268e-06
5.41151e-06
5.58497e-06
5.72356e-06
5.83709e-06
5.92394e-06
5.97315e-06
6.00769e-06
6.02275e-06
6.03111e-06
6.03937e-06
6.04944e-06
6.05267e-06
6.0528e-06
6.06147e-06
6.05762e-06
6.0587e-06
6.06977e-06
6.07517e-06
6.07616e-06
6.07089e-06
6.07164e-06
6.06295e-06
6.06743e-06
6.06036e-06
6.0659e-06
6.06441e-06
6.06336e-06
6.06279e-06
6.05598e-06
6.05814e-06
6.05427e-06
6.04762e-06
6.0519e-06
6.06108e-06
6.06807e-06
6.06511e-06
6.06116e-06
6.05162e-06
6.05005e-06
6.05915e-06
6.05382e-06
6.05795e-06
6.06228e-06
6.06169e-06
6.0668e-06
6.05798e-06
6.05728e-06
6.06374e-06
6.05677e-06
6.05888e-06
6.05986e-06
6.05721e-06
6.06133e-06
6.05328e-06
6.06345e-06
6.06046e-06
6.05239e-06
6.06312e-06
6.05827e-06
6.06129e-06
6.06322e-06
6.07031e-06
6.07284e-06
6.07043e-06
6.06036e-06
6.06663e-06
6.06945e-06
)
;

boundaryField
{
    inlet
    {
        type            fixedValue;
        value           uniform 0;
    }
    outlet
    {
        type            calculated;
        value           uniform 6.06399e-06;
    }
    yzfaces
    {
        type            empty;
    }
}


// ************************************************************************* //
