/*--------------------------------*- C++ -*----------------------------------*\
| =========                 |                                                 |
| \\      /  F ield         | foam-extend: Open Source CFD                    |
|  \\    /   O peration     | Version:     5.0                                |
|   \\  /    A nd           | Web:         http://www.foam-extend.org         |
|    \\/     M anipulation  |                                                 |
\*---------------------------------------------------------------------------*/
FoamFile
{
    version     2.0;
    format      ascii;
    class       volScalarField;
    location    "1.7397539380403";
    object      S.gas;
}
// * * * * * * * * * * * * * * * * * * * * * * * * * * * * * * * * * * * * * //

dimensions      [0 0 0 0 0 0 0];

internalField   nonuniform List<scalar> 
100
(
0.64807
0.561304
0.50589
0.46705
0.437445
0.410734
0.388248
0.368779
0.350894
0.333849
0.317618
0.302102
0.287008
0.272571
0.253164
0.232482
0.215599
0.202972
0.194324
0.188326
0.184101
0.180602
0.177126
0.173317
0.168788
0.163476
0.157382
0.150459
0.142687
0.133966
0.124302
0.11395
0.103132
0.0922239
0.0818928
0.0727469
0.0652967
0.0597546
0.0559409
0.0534963
0.0520026
0.0511155
0.0506182
0.0503449
0.0501871
0.0501008
0.0500575
0.0500291
0.0500134
0.0500034
0.0499884
0.0499806
0.0499868
0.0499871
0.0499992
0.0500002
0.0500042
0.0500016
0.0500104
0.050009
0.0499999
0.0499962
0.0500036
0.0500076
0.0500084
0.0500044
0.050006
0.0500069
0.0500055
0.0500066
0.0500112
0.0500027
0.0500124
0.0500135
0.0500055
0.0500037
0.050011
0.0500102
0.05
0.0500011
0.0499938
0.05
0.0499914
0.0499917
0.0499872
0.0499949
0.0500006
0.0500161
0.0500044
0.0500015
0.0499972
0.0499882
0.0500015
0.0499941
0.0499929
0.0499914
0.0499826
0.0499821
0.0499844
0.0499752
)
;

boundaryField
{
    inlet
    {
        type            calculated;
        value           uniform 1;
    }
    outlet
    {
        type            calculated;
        value           uniform 0.0499752;
    }
    yzfaces
    {
        type            empty;
    }
}


// ************************************************************************* //
