/*--------------------------------*- C++ -*----------------------------------*\
| =========                 |                                                 |
| \\      /  F ield         | foam-extend: Open Source CFD                    |
|  \\    /   O peration     | Version:     5.0                                |
|   \\  /    A nd           | Web:         http://www.foam-extend.org         |
|    \\/     M anipulation  |                                                 |
\*---------------------------------------------------------------------------*/
FoamFile
{
    version     2.0;
    format      ascii;
    class       volVectorField;
    location    "1.7397539380403";
    object      U.gas;
}
// * * * * * * * * * * * * * * * * * * * * * * * * * * * * * * * * * * * * * //

dimensions      [0 1 -1 0 0 0 0];

internalField   nonuniform List<vector> 
100
(
(0.00763911 0 0)
(0.00863828 0 0)
(0.0093735 0 0)
(0.00995622 0 0)
(0.0104453 0 0)
(0.0108867 0 0)
(0.0112572 0 0)
(0.0116005 0 0)
(0.0119195 0 0)
(0.0122283 0 0)
(0.0125163 0 0)
(0.0127618 0 0)
(0.0129758 0 0)
(0.0131684 0 0)
(0.0134577 0 0)
(0.013604 0 0)
(0.0135347 0 0)
(0.0133731 0 0)
(0.0131686 0 0)
(0.012982 0 0)
(0.0128319 0 0)
(0.012722 0 0)
(0.0126404 0 0)
(0.012565 0 0)
(0.0124866 0 0)
(0.012385 0 0)
(0.0122455 0 0)
(0.0120595 0 0)
(0.0118022 0 0)
(0.0114593 0 0)
(0.0110371 0 0)
(0.0105109 0 0)
(0.009867 0 0)
(0.00912429 0 0)
(0.00830097 0 0)
(0.00745142 0 0)
(0.00666024 0 0)
(0.00599135 0 0)
(0.00547949 0 0)
(0.00512572 0 0)
(0.00489752 0 0)
(0.00475708 0 0)
(0.00467636 0 0)
(0.00463388 0 0)
(0.00460902 0 0)
(0.00459736 0 0)
(0.00459275 0 0)
(0.00458843 0 0)
(0.0045891 0 0)
(0.00459178 0 0)
(0.00459262 0 0)
(0.00458929 0 0)
(0.00458634 0 0)
(0.00458344 0 0)
(0.00458177 0 0)
(0.0045827 0 0)
(0.00458336 0 0)
(0.00458698 0 0)
(0.0045865 0 0)
(0.00458585 0 0)
(0.00458213 0 0)
(0.00457858 0 0)
(0.00457701 0 0)
(0.00457293 0 0)
(0.00457169 0 0)
(0.00457818 0 0)
(0.00458453 0 0)
(0.00458677 0 0)
(0.00458535 0 0)
(0.00458077 0 0)
(0.00457696 0 0)
(0.00458061 0 0)
(0.00458202 0 0)
(0.00458389 0 0)
(0.00458812 0 0)
(0.00458808 0 0)
(0.0045885 0 0)
(0.0045873 0 0)
(0.00458326 0 0)
(0.00458577 0 0)
(0.00458791 0 0)
(0.00458498 0 0)
(0.00458583 0 0)
(0.00458326 0 0)
(0.0045828 0 0)
(0.00457885 0 0)
(0.00457718 0 0)
(0.00458037 0 0)
(0.00457882 0 0)
(0.00457947 0 0)
(0.00458252 0 0)
(0.00458083 0 0)
(0.00457968 0 0)
(0.00458314 0 0)
(0.00458488 0 0)
(0.00458339 0 0)
(0.0045784 0 0)
(0.00457519 0 0)
(0.00457809 0 0)
(0.00457782 0 0)
)
;

boundaryField
{
    inlet
    {
        type            fixedValue;
        value           uniform (0.005 0 0);
    }
    outlet
    {
        type            zeroGradient;
    }
    yzfaces
    {
        type            empty;
    }
}


// ************************************************************************* //
