/*--------------------------------*- C++ -*----------------------------------*\
| =========                 |                                                 |
| \\      /  F ield         | foam-extend: Open Source CFD                    |
|  \\    /   O peration     | Version:     5.0                                |
|   \\  /    A nd           | Web:         http://www.foam-extend.org         |
|    \\/     M anipulation  |                                                 |
\*---------------------------------------------------------------------------*/
FoamFile
{
    version     2.0;
    format      ascii;
    class       volVectorField;
    location    "1.7397539380403";
    object      U.water;
}
// * * * * * * * * * * * * * * * * * * * * * * * * * * * * * * * * * * * * * //

dimensions      [0 1 -1 0 0 0 0];

internalField   nonuniform List<vector> 
100
(
(0.000116497 0 0)
(0.000283159 0 0)
(0.000425803 0 0)
(0.000558574 0 0)
(0.000680811 0 0)
(0.000798863 0 0)
(0.000920684 0 0)
(0.00104114 0 0)
(0.00116167 0 0)
(0.0012875 0 0)
(0.00142128 0 0)
(0.00156074 0 0)
(0.0017059 0 0)
(0.00186102 0 0)
(0.00204369 0 0)
(0.00228332 0 0)
(0.00254083 0 0)
(0.00276558 0 0)
(0.00293793 0 0)
(0.00305745 0 0)
(0.00314174 0 0)
(0.00320344 0 0)
(0.00325902 0 0)
(0.00331745 0 0)
(0.00338428 0 0)
(0.00346529 0 0)
(0.00355974 0 0)
(0.00366718 0 0)
(0.0037844 0 0)
(0.00390944 0 0)
(0.00404826 0 0)
(0.00419694 0 0)
(0.00434377 0 0)
(0.00448684 0 0)
(0.00461457 0 0)
(0.00471657 0 0)
(0.00479767 0 0)
(0.00485413 0 0)
(0.00488901 0 0)
(0.00490992 0 0)
(0.00491972 0 0)
(0.00492573 0 0)
(0.00493267 0 0)
(0.00493827 0 0)
(0.00493967 0 0)
(0.00494383 0 0)
(0.00494732 0 0)
(0.00494725 0 0)
(0.00495109 0 0)
(0.00495518 0 0)
(0.0049574 0 0)
(0.00495551 0 0)
(0.00495256 0 0)
(0.00494907 0 0)
(0.00494738 0 0)
(0.0049474 0 0)
(0.00494816 0 0)
(0.00495144 0 0)
(0.00495135 0 0)
(0.00494961 0 0)
(0.00494534 0 0)
(0.00494216 0 0)
(0.00494089 0 0)
(0.00493554 0 0)
(0.00493406 0 0)
(0.00494115 0 0)
(0.00494894 0 0)
(0.00495101 0 0)
(0.00494872 0 0)
(0.00494431 0 0)
(0.00494058 0 0)
(0.00494428 0 0)
(0.00494701 0 0)
(0.00494718 0 0)
(0.00495059 0 0)
(0.00495189 0 0)
(0.00495336 0 0)
(0.00495147 0 0)
(0.00494755 0 0)
(0.00495123 0 0)
(0.00495291 0 0)
(0.00495068 0 0)
(0.0049502 0 0)
(0.00494849 0 0)
(0.00494852 0 0)
(0.00494422 0 0)
(0.00494174 0 0)
(0.00494488 0 0)
(0.00494131 0 0)
(0.00494302 0 0)
(0.00494706 0 0)
(0.0049464 0 0)
(0.00494619 0 0)
(0.00494796 0 0)
(0.00495074 0 0)
(0.00494962 0 0)
(0.00494378 0 0)
(0.00494087 0 0)
(0.00494421 0 0)
(0.00494514 0 0)
)
;

boundaryField
{
    inlet
    {
        type            fixedValue;
        value           uniform (0 0 0);
    }
    outlet
    {
        type            zeroGradient;
    }
    yzfaces
    {
        type            empty;
    }
}


// ************************************************************************* //
