/*--------------------------------*- C++ -*----------------------------------*\
| =========                 |                                                 |
| \\      /  F ield         | foam-extend: Open Source CFD                    |
|  \\    /   O peration     | Version:     5.0                                |
|   \\  /    A nd           | Web:         http://www.foam-extend.org         |
|    \\/     M anipulation  |                                                 |
\*---------------------------------------------------------------------------*/
FoamFile
{
    version     2.0;
    format      ascii;
    class       volScalarField;
    location    "3";
    object      alpha.gas;
}
// * * * * * * * * * * * * * * * * * * * * * * * * * * * * * * * * * * * * * //

dimensions      [0 0 0 0 0 0 0];

internalField   nonuniform List<scalar> 
100
(
0.144335
0.128185
0.119086
0.110587
0.103985
0.0991212
0.0947218
0.0908193
0.0876323
0.0851387
0.082376
0.0799828
0.0777101
0.0755005
0.073614
0.0718257
0.0701627
0.0686096
0.0671533
0.0657102
0.0641427
0.0630313
0.061796
0.0605266
0.0594175
0.0581409
0.0569765
0.0559517
0.0549371
0.0538606
0.052932
0.0518601
0.0508161
0.0499001
0.0488604
0.0478803
0.0468391
0.0458601
0.0447861
0.0437362
0.0426504
0.0415763
0.0404508
0.0392881
0.0381266
0.0369008
0.0356556
0.0342972
0.0328776
0.0313563
0.0297476
0.0280193
0.0261638
0.0241889
0.0221286
0.0200091
0.0179102
0.0159562
0.0142488
0.0128634
0.0118356
0.0111313
0.0106771
0.0103952
0.0102279
0.0101284
0.0100705
0.0100397
0.0100233
0.0100147
0.0100084
0.010007
0.0100027
0.0100035
0.0100033
0.0100029
0.0100039
0.0100018
0.0100024
0.0100006
0.00999982
0.0099974
0.00999807
0.00999958
0.0100004
0.00999931
0.00999829
0.00999684
0.0099971
0.00999748
0.00999713
0.00999798
0.00999916
0.00999845
0.00999859
0.00999618
0.00999567
0.00999687
0.00999715
0.0100018
)
;

boundaryField
{
    inlet
    {
        type            fixedValue;
        value           uniform 0.2;
    }
    outlet
    {
        type            zeroGradient;
    }
    yzfaces
    {
        type            empty;
    }
}


// ************************************************************************* //
