/*--------------------------------*- C++ -*----------------------------------*\
| =========                 |                                                 |
| \\      /  F ield         | foam-extend: Open Source CFD                    |
|  \\    /   O peration     | Version:     5.0                                |
|   \\  /    A nd           | Web:         http://www.foam-extend.org         |
|    \\/     M anipulation  |                                                 |
\*---------------------------------------------------------------------------*/
FoamFile
{
    version     2.0;
    format      ascii;
    class       volScalarField;
    location    "3";
    object      Cl.water;
}
// * * * * * * * * * * * * * * * * * * * * * * * * * * * * * * * * * * * * * //

dimensions      [0 0 0 0 0 0 0];

internalField   nonuniform List<scalar> 
100
(
0.0112054
0.0146535
0.0168699
0.0182413
0.0194871
0.0204851
0.0215004
0.0221935
0.0227474
0.0234351
0.0238766
0.0245367
0.0248794
0.025337
0.0258225
0.0261473
0.0265243
0.0268307
0.0271589
0.0273931
0.0276609
0.0280437
0.0283028
0.0285944
0.028788
0.0289807
0.029227
0.0295516
0.0297399
0.0299296
0.0301137
0.030291
0.0304994
0.030736
0.0308665
0.0311133
0.0312721
0.0315436
0.0316997
0.0319226
0.0321084
0.0323299
0.0325704
0.0337582
0.0340805
0.0343165
0.0345934
0.0348528
0.0351695
0.0354957
0.0358203
0.0361916
0.0365712
0.0370037
0.0374614
0.0379118
0.0383469
0.0387768
0.0390837
0.0393818
0.039576
0.0397682
0.0398763
0.0399534
0.0399916
0.0400553
0.0400204
0.0399961
0.0399987
0.0400021
0.0400296
0.040018
0.039998
0.0400262
0.0400013
0.0400232
0.0400165
0.040025
0.0400196
0.0400335
0.0400133
0.03999
0.0399919
0.0399529
0.0399716
0.0399634
0.0399611
0.0399502
0.0399258
0.0399377
0.0399549
0.0399958
0.0399723
0.0399958
0.0399942
0.0400044
0.0400484
0.0399848
0.0400038
0.0400577
)
;

boundaryField
{
    inlet
    {
        type            fixedValue;
        value           uniform 0;
    }
    outlet
    {
        type            zeroGradient;
    }
    yzfaces
    {
        type            empty;
    }
}


// ************************************************************************* //
