/*--------------------------------*- C++ -*----------------------------------*\
| =========                 |                                                 |
| \\      /  F ield         | foam-extend: Open Source CFD                    |
|  \\    /   O peration     | Version:     5.0                                |
|   \\  /    A nd           | Web:         http://www.foam-extend.org         |
|    \\/     M anipulation  |                                                 |
\*---------------------------------------------------------------------------*/
FoamFile
{
    version     2.0;
    format      ascii;
    class       volScalarField;
    location    "3";
    object      H2O.gas;
}
// * * * * * * * * * * * * * * * * * * * * * * * * * * * * * * * * * * * * * //

dimensions      [0 0 0 0 0 0 0];

internalField   nonuniform List<scalar> 
100
(
0.000281089
0.000249637
0.000231916
0.000215366
0.000202507
0.000193036
0.000184468
0.000176868
0.000170661
0.000165805
0.000160425
0.000155764
0.000151338
0.000147035
0.000143361
0.000139878
0.00013664
0.000133615
0.000130779
0.000127969
0.000124916
0.000122752
0.000120346
0.000117874
0.000115714
0.000113228
0.00011096
0.000108964
0.000106988
0.000104892
0.000103083
0.000100996
9.89629e-05
9.7179e-05
9.51543e-05
9.32454e-05
9.12178e-05
8.93111e-05
8.72197e-05
8.5175e-05
8.30605e-05
8.09686e-05
7.87768e-05
0.00714251
0.0102577
0.0130298
0.0154894
0.0175388
0.0192243
0.0204822
0.0212938
0.0216548
0.0215356
0.020991
0.0200454
0.0187363
0.0171905
0.0155966
0.0140687
0.0127867
0.0117971
0.0111224
0.0106795
0.0104029
0.0102356
0.0101474
0.0100803
0.0100428
0.0100214
0.0100128
0.0100137
0.0100066
0.00999969
0.0100067
0.0100014
0.0100075
0.0100062
0.0100086
0.0100101
0.0100132
0.0100036
0.0099975
0.00999838
0.00998846
0.00999369
0.00999372
0.00999426
0.00999177
0.00998368
0.00998576
0.0099861
0.00999521
0.00999174
0.00999567
0.00999647
0.00999698
0.0100054
0.00999214
0.00999515
0.0100095
)
;

boundaryField
{
    inlet
    {
        type            fixedValue;
        value           uniform 0;
    }
    outlet
    {
        type            zeroGradient;
    }
    yzfaces
    {
        type            empty;
    }
}


// ************************************************************************* //
