/*--------------------------------*- C++ -*----------------------------------*\
| =========                 |                                                 |
| \\      /  F ield         | foam-extend: Open Source CFD                    |
|  \\    /   O peration     | Version:     5.0                                |
|   \\  /    A nd           | Web:         http://www.foam-extend.org         |
|    \\/     M anipulation  |                                                 |
\*---------------------------------------------------------------------------*/
FoamFile
{
    version     2.0;
    format      ascii;
    class       surfaceScalarField;
    location    "3";
    object      phi;
}
// * * * * * * * * * * * * * * * * * * * * * * * * * * * * * * * * * * * * * //

dimensions      [0 3 -1 0 0 0 0];

internalField   nonuniform List<scalar> 
99
(
1.22344e-06
1.22603e-06
1.20817e-06
1.2138e-06
1.21147e-06
1.21211e-06
1.21271e-06
1.22068e-06
1.22412e-06
1.22617e-06
1.22424e-06
1.2225e-06
1.2174e-06
1.21985e-06
1.218e-06
1.21786e-06
1.2165e-06
1.2172e-06
1.21622e-06
1.21325e-06
1.21868e-06
1.2147e-06
1.20909e-06
1.21133e-06
1.20574e-06
1.20852e-06
1.20793e-06
1.20422e-06
1.20167e-06
1.20475e-06
1.19839e-06
1.20199e-06
1.20028e-06
1.19677e-06
1.19553e-06
1.19286e-06
1.19478e-06
1.19088e-06
1.19123e-06
1.18942e-06
1.18933e-06
1.19025e-06
1.19026e-06
1.19157e-06
1.19039e-06
1.19174e-06
1.19068e-06
1.1917e-06
1.19158e-06
1.19194e-06
1.1922e-06
1.19115e-06
1.19201e-06
1.19253e-06
1.19228e-06
1.19079e-06
1.19265e-06
1.19069e-06
1.18929e-06
1.18866e-06
1.18991e-06
1.18993e-06
1.19178e-06
1.19216e-06
1.19379e-06
1.19368e-06
1.19308e-06
1.18999e-06
1.19223e-06
1.19283e-06
1.19295e-06
1.19219e-06
1.19249e-06
1.19218e-06
1.19168e-06
1.19089e-06
1.1917e-06
1.19062e-06
1.19155e-06
1.18979e-06
1.19009e-06
1.19021e-06
1.18814e-06
1.19022e-06
1.19043e-06
1.18811e-06
1.18919e-06
1.19101e-06
1.19124e-06
1.18969e-06
1.19246e-06
1.19369e-06
1.19407e-06
1.19259e-06
1.19319e-06
1.19295e-06
1.19163e-06
1.19342e-06
1.19469e-06
)
;

boundaryField
{
    inlet
    {
        type            calculated;
        value           uniform -1.225e-06;
    }
    outlet
    {
        type            calculated;
        value           uniform 1.19525e-06;
    }
    yzfaces
    {
        type            empty;
    }
}


// ************************************************************************* //
