/*--------------------------------*- C++ -*----------------------------------*\
| =========                 |                                                 |
| \\      /  F ield         | foam-extend: Open Source CFD                    |
|  \\    /   O peration     | Version:     5.0                                |
|   \\  /    A nd           | Web:         http://www.foam-extend.org         |
|    \\/     M anipulation  |                                                 |
\*---------------------------------------------------------------------------*/
FoamFile
{
    version     2.0;
    format      ascii;
    class       volVectorField;
    location    "3";
    object      U.gas;
}
// * * * * * * * * * * * * * * * * * * * * * * * * * * * * * * * * * * * * * //

dimensions      [0 1 -1 0 0 0 0];

internalField   nonuniform List<vector> 
100
(
(0.00689485 0 0)
(0.00769838 0 0)
(0.0081639 0 0)
(0.00866537 0 0)
(0.0091298 0 0)
(0.00947185 0 0)
(0.00981563 0 0)
(0.0101623 0 0)
(0.0104676 0 0)
(0.0106933 0 0)
(0.0109422 0 0)
(0.0111303 0 0)
(0.0112979 0 0)
(0.0114819 0 0)
(0.0116443 0 0)
(0.0117902 0 0)
(0.0119232 0 0)
(0.0120496 0 0)
(0.0121694 0 0)
(0.0122708 0 0)
(0.0124197 0 0)
(0.0124915 0 0)
(0.0125444 0 0)
(0.0126238 0 0)
(0.012676 0 0)
(0.0127616 0 0)
(0.0128416 0 0)
(0.01287 0 0)
(0.0128937 0 0)
(0.0129594 0 0)
(0.0129743 0 0)
(0.0130202 0 0)
(0.0130669 0 0)
(0.0130554 0 0)
(0.0130725 0 0)
(0.013063 0 0)
(0.0130822 0 0)
(0.0130709 0 0)
(0.0130634 0 0)
(0.0130417 0 0)
(0.013017 0 0)
(0.0129895 0 0)
(0.0129561 0 0)
(0.0129078 0 0)
(0.0128349 0 0)
(0.0127529 0 0)
(0.0126407 0 0)
(0.0125166 0 0)
(0.0123543 0 0)
(0.0121543 0 0)
(0.0119032 0 0)
(0.0115929 0 0)
(0.011216 0 0)
(0.0107601 0 0)
(0.0102023 0 0)
(0.00954462 0 0)
(0.00880078 0 0)
(0.0079954 0 0)
(0.00718003 0 0)
(0.00643533 0 0)
(0.00581831 0 0)
(0.00535443 0 0)
(0.00503613 0 0)
(0.00483336 0 0)
(0.00470822 0 0)
(0.00463409 0 0)
(0.00458691 0 0)
(0.004554 0 0)
(0.00453858 0 0)
(0.00453628 0 0)
(0.00453316 0 0)
(0.00452878 0 0)
(0.00452789 0 0)
(0.00452637 0 0)
(0.00452501 0 0)
(0.00452179 0 0)
(0.00452176 0 0)
(0.00452159 0 0)
(0.00452035 0 0)
(0.00452035 0 0)
(0.00451643 0 0)
(0.00451627 0 0)
(0.00451208 0 0)
(0.00451233 0 0)
(0.00451655 0 0)
(0.00451246 0 0)
(0.00451052 0 0)
(0.00451625 0 0)
(0.00451885 0 0)
(0.00451639 0 0)
(0.00451879 0 0)
(0.00452565 0 0)
(0.00452957 0 0)
(0.00452834 0 0)
(0.00452643 0 0)
(0.00452716 0 0)
(0.00452266 0 0)
(0.00452367 0 0)
(0.00453061 0 0)
(0.00453304 0 0)
)
;

boundaryField
{
    inlet
    {
        type            fixedValue;
        value           uniform (0.005 0 0);
    }
    outlet
    {
        type            zeroGradient;
    }
    yzfaces
    {
        type            empty;
    }
}


// ************************************************************************* //
