/*--------------------------------*- C++ -*----------------------------------*\
| =========                 |                                                 |
| \\      /  F ield         | foam-extend: Open Source CFD                    |
|  \\    /   O peration     | Version:     5.0                                |
|   \\  /    A nd           | Web:         http://www.foam-extend.org         |
|    \\/     M anipulation  |                                                 |
\*---------------------------------------------------------------------------*/
FoamFile
{
    version     2.0;
    format      ascii;
    class       volScalarField;
    location    "9";
    object      alpha.gas;
}
// * * * * * * * * * * * * * * * * * * * * * * * * * * * * * * * * * * * * * //

dimensions      [0 0 0 0 0 0 0];

internalField   nonuniform List<scalar> 
100
(
0.16746
0.156346
0.148598
0.144994
0.139168
0.13313
0.127857
0.124542
0.123734
0.121625
0.118501
0.114577
0.111321
0.108803
0.106259
0.104153
0.101521
0.0993141
0.097808
0.0961393
0.0946546
0.0932251
0.0916494
0.0906301
0.0890943
0.0881137
0.0871544
0.0865429
0.0863201
0.08605
0.0853854
0.0848401
0.0840984
0.0830396
0.0820322
0.0808592
0.0798435
0.0788104
0.0780049
0.0773091
0.0766942
0.0759328
0.0753193
0.074722
0.0742806
0.0737
0.0730617
0.0723512
0.0717509
0.0711382
0.0705983
0.0701857
0.069799
0.0693326
0.0689413
0.0684766
0.0679369
0.0672849
0.0667658
0.0661303
0.0657647
0.0653493
0.0649684
0.0645062
0.0641394
0.06369
0.063268
0.0627413
0.0622502
0.0618832
0.0614613
0.0610963
0.0607202
0.0602769
0.0597793
0.059351
0.0589361
0.0585685
0.0582509
0.0579749
0.0575931
0.0571914
0.0568318
0.0565134
0.0561701
0.0557632
0.055408
0.0551299
0.0548444
0.0546187
0.054341
0.0540382
0.0538066
0.0535268
0.0532068
0.0528858
0.0526198
0.0523565
0.0520686
0.051707
)
;

boundaryField
{
    inlet
    {
        type            fixedValue;
        value           uniform 0.2;
    }
    outlet
    {
        type            zeroGradient;
    }
    yzfaces
    {
        type            empty;
    }
}


// ************************************************************************* //
