/*--------------------------------*- C++ -*----------------------------------*\
| =========                 |                                                 |
| \\      /  F ield         | foam-extend: Open Source CFD                    |
|  \\    /   O peration     | Version:     5.0                                |
|   \\  /    A nd           | Web:         http://www.foam-extend.org         |
|    \\/     M anipulation  |                                                 |
\*---------------------------------------------------------------------------*/
FoamFile
{
    version     2.0;
    format      ascii;
    class       volScalarField;
    location    "9";
    object      Cl.water;
}
// * * * * * * * * * * * * * * * * * * * * * * * * * * * * * * * * * * * * * //

dimensions      [0 0 0 0 0 0 0];

internalField   nonuniform List<scalar> 
100
(
0.00620853
0.00907385
0.0111258
0.0125854
0.0133423
0.0143339
0.0151834
0.0160481
0.0167368
0.0170045
0.0171443
0.0175661
0.0179772
0.0184572
0.0187837
0.0191943
0.0195571
0.0200148
0.0205176
0.0208085
0.0211828
0.0215187
0.0217492
0.0220819
0.0222909
0.0227484
0.0229768
0.023171
0.0232411
0.0232739
0.0233623
0.023526
0.0235971
0.0237109
0.0238059
0.0240271
0.0242246
0.0244068
0.0246695
0.0248981
0.0251034
0.0251958
0.0253185
0.0254343
0.0256304
0.0256655
0.0257782
0.0258611
0.0260329
0.0261947
0.0263128
0.0264361
0.0265316
0.0265565
0.0266455
0.0267314
0.0268085
0.0269392
0.0271242
0.0272253
0.0273839
0.0275151
0.0276249
0.0276877
0.0277618
0.0278272
0.0279268
0.0279554
0.0280339
0.0281297
0.028242
0.0283727
0.0284638
0.0285612
0.028662
0.0287361
0.0288349
0.028884
0.0290021
0.0291141
0.0291781
0.0292592
0.0293281
0.0293855
0.0294221
0.0295099
0.0295855
0.0297321
0.0297608
0.0298282
0.0298931
0.0299633
0.0300399
0.0300856
0.0301291
0.0301847
0.0302753
0.0303029
0.0303112
0.0303651
)
;

boundaryField
{
    inlet
    {
        type            fixedValue;
        value           uniform 0;
    }
    outlet
    {
        type            zeroGradient;
    }
    yzfaces
    {
        type            empty;
    }
}


// ************************************************************************* //
