/*--------------------------------*- C++ -*----------------------------------*\
| =========                 |                                                 |
| \\      /  F ield         | foam-extend: Open Source CFD                    |
|  \\    /   O peration     | Version:     5.0                                |
|   \\  /    A nd           | Web:         http://www.foam-extend.org         |
|    \\/     M anipulation  |                                                 |
\*---------------------------------------------------------------------------*/
FoamFile
{
    version     2.0;
    format      ascii;
    class       volScalarField;
    location    "9";
    object      CO2.gas;
}
// * * * * * * * * * * * * * * * * * * * * * * * * * * * * * * * * * * * * * //

dimensions      [0 0 0 0 0 0 0];

internalField   nonuniform List<scalar> 
100
(
0.167134
0.156042
0.148309
0.144712
0.138897
0.13287
0.127608
0.1243
0.123493
0.121388
0.11827
0.114354
0.111104
0.108591
0.106052
0.103951
0.101323
0.0991207
0.0976175
0.0959521
0.0944703
0.0930436
0.0914709
0.0904536
0.0889208
0.0879421
0.0869846
0.0863744
0.086152
0.0858825
0.0852191
0.0846748
0.0839347
0.0828778
0.0818725
0.0807017
0.0796881
0.0786569
0.077853
0.0771585
0.0765448
0.0757849
0.0751726
0.0745765
0.0741359
0.0735565
0.0729194
0.0722103
0.0716112
0.0709996
0.0704608
0.070049
0.0696631
0.0691975
0.068807
0.0683433
0.0678046
0.0671539
0.0666358
0.0660015
0.0656366
0.0652221
0.0648419
0.0643806
0.0640145
0.063566
0.0631448
0.0626191
0.062129
0.0617627
0.0613416
0.0609773
0.0606019
0.0601595
0.0596629
0.0592354
0.0588213
0.0584545
0.0581374
0.057862
0.057481
0.05708
0.0567211
0.0564033
0.0560607
0.0556546
0.0553001
0.0550226
0.0547376
0.0545124
0.0542352
0.0539329
0.0537018
0.0534226
0.0531032
0.0527828
0.0525173
0.0522545
0.0519672
0.0516063
)
;

boundaryField
{
    inlet
    {
        type            fixedValue;
        value           uniform 0.2;
    }
    outlet
    {
        type            zeroGradient;
    }
    yzfaces
    {
        type            empty;
    }
}


// ************************************************************************* //
