/*--------------------------------*- C++ -*----------------------------------*\
| =========                 |                                                 |
| \\      /  F ield         | foam-extend: Open Source CFD                    |
|  \\    /   O peration     | Version:     5.0                                |
|   \\  /    A nd           | Web:         http://www.foam-extend.org         |
|    \\/     M anipulation  |                                                 |
\*---------------------------------------------------------------------------*/
FoamFile
{
    version     2.0;
    format      ascii;
    class       volScalarField;
    location    "9";
    object      CO2.water;
}
// * * * * * * * * * * * * * * * * * * * * * * * * * * * * * * * * * * * * * //

dimensions      [0 0 0 0 0 0 0];

internalField   nonuniform List<scalar> 
100
(
0.000854648
0.00114655
0.00135004
0.0014447
0.00159773
0.00175632
0.00189481
0.00198186
0.00200308
0.00205849
0.00214055
0.00224359
0.00232912
0.00239525
0.00246208
0.00251737
0.0025865
0.00264447
0.00268403
0.00272785
0.00276685
0.00280439
0.00284578
0.00287255
0.00291289
0.00293864
0.00296384
0.0029799
0.00298575
0.00299284
0.0030103
0.00302462
0.0030441
0.00307191
0.00309837
0.00312918
0.00315585
0.00318299
0.00320415
0.00322242
0.00323857
0.00325857
0.00327468
0.00329037
0.00330196
0.00331721
0.00333398
0.00335264
0.0033684
0.0033845
0.00339868
0.00340951
0.00341967
0.00343192
0.0034422
0.0034544
0.00346858
0.0034857
0.00349933
0.00351603
0.00352563
0.00353654
0.00354654
0.00355868
0.00356832
0.00358012
0.0035912
0.00360504
0.00361794
0.00362757
0.00363865
0.00364824
0.00365812
0.00366976
0.00368283
0.00369408
0.00370498
0.00371463
0.00372298
0.00373022
0.00374025
0.0037508
0.00376025
0.00376861
0.00377763
0.00378831
0.00379764
0.00380495
0.00381245
0.00381837
0.00382567
0.00383362
0.0038397
0.00384705
0.00385546
0.00386389
0.00387087
0.00387779
0.00388535
0.00389485
)
;

boundaryField
{
    inlet
    {
        type            fixedValue;
        value           uniform 0;
    }
    outlet
    {
        type            zeroGradient;
    }
    yzfaces
    {
        type            empty;
    }
}


// ************************************************************************* //
