/*--------------------------------*- C++ -*----------------------------------*\
| =========                 |                                                 |
| \\      /  F ield         | foam-extend: Open Source CFD                    |
|  \\    /   O peration     | Version:     5.0                                |
|   \\  /    A nd           | Web:         http://www.foam-extend.org         |
|    \\/     M anipulation  |                                                 |
\*---------------------------------------------------------------------------*/
FoamFile
{
    version     2.0;
    format      ascii;
    class       volScalarField;
    location    "9";
    object      H2O.gas;
}
// * * * * * * * * * * * * * * * * * * * * * * * * * * * * * * * * * * * * * //

dimensions      [0 0 0 0 0 0 0];

internalField   nonuniform List<scalar> 
100
(
0.000326124
0.000304479
0.000289391
0.000282372
0.000271025
0.000259266
0.000248998
0.000242542
0.000240969
0.000236861
0.000230776
0.000223136
0.000216794
0.00021189
0.000206935
0.000202836
0.000197709
0.000193411
0.000190478
0.000187228
0.000184337
0.000181553
0.000178484
0.0001765
0.000173509
0.000171599
0.000169731
0.00016854
0.000168106
0.00016758
0.000166286
0.000165224
0.000163779
0.000161717
0.000159755
0.000157471
0.000155493
0.000153481
0.000151912
0.000150557
0.00014936
0.000147877
0.000146682
0.000145519
0.000144659
0.000143529
0.000142286
0.000140902
0.000139733
0.00013854
0.000137488
0.000136685
0.000135932
0.000135023
0.000134261
0.000133356
0.000132305
0.000131035
0.000130025
0.000128787
0.000128075
0.000127266
0.000126524
0.000125624
0.00012491
0.000124034
0.000123213
0.000122187
0.00012123
0.000120516
0.000119694
0.000118983
0.000118251
0.000117387
0.000116418
0.000115584
0.000114776
0.000114061
0.000113442
0.000112904
0.000112161
0.000111379
0.000110678
0.000110058
0.00010939
0.000108597
0.000107905
0.000107364
0.000106808
0.000106368
0.000105827
0.000105238
0.000104787
0.000104242
0.000103619
0.000102994
0.000102476
0.000101963
0.000101402
0.000100698
)
;

boundaryField
{
    inlet
    {
        type            fixedValue;
        value           uniform 0;
    }
    outlet
    {
        type            zeroGradient;
    }
    yzfaces
    {
        type            empty;
    }
}


// ************************************************************************* //
