/*--------------------------------*- C++ -*----------------------------------*\
| =========                 |                                                 |
| \\      /  F ield         | foam-extend: Open Source CFD                    |
|  \\    /   O peration     | Version:     5.0                                |
|   \\  /    A nd           | Web:         http://www.foam-extend.org         |
|    \\/     M anipulation  |                                                 |
\*---------------------------------------------------------------------------*/
FoamFile
{
    version     2.0;
    format      ascii;
    class       volScalarField;
    location    "9";
    object      H2O.water;
}
// * * * * * * * * * * * * * * * * * * * * * * * * * * * * * * * * * * * * * //

dimensions      [0 0 0 0 0 0 0];

internalField   nonuniform List<scalar> 
100
(
0.0192702
0.0243639
0.027804
0.028389
0.0325519
0.0364363
0.0398776
0.0413712
0.0407814
0.0422918
0.0450536
0.0480273
0.0503815
0.0518762
0.0537009
0.0549266
0.056761
0.0579938
0.0584588
0.0595091
0.0602161
0.0609395
0.0620172
0.062327
0.06341
0.0634502
0.0639293
0.0641379
0.0642133
0.0644179
0.0648887
0.0650843
0.065673
0.0664675
0.0672498
0.0679401
0.0685429
0.0691865
0.0694469
0.069658
0.0698384
0.0704095
0.0707582
0.0711103
0.0711535
0.0716423
0.0720407
0.0725608
0.0728004
0.0730711
0.0733596
0.0735081
0.073688
0.0740952
0.0743058
0.0745948
0.0749616
0.0753394
0.0754757
0.0758908
0.0759346
0.076075
0.0762328
0.0765434
0.0767583
0.0770647
0.0772796
0.0777514
0.0780752
0.0782208
0.0784155
0.0785086
0.0786922
0.078929
0.0792173
0.0794952
0.0797129
0.0799575
0.0800412
0.0800922
0.0803353
0.0805677
0.080783
0.0809904
0.081253
0.0814704
0.0816594
0.0816414
0.081869
0.081938
0.0820709
0.0822241
0.082306
0.0824949
0.0827112
0.0829248
0.0830077
0.0832156
0.083457
0.0837
)
;

boundaryField
{
    inlet
    {
        type            fixedValue;
        value           uniform 0;
    }
    outlet
    {
        type            zeroGradient;
    }
    yzfaces
    {
        type            empty;
    }
}


// ************************************************************************* //
