/*--------------------------------*- C++ -*----------------------------------*\
| =========                 |                                                 |
| \\      /  F ield         | foam-extend: Open Source CFD                    |
|  \\    /   O peration     | Version:     5.0                                |
|   \\  /    A nd           | Web:         http://www.foam-extend.org         |
|    \\/     M anipulation  |                                                 |
\*---------------------------------------------------------------------------*/
FoamFile
{
    version     2.0;
    format      ascii;
    class       volScalarField;
    location    "9";
    object      Na.water;
}
// * * * * * * * * * * * * * * * * * * * * * * * * * * * * * * * * * * * * * //

dimensions      [0 0 0 0 0 0 0];

internalField   nonuniform List<scalar> 
100
(
0.00620664
0.00906964
0.0111217
0.0125865
0.0133404
0.014344
0.0151873
0.0160567
0.0167444
0.0170203
0.017161
0.0175857
0.0179916
0.0184686
0.0187947
0.0192083
0.0195743
0.0200328
0.0205316
0.0208152
0.0211797
0.0215124
0.0217385
0.0220884
0.0222919
0.0227491
0.0229757
0.0231683
0.0232398
0.0232653
0.0233532
0.023525
0.0235874
0.0237102
0.0238137
0.0240444
0.024233
0.0244133
0.0246746
0.0249124
0.0251255
0.0252033
0.0253293
0.025443
0.0256335
0.025675
0.0257854
0.0258743
0.0260473
0.0262116
0.0263306
0.0264606
0.0265618
0.0265839
0.0266652
0.0267427
0.0268244
0.0269508
0.0271349
0.0272376
0.0273911
0.027524
0.0276274
0.0277039
0.0277721
0.027838
0.0279344
0.0279469
0.0280228
0.0281387
0.0282425
0.0283742
0.0284657
0.0285632
0.0286586
0.0287236
0.028811
0.0288754
0.0289829
0.0290885
0.0291532
0.0292308
0.0292969
0.0293421
0.0293771
0.0294683
0.0295495
0.0296916
0.0297134
0.0297967
0.0298694
0.0299408
0.0300078
0.0300456
0.0300974
0.0301408
0.0302264
0.0302472
0.0302778
0.030333
)
;

boundaryField
{
    inlet
    {
        type            fixedValue;
        value           uniform 0;
    }
    outlet
    {
        type            zeroGradient;
    }
    yzfaces
    {
        type            empty;
    }
}


// ************************************************************************* //
