/*--------------------------------*- C++ -*----------------------------------*\
| =========                 |                                                 |
| \\      /  F ield         | foam-extend: Open Source CFD                    |
|  \\    /   O peration     | Version:     5.0                                |
|   \\  /    A nd           | Web:         http://www.foam-extend.org         |
|    \\/     M anipulation  |                                                 |
\*---------------------------------------------------------------------------*/
FoamFile
{
    version     2.0;
    format      ascii;
    class       surfaceScalarField;
    location    "9";
    object      phi;
}
// * * * * * * * * * * * * * * * * * * * * * * * * * * * * * * * * * * * * * //

dimensions      [0 3 -1 0 0 0 0];

internalField   nonuniform List<scalar> 
99
(
1.22203e-06
1.23851e-06
1.25079e-06
1.22733e-06
1.22263e-06
1.21456e-06
1.22147e-06
1.22018e-06
1.2165e-06
1.2028e-06
1.19688e-06
1.20391e-06
1.20508e-06
1.20825e-06
1.21007e-06
1.20937e-06
1.2075e-06
1.21092e-06
1.21074e-06
1.20757e-06
1.21061e-06
1.21162e-06
1.21676e-06
1.21955e-06
1.22558e-06
1.22313e-06
1.21991e-06
1.21778e-06
1.22208e-06
1.21652e-06
1.21727e-06
1.20856e-06
1.2062e-06
1.21055e-06
1.20483e-06
1.2083e-06
1.21071e-06
1.20653e-06
1.21085e-06
1.21006e-06
1.20934e-06
1.20781e-06
1.20491e-06
1.20942e-06
1.20595e-06
1.2041e-06
1.20259e-06
1.20249e-06
1.20433e-06
1.20319e-06
1.2065e-06
1.20769e-06
1.20481e-06
1.20967e-06
1.21042e-06
1.21018e-06
1.20853e-06
1.21048e-06
1.20808e-06
1.21402e-06
1.21575e-06
1.21127e-06
1.20901e-06
1.20813e-06
1.20845e-06
1.20773e-06
1.20983e-06
1.21083e-06
1.21272e-06
1.21331e-06
1.21378e-06
1.2145e-06
1.21335e-06
1.21275e-06
1.21329e-06
1.21578e-06
1.22012e-06
1.2193e-06
1.21801e-06
1.21577e-06
1.21404e-06
1.21477e-06
1.21532e-06
1.21656e-06
1.21551e-06
1.21904e-06
1.21757e-06
1.21782e-06
1.21469e-06
1.21001e-06
1.20712e-06
1.20942e-06
1.20951e-06
1.2079e-06
1.21025e-06
1.21114e-06
1.21007e-06
1.2082e-06
1.20635e-06
)
;

boundaryField
{
    inlet
    {
        type            calculated;
        value           uniform -1.225e-06;
    }
    outlet
    {
        type            calculated;
        value           uniform 1.20731e-06;
    }
    yzfaces
    {
        type            empty;
    }
}


// ************************************************************************* //
