/*--------------------------------*- C++ -*----------------------------------*\
| =========                 |                                                 |
| \\      /  F ield         | foam-extend: Open Source CFD                    |
|  \\    /   O peration     | Version:     5.0                                |
|   \\  /    A nd           | Web:         http://www.foam-extend.org         |
|    \\/     M anipulation  |                                                 |
\*---------------------------------------------------------------------------*/
FoamFile
{
    version     2.0;
    format      ascii;
    class       volVectorField;
    location    "9";
    object      U.gas;
}
// * * * * * * * * * * * * * * * * * * * * * * * * * * * * * * * * * * * * * //

dimensions      [0 1 -1 0 0 0 0];

internalField   nonuniform List<vector> 
100
(
(0.00595796 0 0)
(0.00640249 0 0)
(0.00679933 0 0)
(0.00692415 0 0)
(0.00711761 0 0)
(0.00737917 0 0)
(0.0076525 0 0)
(0.00784916 0 0)
(0.00787085 0 0)
(0.0079395 0 0)
(0.00806177 0 0)
(0.00830939 0 0)
(0.00854369 0 0)
(0.00872216 0 0)
(0.00891414 0 0)
(0.0090628 0 0)
(0.00924696 0 0)
(0.0094122 0 0)
(0.00953197 0 0)
(0.00964811 0 0)
(0.0097603 0 0)
(0.00988857 0 0)
(0.0100413 0 0)
(0.0101493 0 0)
(0.0103215 0 0)
(0.0104084 0 0)
(0.0104638 0 0)
(0.0104859 0 0)
(0.0105059 0 0)
(0.0105239 0 0)
(0.0105668 0 0)
(0.0105751 0 0)
(0.0105938 0 0)
(0.0106995 0 0)
(0.0107773 0 0)
(0.0108712 0 0)
(0.010982 0 0)
(0.0110637 0 0)
(0.0111279 0 0)
(0.0112019 0 0)
(0.0112453 0 0)
(0.0113044 0 0)
(0.0113317 0 0)
(0.0113905 0 0)
(0.0114288 0 0)
(0.0114583 0 0)
(0.0114996 0 0)
(0.0115554 0 0)
(0.0116108 0 0)
(0.0116672 0 0)
(0.0117206 0 0)
(0.0117723 0 0)
(0.0117953 0 0)
(0.0118468 0 0)
(0.0119041 0 0)
(0.0119495 0 0)
(0.0119892 0 0)
(0.01205 0 0)
(0.0120831 0 0)
(0.012159 0 0)
(0.0122134 0 0)
(0.0122349 0 0)
(0.01223 0 0)
(0.0122554 0 0)
(0.0122741 0 0)
(0.0123117 0 0)
(0.0123507 0 0)
(0.0124122 0 0)
(0.0124633 0 0)
(0.0124958 0 0)
(0.0125353 0 0)
(0.0125637 0 0)
(0.0125897 0 0)
(0.0126175 0 0)
(0.0126556 0 0)
(0.0126968 0 0)
(0.0127601 0 0)
(0.0127989 0 0)
(0.0128036 0 0)
(0.0127994 0 0)
(0.0128114 0 0)
(0.0128329 0 0)
(0.0128573 0 0)
(0.0128819 0 0)
(0.0129053 0 0)
(0.0129471 0 0)
(0.0129735 0 0)
(0.0129754 0 0)
(0.0129756 0 0)
(0.0129406 0 0)
(0.0129186 0 0)
(0.0129315 0 0)
(0.0129488 0 0)
(0.0129585 0 0)
(0.0129812 0 0)
(0.0130133 0 0)
(0.0130182 0 0)
(0.013012 0 0)
(0.0130055 0 0)
(0.0130213 0 0)
)
;

boundaryField
{
    inlet
    {
        type            fixedValue;
        value           uniform (0.005 0 0);
    }
    outlet
    {
        type            zeroGradient;
    }
    yzfaces
    {
        type            empty;
    }
}


// ************************************************************************* //
