/*--------------------------------*- C++ -*----------------------------------*\
| =========                 |                                                 |
| \\      /  F ield         | foam-extend: Open Source CFD                    |
|  \\    /   O peration     | Version:     5.0                                |
|   \\  /    A nd           | Web:         http://www.foam-extend.org         |
|    \\/     M anipulation  |                                                 |
\*---------------------------------------------------------------------------*/
FoamFile
{
    version     2.0;
    format      ascii;
    class       volVectorField;
    location    "9";
    object      U.water;
}
// * * * * * * * * * * * * * * * * * * * * * * * * * * * * * * * * * * * * * //

dimensions      [0 1 -1 0 0 0 0];

internalField   nonuniform List<vector> 
100
(
(3.27797e-05 0 0)
(7.55009e-05 0 0)
(0.000110345 0 0)
(0.000136682 0 0)
(0.000155272 0 0)
(0.000185224 0 0)
(0.000220037 0 0)
(0.000252339 0 0)
(0.000270975 0 0)
(0.00027847 0 0)
(0.000296146 0 0)
(0.00032599 0 0)
(0.000362791 0 0)
(0.000395151 0 0)
(0.000425246 0 0)
(0.000454925 0 0)
(0.000484519 0 0)
(0.000519856 0 0)
(0.000549255 0 0)
(0.000572927 0 0)
(0.000599515 0 0)
(0.000625633 0 0)
(0.000654298 0 0)
(0.000681883 0 0)
(0.000707102 0 0)
(0.000736019 0 0)
(0.000754928 0 0)
(0.000771142 0 0)
(0.00078283 0 0)
(0.000787709 0 0)
(0.000795119 0 0)
(0.000807093 0 0)
(0.000817061 0 0)
(0.000837469 0 0)
(0.000862843 0 0)
(0.000889004 0 0)
(0.000919718 0 0)
(0.000946387 0 0)
(0.000972609 0 0)
(0.000995321 0 0)
(0.00101422 0 0)
(0.00103341 0 0)
(0.00105299 0 0)
(0.00107222 0 0)
(0.00108921 0 0)
(0.00110227 0 0)
(0.00111976 0 0)
(0.00114075 0 0)
(0.00116409 0 0)
(0.00118481 0 0)
(0.0012063 0 0)
(0.00122585 0 0)
(0.00123953 0 0)
(0.00125608 0 0)
(0.00127504 0 0)
(0.00129058 0 0)
(0.00130787 0 0)
(0.00133041 0 0)
(0.0013542 0 0)
(0.00137848 0 0)
(0.00140447 0 0)
(0.00141907 0 0)
(0.00143158 0 0)
(0.00144687 0 0)
(0.00146553 0 0)
(0.00148238 0 0)
(0.00150187 0 0)
(0.00152464 0 0)
(0.00154893 0 0)
(0.00157067 0 0)
(0.00158955 0 0)
(0.00160931 0 0)
(0.00162631 0 0)
(0.00164397 0 0)
(0.00166646 0 0)
(0.00169138 0 0)
(0.00171707 0 0)
(0.00173984 0 0)
(0.0017566 0 0)
(0.00176967 0 0)
(0.001783 0 0)
(0.00180258 0 0)
(0.00182423 0 0)
(0.00184409 0 0)
(0.00186185 0 0)
(0.00188385 0 0)
(0.00190675 0 0)
(0.00192383 0 0)
(0.00193737 0 0)
(0.00194571 0 0)
(0.00195368 0 0)
(0.00197002 0 0)
(0.0019877 0 0)
(0.00200085 0 0)
(0.00201857 0 0)
(0.00203994 0 0)
(0.00205748 0 0)
(0.00207111 0 0)
(0.00208445 0 0)
(0.00210308 0 0)
)
;

boundaryField
{
    inlet
    {
        type            fixedValue;
        value           uniform (0 0 0);
    }
    outlet
    {
        type            zeroGradient;
    }
    yzfaces
    {
        type            empty;
    }
}


// ************************************************************************* //
