/*--------------------------------*- C++ -*----------------------------------*\
| =========                 |                                                 |
| \\      /  F ield         | foam-extend: Open Source CFD                    |
|  \\    /   O peration     | Version:     5.0                                |
|   \\  /    A nd           | Web:         http://www.foam-extend.org         |
|    \\/     M anipulation  |                                                 |
\*---------------------------------------------------------------------------*/
FoamFile
{
    version     2.0;
    format      ascii;
    class       volScalarField;
    location    "2";
    object      alpha.water;
}
// * * * * * * * * * * * * * * * * * * * * * * * * * * * * * * * * * * * * * //

dimensions      [0 0 0 0 0 0 0];

internalField   nonuniform List<scalar> 
100
(
0.00834696
0.0127944
0.0165237
0.0198075
0.0227613
0.025459
0.0279442
0.0302499
0.0323977
0.0344148
0.0363155
0.0381003
0.0397927
0.0413981
0.0429364
0.0443902
0.0457935
0.047129
0.0484091
0.0496315
0.0508102
0.0519449
0.0530395
0.054104
0.0551227
0.0561192
0.0570874
0.0580197
0.058921
0.0598075
0.0606523
0.0614705
0.0622749
0.0630597
0.0638188
0.064562
0.0652892
0.065989
0.066677
0.0673448
0.0680024
0.0686412
0.0692671
0.069879
0.0704706
0.0710553
0.0716345
0.0721976
0.0727464
0.0732872
0.0738221
0.0743463
0.0748609
0.0753682
0.0758633
0.0763529
0.076829
0.0773005
0.0777674
0.0782163
0.0786622
0.0791026
0.0795338
0.0799579
0.0803807
0.0807845
0.0811943
0.0815854
0.0819836
0.082375
0.082752
0.0831338
0.0834975
0.0838618
0.0842244
0.0845786
0.0849314
0.0852748
0.0856209
0.0859547
0.0862921
0.086621
0.0869438
0.0872658
0.0875797
0.0878927
0.0882004
0.088506
0.0888056
0.0891015
0.0894003
0.0896945
0.0899792
0.0902652
0.0905467
0.0908227
0.0910958
0.0913724
0.0916377
0.0919072
)
;

boundaryField
{
    inlet
    {
        type            fixedValue;
        value           uniform 0;
    }
    outlet
    {
        type            zeroGradient;
    }
    yzfaces
    {
        type            empty;
    }
}


// ************************************************************************* //
