/*--------------------------------*- C++ -*----------------------------------*\
| =========                 |                                                 |
| \\      /  F ield         | foam-extend: Open Source CFD                    |
|  \\    /   O peration     | Version:     5.0                                |
|   \\  /    A nd           | Web:         http://www.foam-extend.org         |
|    \\/     M anipulation  |                                                 |
\*---------------------------------------------------------------------------*/
FoamFile
{
    version     2.0;
    format      ascii;
    class       volScalarField;
    location    "2";
    object      H2O.water;
}
// * * * * * * * * * * * * * * * * * * * * * * * * * * * * * * * * * * * * * //

dimensions      [0 0 0 0 0 0 0];

internalField   nonuniform List<scalar> 
100
(
0.008347
0.0127939
0.0165211
0.0198042
0.0227605
0.0254583
0.0279435
0.0302483
0.0323982
0.034413
0.0363083
0.0380971
0.0397913
0.0413996
0.0429306
0.0443907
0.0457855
0.0471205
0.0484015
0.0496309
0.0508136
0.0519512
0.0530496
0.054108
0.0551325
0.0561217
0.05708
0.0580101
0.0589102
0.0597848
0.060635
0.0614604
0.0622631
0.0630448
0.0638071
0.0645483
0.0652718
0.065978
0.0666656
0.0673389
0.0679957
0.068638
0.0692672
0.0698817
0.0704828
0.0710716
0.0716479
0.0722122
0.0727655
0.0733085
0.0738413
0.0743638
0.0748765
0.0753791
0.0758742
0.0763598
0.0768377
0.0773071
0.0777683
0.0782222
0.0786679
0.0791064
0.0795376
0.0799614
0.0803797
0.0807901
0.0811951
0.0815947
0.0819866
0.0823759
0.0827575
0.0831336
0.0835044
0.0838689
0.084231
0.0845853
0.0849385
0.0852838
0.0856269
0.0859646
0.0862961
0.0866255
0.0869505
0.0872725
0.087588
0.087901
0.08821
0.088514
0.0888153
0.0891155
0.0894101
0.0897019
0.08999
0.0902755
0.0905552
0.0908342
0.0911099
0.0913818
0.0916515
0.091918
)
;

boundaryField
{
    inlet
    {
        type            fixedValue;
        value           uniform 0;
    }
    outlet
    {
        type            zeroGradient;
    }
    yzfaces
    {
        type            empty;
    }
}


// ************************************************************************* //
