/*--------------------------------*- C++ -*----------------------------------*\
| =========                 |                                                 |
| \\      /  F ield         | foam-extend: Open Source CFD                    |
|  \\    /   O peration     | Version:     5.0                                |
|   \\  /    A nd           | Web:         http://www.foam-extend.org         |
|    \\/     M anipulation  |                                                 |
\*---------------------------------------------------------------------------*/
FoamFile
{
    version     2.0;
    format      ascii;
    class       surfaceScalarField;
    location    "2";
    object      phi;
}
// * * * * * * * * * * * * * * * * * * * * * * * * * * * * * * * * * * * * * //

dimensions      [0 3 -1 0 0 0 0];

internalField   nonuniform List<scalar> 
99
(
0.000122483
0.000122493
0.000122505
0.000122527
0.000122518
0.000122521
0.000122542
0.000122539
0.000122549
0.000122511
0.000122508
0.000122537
0.000122521
0.000122494
0.000122503
0.000122501
0.000122499
0.000122506
0.000122547
0.000122557
0.000122591
0.000122578
0.000122568
0.000122557
0.000122539
0.000122522
0.000122515
0.000122497
0.000122489
0.000122491
0.000122499
0.00012249
0.000122495
0.000122508
0.000122509
0.000122494
0.000122512
0.000122504
0.000122518
0.000122511
0.000122515
0.000122524
0.000122528
0.000122535
0.000122557
0.000122553
0.000122558
0.000122562
0.000122552
0.000122558
0.00012254
0.00012255
0.000122539
0.000122529
0.000122539
0.000122535
0.000122531
0.000122532
0.000122534
0.000122542
0.000122527
0.000122547
0.000122542
0.000122523
0.000122535
0.000122536
0.000122542
0.000122532
0.000122529
0.000122536
0.000122526
0.000122539
0.000122535
0.00012254
0.00012255
0.000122553
0.000122543
0.000122534
0.000122535
0.000122533
0.000122529
0.00012254
0.000122535
0.000122543
0.000122537
0.000122534
0.000122542
0.000122534
0.000122534
0.000122529
0.000122529
0.000122533
0.00012254
0.000122545
0.000122557
0.000122559
0.000122555
0.000122564
0.000122561
)
;

boundaryField
{
    inlet
    {
        type            calculated;
        value           uniform -0.0001225;
    }
    outlet
    {
        type            calculated;
        value           uniform 0.000122575;
    }
    yzfaces
    {
        type            empty;
    }
}


// ************************************************************************* //
