/*--------------------------------*- C++ -*----------------------------------*\
| =========                 |                                                 |
| \\      /  F ield         | foam-extend: Open Source CFD                    |
|  \\    /   O peration     | Version:     5.0                                |
|   \\  /    A nd           | Web:         http://www.foam-extend.org         |
|    \\/     M anipulation  |                                                 |
\*---------------------------------------------------------------------------*/
FoamFile
{
    version     2.0;
    format      ascii;
    class       volVectorField;
    location    "2";
    object      U.water;
}
// * * * * * * * * * * * * * * * * * * * * * * * * * * * * * * * * * * * * * //

dimensions      [0 1 -1 0 0 0 0];

internalField   nonuniform List<vector> 
100
(
(0.000199955 0 0)
(0.000451667 0 0)
(0.000680654 0 0)
(0.000897194 0 0)
(0.00110476 0 0)
(0.00130525 0 0)
(0.0015004 0 0)
(0.00169086 0 0)
(0.00187705 0 0)
(0.00205906 0 0)
(0.00223791 0 0)
(0.00241431 0 0)
(0.00258702 0 0)
(0.00275664 0 0)
(0.00292431 0 0)
(0.00309045 0 0)
(0.00325354 0 0)
(0.00341591 0 0)
(0.00357606 0 0)
(0.0037344 0 0)
(0.00389044 0 0)
(0.00404466 0 0)
(0.00419659 0 0)
(0.00434741 0 0)
(0.00449723 0 0)
(0.00464471 0 0)
(0.00479244 0 0)
(0.00493911 0 0)
(0.00508363 0 0)
(0.00522754 0 0)
(0.00537154 0 0)
(0.00551186 0 0)
(0.00565115 0 0)
(0.00579113 0 0)
(0.00593008 0 0)
(0.00606689 0 0)
(0.00620373 0 0)
(0.00633983 0 0)
(0.00647377 0 0)
(0.00660714 0 0)
(0.00673941 0 0)
(0.0068719 0 0)
(0.00700293 0 0)
(0.00713352 0 0)
(0.0072631 0 0)
(0.00739075 0 0)
(0.00751855 0 0)
(0.00764665 0 0)
(0.007773 0 0)
(0.00789833 0 0)
(0.00802356 0 0)
(0.00814883 0 0)
(0.00827339 0 0)
(0.00839723 0 0)
(0.00852124 0 0)
(0.00864458 0 0)
(0.00876713 0 0)
(0.0088884 0 0)
(0.00901037 0 0)
(0.00913211 0 0)
(0.00925115 0 0)
(0.00937097 0 0)
(0.00949073 0 0)
(0.00960844 0 0)
(0.0097265 0 0)
(0.00984479 0 0)
(0.00996086 0 0)
(0.0100775 0 0)
(0.010192 0 0)
(0.0103091 0 0)
(0.0104247 0 0)
(0.0105391 0 0)
(0.0106545 0 0)
(0.0107669 0 0)
(0.0108808 0 0)
(0.0109947 0 0)
(0.0111069 0 0)
(0.0112185 0 0)
(0.01133 0 0)
(0.0114422 0 0)
(0.0115527 0 0)
(0.011665 0 0)
(0.0117757 0 0)
(0.0118857 0 0)
(0.0119955 0 0)
(0.0121041 0 0)
(0.0122133 0 0)
(0.0123216 0 0)
(0.0124295 0 0)
(0.0125368 0 0)
(0.0126443 0 0)
(0.0127533 0 0)
(0.0128613 0 0)
(0.0129681 0 0)
(0.0130761 0 0)
(0.0131829 0 0)
(0.0132875 0 0)
(0.0133935 0 0)
(0.0134999 0 0)
(0.0136045 0 0)
)
;

boundaryField
{
    inlet
    {
        type            fixedValue;
        value           uniform (0 0 0);
    }
    outlet
    {
        type            zeroGradient;
    }
    yzfaces
    {
        type            empty;
    }
}


// ************************************************************************* //
