/*--------------------------------*- C++ -*----------------------------------*\
| =========                 |                                                 |
| \\      /  F ield         | foam-extend: Open Source CFD                    |
|  \\    /   O peration     | Version:     5.0                                |
|   \\  /    A nd           | Web:         http://www.foam-extend.org         |
|    \\/     M anipulation  |                                                 |
\*---------------------------------------------------------------------------*/
FoamFile
{
    version     2.0;
    format      ascii;
    class       volScalarField;
    location    "4";
    object      alpha.gas;
}
// * * * * * * * * * * * * * * * * * * * * * * * * * * * * * * * * * * * * * //

dimensions      [0 0 0 0 0 0 0];

internalField   nonuniform List<scalar> 
100
(
0.151442
0.136379
0.12688
0.119338
0.113089
0.107967
0.104099
0.0996402
0.0960155
0.0932917
0.0902346
0.0874323
0.085926
0.0841008
0.0823999
0.0804872
0.0788224
0.0770599
0.0754582
0.0739333
0.0724158
0.0712255
0.0700646
0.0689573
0.067884
0.0667237
0.0656476
0.064627
0.063648
0.0627134
0.0617434
0.0607725
0.0597607
0.0589608
0.0581591
0.0573253
0.0564579
0.0556658
0.0549067
0.0541085
0.0533655
0.052581
0.051935
0.0511948
0.0504588
0.0497297
0.0490062
0.0482013
0.0474358
0.0466138
0.0457716
0.0448945
0.0440682
0.0432618
0.0424371
0.0415585
0.040651
0.0397601
0.0388689
0.0379339
0.0369646
0.0359511
0.0348759
0.0337333
0.0325218
0.0311992
0.0297969
0.028275
0.0266225
0.0248553
0.0229541
0.0209783
0.0189667
0.0170114
0.0152167
0.0136783
0.0124622
0.0115731
0.0109741
0.0105857
0.0103457
0.0102022
0.0101173
0.0100649
0.0100369
0.0100203
0.0100137
0.0100066
0.0100033
0.0100013
0.00999981
0.00999854
0.00999732
0.00999872
0.00999598
0.01
0.00999826
0.00999802
0.0100005
0.0100015
)
;

boundaryField
{
    inlet
    {
        type            fixedValue;
        value           uniform 0.2;
    }
    outlet
    {
        type            zeroGradient;
    }
    yzfaces
    {
        type            empty;
    }
}


// ************************************************************************* //
