/*--------------------------------*- C++ -*----------------------------------*\
| =========                 |                                                 |
| \\      /  F ield         | foam-extend: Open Source CFD                    |
|  \\    /   O peration     | Version:     5.0                                |
|   \\  /    A nd           | Web:         http://www.foam-extend.org         |
|    \\/     M anipulation  |                                                 |
\*---------------------------------------------------------------------------*/
FoamFile
{
    version     2.0;
    format      ascii;
    class       volScalarField;
    location    "4";
    object      H2O.gas;
}
// * * * * * * * * * * * * * * * * * * * * * * * * * * * * * * * * * * * * * //

dimensions      [0 0 0 0 0 0 0];

internalField   nonuniform List<scalar> 
100
(
0.000294928
0.000265595
0.000247094
0.000232408
0.000220237
0.000210263
0.000202731
0.000194046
0.000186987
0.000181683
0.000175729
0.000170272
0.000167338
0.000163784
0.000160471
0.000156746
0.000153504
0.000150072
0.000146953
0.000143983
0.000141028
0.00013871
0.000136449
0.000134292
0.000132202
0.000129943
0.000127847
0.000125859
0.000123953
0.000122132
0.000120243
0.000118353
0.000116382
0.000114824
0.000113263
0.000111639
0.00010995
0.000108408
0.000106929
0.000105375
0.000103928
0.0001024
0.000101142
9.97004e-05
9.8267e-05
9.68472e-05
9.54382e-05
9.38706e-05
9.23798e-05
9.0779e-05
8.91388e-05
8.74308e-05
8.58215e-05
8.42511e-05
8.26451e-05
8.09339e-05
7.91666e-05
0.00719965
0.0103067
0.0131218
0.0156072
0.017803
0.0196244
0.0211168
0.0222389
0.0229977
0.0234262
0.0234258
0.0230552
0.022335
0.0212599
0.0199036
0.0183356
0.0166661
0.0150398
0.0135884
0.0124342
0.0115608
0.010971
0.0105841
0.0103417
0.0101871
0.0101162
0.0100725
0.0100455
0.0100234
0.0100108
0.0100016
0.00999506
0.0100001
0.00999442
0.00999381
0.00999062
0.00999002
0.00998894
0.00999717
0.0100041
0.00999473
0.0100042
0.010007
)
;

boundaryField
{
    inlet
    {
        type            fixedValue;
        value           uniform 0;
    }
    outlet
    {
        type            zeroGradient;
    }
    yzfaces
    {
        type            empty;
    }
}


// ************************************************************************* //
