/*--------------------------------*- C++ -*----------------------------------*\
| =========                 |                                                 |
| \\      /  F ield         | foam-extend: Open Source CFD                    |
|  \\    /   O peration     | Version:     5.0                                |
|   \\  /    A nd           | Web:         http://www.foam-extend.org         |
|    \\/     M anipulation  |                                                 |
\*---------------------------------------------------------------------------*/
FoamFile
{
    version     2.0;
    format      ascii;
    class       surfaceScalarField;
    location    "4";
    object      phi;
}
// * * * * * * * * * * * * * * * * * * * * * * * * * * * * * * * * * * * * * //

dimensions      [0 3 -1 0 0 0 0];

internalField   nonuniform List<scalar> 
99
(
1.21997e-06
1.22371e-06
1.21451e-06
1.21457e-06
1.21517e-06
1.21504e-06
1.20717e-06
1.2058e-06
1.20745e-06
1.20333e-06
1.20134e-06
1.20409e-06
1.20301e-06
1.20313e-06
1.20254e-06
1.20353e-06
1.20125e-06
1.2e-06
1.20052e-06
1.19869e-06
1.20111e-06
1.20113e-06
1.20217e-06
1.20208e-06
1.20158e-06
1.20383e-06
1.2039e-06
1.20513e-06
1.20637e-06
1.20443e-06
1.20343e-06
1.20495e-06
1.20729e-06
1.20696e-06
1.20313e-06
1.20488e-06
1.20689e-06
1.20634e-06
1.20429e-06
1.20372e-06
1.20387e-06
1.20594e-06
1.20192e-06
1.20086e-06
1.19968e-06
1.19868e-06
1.19686e-06
1.19564e-06
1.19258e-06
1.19089e-06
1.18888e-06
1.19152e-06
1.1911e-06
1.19154e-06
1.19166e-06
1.19095e-06
1.19061e-06
1.19258e-06
1.19329e-06
1.19295e-06
1.19222e-06
1.19184e-06
1.19147e-06
1.1912e-06
1.18965e-06
1.19076e-06
1.19175e-06
1.19177e-06
1.1918e-06
1.19068e-06
1.19308e-06
1.19303e-06
1.19252e-06
1.19319e-06
1.19238e-06
1.19396e-06
1.19387e-06
1.19551e-06
1.19468e-06
1.19442e-06
1.19463e-06
1.19534e-06
1.19386e-06
1.19373e-06
1.19435e-06
1.193e-06
1.19153e-06
1.19063e-06
1.19127e-06
1.19179e-06
1.19196e-06
1.19139e-06
1.19173e-06
1.19039e-06
1.1898e-06
1.19028e-06
1.19067e-06
1.1908e-06
1.19044e-06
)
;

boundaryField
{
    inlet
    {
        type            calculated;
        value           uniform -1.225e-06;
    }
    outlet
    {
        type            calculated;
        value           uniform 1.18971e-06;
    }
    yzfaces
    {
        type            empty;
    }
}


// ************************************************************************* //
