/*--------------------------------*- C++ -*----------------------------------*\
| =========                 |                                                 |
| \\      /  F ield         | foam-extend: Open Source CFD                    |
|  \\    /   O peration     | Version:     5.0                                |
|   \\  /    A nd           | Web:         http://www.foam-extend.org         |
|    \\/     M anipulation  |                                                 |
\*---------------------------------------------------------------------------*/
FoamFile
{
    version     2.0;
    format      ascii;
    class       surfaceScalarField;
    location    "4";
    object      phi.water;
}
// * * * * * * * * * * * * * * * * * * * * * * * * * * * * * * * * * * * * * //

dimensions      [0 3 -1 0 0 0 0];

internalField   nonuniform List<scalar> 
99
(
1.26213e-07
2.17156e-07
2.91875e-07
3.68124e-07
4.40819e-07
5.12081e-07
5.66667e-07
6.43077e-07
7.14803e-07
7.67609e-07
8.3831e-07
9.1361e-07
9.5251e-07
1.00343e-06
1.05123e-06
1.11226e-06
1.16391e-06
1.22622e-06
1.28398e-06
1.34055e-06
1.40521e-06
1.45431e-06
1.50572e-06
1.55514e-06
1.60581e-06
1.66282e-06
1.71587e-06
1.7707e-06
1.82433e-06
1.87013e-06
1.92376e-06
1.98221e-06
2.04583e-06
2.09229e-06
2.13582e-06
2.19223e-06
2.25261e-06
2.3036e-06
2.35086e-06
2.40621e-06
2.45961e-06
2.51949e-06
2.55562e-06
2.61056e-06
2.66334e-06
2.71614e-06
2.76879e-06
2.83013e-06
2.88272e-06
2.94868e-06
3.01404e-06
3.09653e-06
3.16606e-06
3.2386e-06
3.31068e-06
3.38968e-06
3.47411e-06
3.56244e-06
3.64704e-06
3.7364e-06
3.82834e-06
3.92503e-06
4.03056e-06
4.1433e-06
4.25888e-06
4.3916e-06
4.53186e-06
4.68138e-06
4.83854e-06
4.99561e-06
5.17357e-06
5.33707e-06
5.48999e-06
5.63243e-06
5.74434e-06
5.83569e-06
5.89262e-06
5.94019e-06
5.96003e-06
5.97466e-06
5.98873e-06
5.99652e-06
5.98523e-06
5.98363e-06
5.9891e-06
5.98637e-06
5.98148e-06
5.9789e-06
5.98106e-06
5.98285e-06
5.98487e-06
5.98238e-06
5.98545e-06
5.97863e-06
5.97403e-06
5.97251e-06
5.97461e-06
5.97599e-06
5.97155e-06
)
;

boundaryField
{
    inlet
    {
        type            fixedValue;
        value           uniform 0;
    }
    outlet
    {
        type            calculated;
        value           uniform 5.96704e-06;
    }
    yzfaces
    {
        type            empty;
    }
}


// ************************************************************************* //
