/*--------------------------------*- C++ -*----------------------------------*\
| =========                 |                                                 |
| \\      /  F ield         | foam-extend: Open Source CFD                    |
|  \\    /   O peration     | Version:     5.0                                |
|   \\  /    A nd           | Web:         http://www.foam-extend.org         |
|    \\/     M anipulation  |                                                 |
\*---------------------------------------------------------------------------*/
FoamFile
{
    version     2.0;
    format      ascii;
    class       volVectorField;
    location    "4";
    object      U.gas;
}
// * * * * * * * * * * * * * * * * * * * * * * * * * * * * * * * * * * * * * //

dimensions      [0 1 -1 0 0 0 0];

internalField   nonuniform List<vector> 
100
(
(0.00657054 0 0)
(0.00724783 0 0)
(0.00772353 0 0)
(0.00812587 0 0)
(0.00851584 0 0)
(0.00885589 0 0)
(0.00909022 0 0)
(0.00938737 0 0)
(0.00965904 0 0)
(0.00985389 0 0)
(0.0100795 0 0)
(0.0103107 0 0)
(0.0104215 0 0)
(0.0105771 0 0)
(0.0107183 0 0)
(0.01089 0 0)
(0.0110231 0 0)
(0.0111623 0 0)
(0.0112938 0 0)
(0.0114192 0 0)
(0.0115537 0 0)
(0.0116563 0 0)
(0.0117603 0 0)
(0.011857 0 0)
(0.011941 0 0)
(0.0120505 0 0)
(0.0121487 0 0)
(0.0122351 0 0)
(0.0123218 0 0)
(0.0123884 0 0)
(0.0124496 0 0)
(0.0125245 0 0)
(0.0126216 0 0)
(0.0126725 0 0)
(0.0127023 0 0)
(0.0127473 0 0)
(0.0128247 0 0)
(0.0128731 0 0)
(0.0128987 0 0)
(0.0129295 0 0)
(0.0129575 0 0)
(0.0130097 0 0)
(0.0130137 0 0)
(0.0130245 0 0)
(0.0130369 0 0)
(0.0130472 0 0)
(0.0130491 0 0)
(0.0130576 0 0)
(0.0130431 0 0)
(0.0130335 0 0)
(0.013019 0 0)
(0.0130267 0 0)
(0.0130246 0 0)
(0.0130069 0 0)
(0.0129925 0 0)
(0.0129718 0 0)
(0.0129338 0 0)
(0.0128936 0 0)
(0.0128549 0 0)
(0.012799 0 0)
(0.0127183 0 0)
(0.0126261 0 0)
(0.0125218 0 0)
(0.0123961 0 0)
(0.0122379 0 0)
(0.0120578 0 0)
(0.0118441 0 0)
(0.0115855 0 0)
(0.0112615 0 0)
(0.0108573 0 0)
(0.0103839 0 0)
(0.00981662 0 0)
(0.00915222 0 0)
(0.00841291 0 0)
(0.00763561 0 0)
(0.00687992 0 0)
(0.006206 0 0)
(0.00566045 0 0)
(0.00525735 0 0)
(0.0049795 0 0)
(0.00480042 0 0)
(0.00469261 0 0)
(0.00462698 0 0)
(0.00458517 0 0)
(0.0045611 0 0)
(0.00454596 0 0)
(0.00453372 0 0)
(0.00452677 0 0)
(0.0045225 0 0)
(0.00452342 0 0)
(0.00452382 0 0)
(0.00452225 0 0)
(0.00452062 0 0)
(0.00451832 0 0)
(0.00451642 0 0)
(0.00451437 0 0)
(0.00451751 0 0)
(0.00451824 0 0)
(0.00451698 0 0)
(0.00451745 0 0)
)
;

boundaryField
{
    inlet
    {
        type            fixedValue;
        value           uniform (0.005 0 0);
    }
    outlet
    {
        type            zeroGradient;
    }
    yzfaces
    {
        type            empty;
    }
}


// ************************************************************************* //
