/*--------------------------------*- C++ -*----------------------------------*\
| =========                 |                                                 |
| \\      /  F ield         | foam-extend: Open Source CFD                    |
|  \\    /   O peration     | Version:     5.0                                |
|   \\  /    A nd           | Web:         http://www.foam-extend.org         |
|    \\/     M anipulation  |                                                 |
\*---------------------------------------------------------------------------*/
FoamFile
{
    version     2.0;
    format      ascii;
    class       volVectorField;
    location    "4";
    object      U.water;
}
// * * * * * * * * * * * * * * * * * * * * * * * * * * * * * * * * * * * * * //

dimensions      [0 1 -1 0 0 0 0];

internalField   nonuniform List<vector> 
100
(
(5.95472e-05 0 0)
(0.000140945 0 0)
(0.000208381 0 0)
(0.000269455 0 0)
(0.000330058 0 0)
(0.000388734 0 0)
(0.000441846 0 0)
(0.000493506 0 0)
(0.00055377 0 0)
(0.000606411 0 0)
(0.000655783 0 0)
(0.000713545 0 0)
(0.000762769 0 0)
(0.000798566 0 0)
(0.00083945 0 0)
(0.000883266 0 0)
(0.000929833 0 0)
(0.000975589 0 0)
(0.00102456 0 0)
(0.00107096 0 0)
(0.00111957 0 0)
(0.00116701 0 0)
(0.00120796 0 0)
(0.00124921 0 0)
(0.00129039 0 0)
(0.0013337 0 0)
(0.00137857 0 0)
(0.00142245 0 0)
(0.00146699 0 0)
(0.00150839 0 0)
(0.00154871 0 0)
(0.00159357 0 0)
(0.00164228 0 0)
(0.00168909 0 0)
(0.00172695 0 0)
(0.00176708 0 0)
(0.00181368 0 0)
(0.00185959 0 0)
(0.00190021 0 0)
(0.00194164 0 0)
(0.00198594 0 0)
(0.00203187 0 0)
(0.00207296 0 0)
(0.00210972 0 0)
(0.00215315 0 0)
(0.00219664 0 0)
(0.00224039 0 0)
(0.00228683 0 0)
(0.00233394 0 0)
(0.00238163 0 0)
(0.00243429 0 0)
(0.00249353 0 0)
(0.00255578 0 0)
(0.00261458 0 0)
(0.00267432 0 0)
(0.00273542 0 0)
(0.0028007 0 0)
(0.00287118 0 0)
(0.00294275 0 0)
(0.00301395 0 0)
(0.00308776 0 0)
(0.00316468 0 0)
(0.00324647 0 0)
(0.00333414 0 0)
(0.00342597 0 0)
(0.00352726 0 0)
(0.00363998 0 0)
(0.00375768 0 0)
(0.00388214 0 0)
(0.0040114 0 0)
(0.00414926 0 0)
(0.00428991 0 0)
(0.00441966 0 0)
(0.00453931 0 0)
(0.00464064 0 0)
(0.00472253 0 0)
(0.00478455 0 0)
(0.00482814 0 0)
(0.00485591 0 0)
(0.0048699 0 0)
(0.0048797 0 0)
(0.00488741 0 0)
(0.00488917 0 0)
(0.00488787 0 0)
(0.00489016 0 0)
(0.00488934 0 0)
(0.00488392 0 0)
(0.0048792 0 0)
(0.00487886 0 0)
(0.00488129 0 0)
(0.00488275 0 0)
(0.00488196 0 0)
(0.00488153 0 0)
(0.00487952 0 0)
(0.00487547 0 0)
(0.00487534 0 0)
(0.00487705 0 0)
(0.00487814 0 0)
(0.00487772 0 0)
(0.00487534 0 0)
)
;

boundaryField
{
    inlet
    {
        type            fixedValue;
        value           uniform (0 0 0);
    }
    outlet
    {
        type            zeroGradient;
    }
    yzfaces
    {
        type            empty;
    }
}


// ************************************************************************* //
