/*--------------------------------*- C++ -*----------------------------------*\
| =========                 |                                                 |
| \\      /  F ield         | foam-extend: Open Source CFD                    |
|  \\    /   O peration     | Version:     5.0                                |
|   \\  /    A nd           | Web:         http://www.foam-extend.org         |
|    \\/     M anipulation  |                                                 |
\*---------------------------------------------------------------------------*/
FoamFile
{
    version     2.0;
    format      ascii;
    class       volScalarField;
    location    "9.20369";
    object      CO2.water;
}
// * * * * * * * * * * * * * * * * * * * * * * * * * * * * * * * * * * * * * //

dimensions      [0 0 0 0 0 0 0];

internalField   nonuniform List<scalar> 
100
(
5.8945e-05
9.24159e-05
4.14797e-06
6.92233e-07
1.29163e-07
2.31806e-08
4.02139e-09
6.78936e-10
1.12089e-10
1.81609e-11
2.89534e-12
4.55134e-13
7.06589e-14
1.0845e-14
1.64726e-15
2.47857e-16
3.69762e-17
5.47186e-18
8.03568e-19
1.17176e-19
1.69742e-20
2.44345e-21
3.4957e-22
4.97312e-23
7.03704e-24
9.90494e-25
1.3871e-25
1.93341e-26
2.68242e-27
3.7045e-28
5.0944e-29
6.97638e-30
9.51487e-31
1.29269e-31
1.74956e-32
2.35897e-33
3.16954e-34
4.24362e-35
5.66168e-36
7.52918e-37
9.97945e-38
1.31841e-38
1.73669e-39
2.2806e-40
2.98572e-41
3.89775e-42
5.0737e-43
6.58611e-44
8.52658e-45
1.10086e-45
1.41773e-46
1.82083e-47
2.33275e-48
2.98145e-49
3.80085e-50
4.83386e-51
6.1324e-52
7.76121e-53
9.80097e-54
1.23499e-54
1.55257e-55
1.94762e-56
2.43771e-57
3.04532e-58
3.79582e-59
4.72218e-60
5.86185e-61
7.26119e-62
8.97825e-63
1.1077e-63
1.36428e-64
1.67685e-65
2.05735e-66
2.51921e-67
3.07926e-68
3.75704e-69
4.57594e-70
5.56351e-71
6.75178e-72
8.17945e-73
9.89387e-74
1.19464e-74
1.44027e-75
1.73359e-76
2.08318e-77
2.49918e-78
2.99355e-79
3.58025e-80
4.27499e-81
5.09761e-82
6.06842e-83
7.21327e-84
8.56098e-85
1.01454e-85
1.20044e-86
1.41838e-87
1.67356e-88
1.97174e-89
2.32024e-90
2.72654e-91
)
;

boundaryField
{
    inlet
    {
        type            fixedValue;
        value           uniform 0;
    }
    outlet
    {
        type            zeroGradient;
    }
    yzfaces
    {
        type            empty;
    }
}


// ************************************************************************* //
