/*--------------------------------*- C++ -*----------------------------------*\
| =========                 |                                                 |
| \\      /  F ield         | foam-extend: Open Source CFD                    |
|  \\    /   O peration     | Version:     5.0                                |
|   \\  /    A nd           | Web:         http://www.foam-extend.org         |
|    \\/     M anipulation  |                                                 |
\*---------------------------------------------------------------------------*/
FoamFile
{
    version     2.0;
    format      ascii;
    class       volScalarField;
    location    "2";
    object      alpha.water;
}
// * * * * * * * * * * * * * * * * * * * * * * * * * * * * * * * * * * * * * //

dimensions      [0 0 0 0 0 0 0];

internalField   nonuniform List<scalar> 
100
(
0.0382044
0.0518027
0.0610402
0.0681287
0.073795
0.0785426
0.0825874
0.0860782
0.0892109
0.0919763
0.0944065
0.0966612
0.0987278
0.100659
0.102431
0.104073
0.105608
0.107033
0.108399
0.109675
0.110875
0.112015
0.113096
0.114133
0.115128
0.116069
0.116986
0.117855
0.118672
0.119451
0.120228
0.120979
0.121695
0.122396
0.123082
0.123748
0.124366
0.124971
0.125578
0.126159
0.126728
0.127279
0.127826
0.128342
0.128836
0.129335
0.129836
0.130316
0.13078
0.131224
0.131656
0.132077
0.132487
0.132884
0.133261
0.133637
0.134007
0.134379
0.134731
0.135071
0.13542
0.135754
0.136081
0.136402
0.136722
0.137038
0.13735
0.137656
0.137958
0.138253
0.138533
0.138815
0.139088
0.139379
0.139656
0.139932
0.140212
0.140489
0.140747
0.14101
0.141267
0.141528
0.141789
0.142035
0.142283
0.142523
0.142753
0.142989
0.143216
0.143449
0.143666
0.143879
0.144096
0.144303
0.144515
0.144726
0.144929
0.145136
0.145335
0.145548
)
;

boundaryField
{
    inlet
    {
        type            fixedValue;
        value           uniform 0;
    }
    outlet
    {
        type            zeroGradient;
    }
    yzfaces
    {
        type            empty;
    }
}


// ************************************************************************* //
