/*--------------------------------*- C++ -*----------------------------------*\
| =========                 |                                                 |
| \\      /  F ield         | foam-extend: Open Source CFD                    |
|  \\    /   O peration     | Version:     5.0                                |
|   \\  /    A nd           | Web:         http://www.foam-extend.org         |
|    \\/     M anipulation  |                                                 |
\*---------------------------------------------------------------------------*/
FoamFile
{
    version     2.0;
    format      ascii;
    class       volScalarField;
    location    "2";
    object      alpha.gas;
}
// * * * * * * * * * * * * * * * * * * * * * * * * * * * * * * * * * * * * * //

dimensions      [0 0 0 0 0 0 0];

internalField   nonuniform List<scalar> 
100
(
0.161796
0.148197
0.13896
0.131871
0.126205
0.121457
0.117413
0.113922
0.110789
0.108024
0.105594
0.103339
0.101272
0.0993414
0.0975692
0.0959267
0.0943923
0.0929671
0.0916012
0.090325
0.0891252
0.0879852
0.0869036
0.085867
0.0848718
0.0839306
0.0830135
0.0821453
0.0813279
0.080549
0.0797719
0.0790207
0.0783051
0.077604
0.076918
0.0762525
0.0756342
0.0750291
0.0744215
0.0738407
0.0732723
0.0727213
0.072174
0.0716584
0.0711639
0.0706652
0.070164
0.0696838
0.0692199
0.0687756
0.0683439
0.0679235
0.0675127
0.0671155
0.0667387
0.0663628
0.0659931
0.0656213
0.065269
0.0649292
0.0645801
0.0642462
0.0639186
0.0635979
0.0632781
0.0629615
0.06265
0.0623443
0.0620416
0.0617472
0.0614672
0.0611845
0.0609123
0.0606209
0.0603445
0.0600678
0.0597877
0.0595108
0.0592532
0.0589896
0.0587333
0.0584715
0.058211
0.0579654
0.0577175
0.0574775
0.0572472
0.0570113
0.0567844
0.0565512
0.0563339
0.0561214
0.0559037
0.0556972
0.0554848
0.0552738
0.0550711
0.0548642
0.0546653
0.0544516
)
;

boundaryField
{
    inlet
    {
        type            fixedValue;
        value           uniform 0.2;
    }
    outlet
    {
        type            zeroGradient;
    }
    yzfaces
    {
        type            empty;
    }
}


// ************************************************************************* //
