/*--------------------------------*- C++ -*----------------------------------*\
| =========                 |                                                 |
| \\      /  F ield         | foam-extend: Open Source CFD                    |
|  \\    /   O peration     | Version:     5.0                                |
|   \\  /    A nd           | Web:         http://www.foam-extend.org         |
|    \\/     M anipulation  |                                                 |
\*---------------------------------------------------------------------------*/
FoamFile
{
    version     2.0;
    format      ascii;
    class       volScalarField;
    location    "2";
    object      CO2.gas;
}
// * * * * * * * * * * * * * * * * * * * * * * * * * * * * * * * * * * * * * //

dimensions      [0 0 0 0 0 0 0];

internalField   nonuniform List<scalar> 
100
(
0.161702
0.148173
0.139072
0.131928
0.126262
0.121479
0.117401
0.113927
0.110745
0.107981
0.105614
0.103363
0.101301
0.0993373
0.0975653
0.0959304
0.0944009
0.0929815
0.0916021
0.0903275
0.0891322
0.0879956
0.0869157
0.0858773
0.0848804
0.0839439
0.0830244
0.0821594
0.0813471
0.0805777
0.0797802
0.0790336
0.0783157
0.0776062
0.0769159
0.0762418
0.0756259
0.0750273
0.0744135
0.0738385
0.073268
0.0727145
0.0721584
0.0716467
0.0711578
0.0706556
0.0701475
0.0696687
0.0692026
0.0687587
0.0683263
0.0679086
0.0675004
0.0671066
0.0667355
0.0663613
0.0659953
0.0656199
0.0652694
0.0649335
0.0645839
0.0642548
0.0639338
0.0636131
0.0632955
0.0629757
0.062664
0.0623573
0.0620562
0.0617599
0.0614842
0.0611986
0.0609272
0.0606284
0.0603547
0.0600773
0.0597964
0.0595173
0.0592663
0.0589997
0.0587434
0.0584784
0.0582167
0.0579758
0.0577269
0.0574864
0.0572569
0.0570186
0.0567923
0.0565559
0.0563444
0.0561331
0.0559163
0.05571
0.0554965
0.0552839
0.055083
0.0548735
0.0546732
0.054459
)
;

boundaryField
{
    inlet
    {
        type            fixedValue;
        value           uniform 0.2;
    }
    outlet
    {
        type            zeroGradient;
    }
    yzfaces
    {
        type            empty;
    }
}


// ************************************************************************* //
