/*--------------------------------*- C++ -*----------------------------------*\
| =========                 |                                                 |
| \\      /  F ield         | foam-extend: Open Source CFD                    |
|  \\    /   O peration     | Version:     5.0                                |
|   \\  /    A nd           | Web:         http://www.foam-extend.org         |
|    \\/     M anipulation  |                                                 |
\*---------------------------------------------------------------------------*/
FoamFile
{
    version     2.0;
    format      ascii;
    class       surfaceScalarField;
    location    "2";
    object      phi;
}
// * * * * * * * * * * * * * * * * * * * * * * * * * * * * * * * * * * * * * //

dimensions      [0 3 -1 0 0 0 0];

internalField   nonuniform List<scalar> 
99
(
1.22468e-05
1.22489e-05
1.2245e-05
1.22476e-05
1.22348e-05
1.22398e-05
1.22312e-05
1.22296e-05
1.22217e-05
1.22139e-05
1.22268e-05
1.22227e-05
1.22354e-05
1.22441e-05
1.22555e-05
1.22583e-05
1.22619e-05
1.22559e-05
1.22634e-05
1.22655e-05
1.22624e-05
1.22679e-05
1.22665e-05
1.22683e-05
1.22681e-05
1.22713e-05
1.22676e-05
1.22629e-05
1.22617e-05
1.22686e-05
1.22649e-05
1.22609e-05
1.22579e-05
1.22537e-05
1.2253e-05
1.22516e-05
1.22537e-05
1.22575e-05
1.22535e-05
1.22547e-05
1.22586e-05
1.2254e-05
1.22541e-05
1.2256e-05
1.22543e-05
1.22546e-05
1.22515e-05
1.22554e-05
1.22551e-05
1.22555e-05
1.22572e-05
1.22594e-05
1.22603e-05
1.22624e-05
1.22655e-05
1.22675e-05
1.22682e-05
1.22702e-05
1.22708e-05
1.227e-05
1.22722e-05
1.22727e-05
1.22748e-05
1.22769e-05
1.22767e-05
1.2279e-05
1.22769e-05
1.22768e-05
1.22755e-05
1.2278e-05
1.22785e-05
1.22762e-05
1.22763e-05
1.22753e-05
1.22753e-05
1.22754e-05
1.22724e-05
1.22773e-05
1.22769e-05
1.22781e-05
1.22751e-05
1.22722e-05
1.22726e-05
1.22721e-05
1.2272e-05
1.22703e-05
1.2268e-05
1.227e-05
1.22669e-05
1.22698e-05
1.22734e-05
1.22759e-05
1.2277e-05
1.22775e-05
1.22771e-05
1.22792e-05
1.22798e-05
1.22824e-05
1.22776e-05
)
;

boundaryField
{
    inlet
    {
        type            calculated;
        value           uniform -1.225e-05;
    }
    outlet
    {
        type            calculated;
        value           uniform 1.22769e-05;
    }
    yzfaces
    {
        type            empty;
    }
}


// ************************************************************************* //
