/*--------------------------------*- C++ -*----------------------------------*\
| =========                 |                                                 |
| \\      /  F ield         | foam-extend: Open Source CFD                    |
|  \\    /   O peration     | Version:     5.0                                |
|   \\  /    A nd           | Web:         http://www.foam-extend.org         |
|    \\/     M anipulation  |                                                 |
\*---------------------------------------------------------------------------*/
FoamFile
{
    version     2.0;
    format      ascii;
    class       surfaceScalarField;
    location    "2";
    object      phi.gas;
}
// * * * * * * * * * * * * * * * * * * * * * * * * * * * * * * * * * * * * * //

dimensions      [0 3 -1 0 0 0 0];

internalField   nonuniform List<scalar> 
99
(
7.89662e-05
8.51026e-05
9.00629e-05
9.44291e-05
9.81803e-05
0.000101728
0.000104835
0.000107783
0.000110493
0.000112923
0.000115392
0.00011763
0.000119958
0.00012216
0.000124264
0.000126196
0.000128054
0.000129768
0.000131572
0.000133236
0.000134787
0.000136385
0.000137871
0.000139359
0.000140777
0.000142203
0.000143517
0.000144755
0.00014598
0.000147313
0.000148519
0.000149669
0.000150819
0.000151948
0.000153105
0.000154199
0.000155284
0.000156408
0.000157418
0.000158468
0.000159546
0.000160515
0.00016151
0.000162475
0.000163398
0.000164377
0.000165291
0.000166265
0.000167157
0.000168036
0.000168911
0.000169774
0.0001706
0.00017141
0.000172224
0.000173022
0.000173813
0.000174602
0.000175338
0.000176064
0.000176821
0.000177529
0.000178255
0.000178984
0.000179685
0.00018042
0.000181077
0.000181761
0.000182411
0.000183093
0.000183741
0.000184341
0.000185009
0.000185653
0.000186295
0.00018695
0.000187561
0.000188254
0.000188861
0.000189499
0.000190079
0.000190671
0.000191272
0.000191857
0.000192448
0.00019299
0.00019353
0.000194128
0.000194654
0.000195244
0.000195821
0.000196398
0.000196939
0.000197476
0.000198008
0.000198559
0.000199091
0.000199652
0.000200109
)
;

boundaryField
{
    inlet
    {
        type            fixedValue;
        value           uniform -6.125e-05;
    }
    outlet
    {
        type            calculated;
        value           uniform 0.000200252;
    }
    yzfaces
    {
        type            empty;
    }
}


// ************************************************************************* //
