/*--------------------------------*- C++ -*----------------------------------*\
| =========                 |                                                 |
| \\      /  F ield         | foam-extend: Open Source CFD                    |
|  \\    /   O peration     | Version:     5.0                                |
|   \\  /    A nd           | Web:         http://www.foam-extend.org         |
|    \\/     M anipulation  |                                                 |
\*---------------------------------------------------------------------------*/
FoamFile
{
    version     2.0;
    format      ascii;
    class       surfaceScalarField;
    location    "2";
    object      phi.water;
}
// * * * * * * * * * * * * * * * * * * * * * * * * * * * * * * * * * * * * * //

dimensions      [0 3 -1 0 0 0 0];

internalField   nonuniform List<scalar> 
99
(
2.67017e-07
4.65882e-07
6.41312e-07
8.06781e-07
9.60299e-07
1.11007e-06
1.25208e-06
1.38862e-06
1.52241e-06
1.65195e-06
1.77508e-06
1.89719e-06
2.01934e-06
2.1399e-06
2.25832e-06
2.37275e-06
2.4858e-06
2.59364e-06
2.70486e-06
2.81323e-06
2.91734e-06
3.02279e-06
3.12427e-06
3.2271e-06
3.32843e-06
3.42867e-06
3.52801e-06
3.62423e-06
3.71839e-06
3.81436e-06
3.90834e-06
4.0027e-06
4.09558e-06
4.18759e-06
4.28202e-06
4.37532e-06
4.46568e-06
4.55522e-06
4.64602e-06
4.73629e-06
4.82785e-06
4.91558e-06
5.00625e-06
5.09397e-06
5.17815e-06
5.26535e-06
5.35461e-06
5.44531e-06
5.53148e-06
5.61576e-06
5.70009e-06
5.7839e-06
5.86636e-06
5.94755e-06
6.02735e-06
6.10681e-06
6.18545e-06
6.26828e-06
6.34524e-06
6.42016e-06
6.50074e-06
6.57689e-06
6.65472e-06
6.73187e-06
6.80827e-06
6.88693e-06
6.96294e-06
7.03789e-06
7.11468e-06
7.19121e-06
7.264e-06
7.33738e-06
7.40927e-06
7.48768e-06
7.56278e-06
7.63925e-06
7.71626e-06
7.79704e-06
7.87048e-06
7.9483e-06
8.02144e-06
8.09633e-06
8.17596e-06
8.24917e-06
8.32503e-06
8.39861e-06
8.46915e-06
8.54541e-06
8.61605e-06
8.69354e-06
8.76663e-06
8.83755e-06
8.91083e-06
8.98103e-06
9.05254e-06
9.1264e-06
9.19698e-06
9.27164e-06
9.33833e-06
)
;

boundaryField
{
    inlet
    {
        type            fixedValue;
        value           uniform 0;
    }
    outlet
    {
        type            calculated;
        value           uniform 9.421e-06;
    }
    yzfaces
    {
        type            empty;
    }
}


// ************************************************************************* //
