/*--------------------------------*- C++ -*----------------------------------*\
| =========                 |                                                 |
| \\      /  F ield         | foam-extend: Open Source CFD                    |
|  \\    /   O peration     | Version:     5.0                                |
|   \\  /    A nd           | Web:         http://www.foam-extend.org         |
|    \\/     M anipulation  |                                                 |
\*---------------------------------------------------------------------------*/
FoamFile
{
    version     2.0;
    format      ascii;
    class       volVectorField;
    location    "2";
    object      U.water;
}
// * * * * * * * * * * * * * * * * * * * * * * * * * * * * * * * * * * * * * //

dimensions      [0 1 -1 0 0 0 0];

internalField   nonuniform List<vector> 
100
(
(0.000128339 0 0)
(0.000301834 0 0)
(0.000452958 0 0)
(0.000591438 0 0)
(0.000721489 0 0)
(0.000845004 0 0)
(0.000963853 0 0)
(0.00107767 0 0)
(0.00118751 0 0)
(0.00129492 0 0)
(0.00139886 0 0)
(0.00149907 0 0)
(0.00159883 0 0)
(0.0016975 0 0)
(0.00179499 0 0)
(0.00189016 0 0)
(0.00198308 0 0)
(0.00207345 0 0)
(0.00216259 0 0)
(0.00225222 0 0)
(0.00233909 0 0)
(0.00242471 0 0)
(0.00250927 0 0)
(0.00259266 0 0)
(0.00267591 0 0)
(0.0027584 0 0)
(0.00283974 0 0)
(0.00291962 0 0)
(0.00299762 0 0)
(0.00307551 0 0)
(0.00315264 0 0)
(0.00322933 0 0)
(0.00330581 0 0)
(0.00338102 0 0)
(0.0034568 0 0)
(0.003533 0 0)
(0.00360822 0 0)
(0.00368186 0 0)
(0.00375524 0 0)
(0.00382929 0 0)
(0.00390344 0 0)
(0.00397649 0 0)
(0.00404885 0 0)
(0.00412179 0 0)
(0.00419231 0 0)
(0.00426211 0 0)
(0.00433368 0 0)
(0.00440705 0 0)
(0.00447914 0 0)
(0.00454871 0 0)
(0.00461754 0 0)
(0.00468628 0 0)
(0.00475428 0 0)
(0.00482127 0 0)
(0.00488744 0 0)
(0.00495263 0 0)
(0.00501734 0 0)
(0.00508301 0 0)
(0.00514837 0 0)
(0.00521076 0 0)
(0.00527415 0 0)
(0.00533854 0 0)
(0.00540177 0 0)
(0.0054653 0 0)
(0.00552799 0 0)
(0.00559119 0 0)
(0.00565423 0 0)
(0.00571588 0 0)
(0.00577779 0 0)
(0.00584037 0 0)
(0.00590161 0 0)
(0.00596113 0 0)
(0.00602054 0 0)
(0.00608126 0 0)
(0.00614403 0 0)
(0.00620596 0 0)
(0.00626842 0 0)
(0.0063327 0 0)
(0.00639615 0 0)
(0.00645778 0 0)
(0.00651938 0 0)
(0.00657953 0 0)
(0.00664242 0 0)
(0.00670523 0 0)
(0.00676603 0 0)
(0.00682698 0 0)
(0.00688596 0 0)
(0.00694561 0 0)
(0.00700563 0 0)
(0.00706584 0 0)
(0.00712775 0 0)
(0.00718695 0 0)
(0.00724572 0 0)
(0.00730453 0 0)
(0.00736218 0 0)
(0.00742137 0 0)
(0.00748047 0 0)
(0.00753945 0 0)
(0.00759725 0 0)
(0.00765512 0 0)
)
;

boundaryField
{
    inlet
    {
        type            fixedValue;
        value           uniform (0 0 0);
    }
    outlet
    {
        type            zeroGradient;
    }
    yzfaces
    {
        type            empty;
    }
}


// ************************************************************************* //
