/*--------------------------------*- C++ -*----------------------------------*\
| =========                 |                                                 |
| \\      /  F ield         | foam-extend: Open Source CFD                    |
|  \\    /   O peration     | Version:     5.0                                |
|   \\  /    A nd           | Web:         http://www.foam-extend.org         |
|    \\/     M anipulation  |                                                 |
\*---------------------------------------------------------------------------*/
FoamFile
{
    version     2.0;
    format      ascii;
    class       volScalarField;
    location    "3";
    object      CO2.water;
}
// * * * * * * * * * * * * * * * * * * * * * * * * * * * * * * * * * * * * * //

dimensions      [0 0 0 0 0 0 0];

internalField   nonuniform List<scalar> 
100
(
0.00145905
0.00188868
0.00215353
0.00235717
0.00252068
0.00265696
0.00277178
0.00286979
0.00295525
0.00302054
0.00308897
0.00315201
0.00321242
0.00326008
0.00331036
0.00336025
0.00340489
0.00344794
0.00349116
0.00352823
0.00356789
0.00360202
0.0036342
0.0036655
0.00369491
0.00372333
0.0037566
0.00378395
0.00381339
0.00384093
0.00386705
0.00389219
0.00391825
0.00394503
0.0039719
0.00399754
0.00402336
0.00405018
0.00407784
0.00410583
0.00413372
0.00416202
0.00419056
0.000179038
3.95241e-05
9.21427e-06
2.28049e-06
6.04674e-07
1.72051e-07
5.25655e-08
1.70818e-08
5.90481e-09
2.14305e-09
8.12142e-10
3.27868e-10
1.3584e-10
5.719e-11
2.43091e-11
1.04531e-11
4.54312e-12
1.97136e-12
8.61448e-13
3.75834e-13
1.63631e-13
7.14522e-14
3.10165e-14
1.34499e-14
5.8067e-15
2.50348e-15
1.07922e-15
4.64841e-16
1.99939e-16
8.57823e-17
3.6831e-17
1.57803e-17
6.7479e-18
2.88445e-18
1.22923e-18
5.23687e-19
2.22689e-19
9.50439e-20
4.03981e-20
1.7178e-20
7.27628e-21
3.07934e-21
1.3046e-21
5.52334e-22
2.33342e-22
9.87523e-23
4.16859e-23
1.76012e-23
7.50433e-24
3.41553e-24
1.69918e-24
9.13381e-25
5.15086e-25
2.94263e-25
1.64518e-25
8.93993e-26
6.29451e-26
)
;

boundaryField
{
    inlet
    {
        type            fixedValue;
        value           uniform 0;
    }
    outlet
    {
        type            zeroGradient;
    }
    yzfaces
    {
        type            empty;
    }
}


// ************************************************************************* //
