/*--------------------------------*- C++ -*----------------------------------*\
| =========                 |                                                 |
| \\      /  F ield         | foam-extend: Open Source CFD                    |
|  \\    /   O peration     | Version:     5.0                                |
|   \\  /    A nd           | Web:         http://www.foam-extend.org         |
|    \\/     M anipulation  |                                                 |
\*---------------------------------------------------------------------------*/
FoamFile
{
    version     2.0;
    format      ascii;
    class       volScalarField;
    location    "3";
    object      H2O.water;
}
// * * * * * * * * * * * * * * * * * * * * * * * * * * * * * * * * * * * * * //

dimensions      [0 0 0 0 0 0 0];

internalField   nonuniform List<scalar> 
100
(
0.0316132
0.0407689
0.0463334
0.0509219
0.0543501
0.0574698
0.0600781
0.0622174
0.0639835
0.0651018
0.0664678
0.0679023
0.069258
0.0700705
0.0710626
0.0724423
0.0733233
0.0742805
0.0753105
0.0759444
0.0768412
0.0775209
0.0780858
0.0788257
0.0794178
0.0800595
0.0809406
0.0814244
0.0821274
0.0826218
0.083075
0.083729
0.0841913
0.0848326
0.0854336
0.0859496
0.0865826
0.0871439
0.0877699
0.0882971
0.0888288
0.0894948
0.0900828
0.0929478
0.0936447
0.0944506
0.0952342
0.0960061
0.0967746
0.0975758
0.0984774
0.0994869
0.100551
0.101667
0.102923
0.104189
0.105311
0.106436
0.107346
0.108068
0.108805
0.109273
0.109561
0.109643
0.109683
0.109891
0.109984
0.110019
0.110121
0.110132
0.110159
0.110304
0.110215
0.110229
0.110149
0.110104
0.110004
0.110004
0.10997
0.110017
0.110066
0.110114
0.11004
0.110058
0.109995
0.109991
0.110094
0.110124
0.110082
0.110122
0.110098
0.110044
0.110063
0.110022
0.110159
0.110022
0.109967
0.109958
0.110041
0.109946
)
;

boundaryField
{
    inlet
    {
        type            fixedValue;
        value           uniform 0;
    }
    outlet
    {
        type            zeroGradient;
    }
    yzfaces
    {
        type            empty;
    }
}


// ************************************************************************* //
