/*--------------------------------*- C++ -*----------------------------------*\
| =========                 |                                                 |
| \\      /  F ield         | foam-extend: Open Source CFD                    |
|  \\    /   O peration     | Version:     5.0                                |
|   \\  /    A nd           | Web:         http://www.foam-extend.org         |
|    \\/     M anipulation  |                                                 |
\*---------------------------------------------------------------------------*/
FoamFile
{
    version     2.0;
    format      ascii;
    class       volScalarField;
    location    "3";
    object      H2O.water;
}
// * * * * * * * * * * * * * * * * * * * * * * * * * * * * * * * * * * * * * //

dimensions      [0 0 0 0 0 0 0];

internalField   nonuniform List<scalar> 
100
(
0.0317898
0.0406169
0.0450377
0.0505664
0.0545147
0.0572652
0.0595109
0.0619204
0.0639189
0.0649771
0.0667889
0.0678017
0.0693265
0.0705557
0.0714374
0.072516
0.0733728
0.0742715
0.0750345
0.0759803
0.0769592
0.0772677
0.0779629
0.0786106
0.0793139
0.0801547
0.0808124
0.0811523
0.0817827
0.0824472
0.0829871
0.0836784
0.0842739
0.0846969
0.0854533
0.0859122
0.0866176
0.0870187
0.0877453
0.0883296
0.089002
0.0896055
0.0902167
0.0928406
0.0937212
0.0943518
0.0951422
0.0958589
0.096735
0.0976524
0.0985646
0.0995746
0.100583
0.101779
0.103025
0.104242
0.10541
0.106596
0.107438
0.108258
0.108796
0.109318
0.109649
0.109848
0.109947
0.110128
0.110069
0.110011
0.10996
0.109959
0.11004
0.10997
0.109945
0.11
0.109943
0.110014
0.109982
0.110052
0.110065
0.110147
0.110042
0.110018
0.110018
0.10989
0.10993
0.109946
0.109975
0.109978
0.109871
0.109882
0.109883
0.109969
0.109915
0.109963
0.109974
0.110016
0.11011
0.109951
0.109966
0.110048
)
;

boundaryField
{
    inlet
    {
        type            fixedValue;
        value           uniform 0;
    }
    outlet
    {
        type            zeroGradient;
    }
    yzfaces
    {
        type            empty;
    }
}


// ************************************************************************* //
