/*--------------------------------*- C++ -*----------------------------------*\
| =========                 |                                                 |
| \\      /  F ield         | foam-extend: Open Source CFD                    |
|  \\    /   O peration     | Version:     5.0                                |
|   \\  /    A nd           | Web:         http://www.foam-extend.org         |
|    \\/     M anipulation  |                                                 |
\*---------------------------------------------------------------------------*/
FoamFile
{
    version     2.0;
    format      ascii;
    class       volScalarField;
    location    "3";
    object      Na.water;
}
// * * * * * * * * * * * * * * * * * * * * * * * * * * * * * * * * * * * * * //

dimensions      [0 0 0 0 0 0 0];

internalField   nonuniform List<scalar> 
100
(
0.0112075
0.0146584
0.0168815
0.0182564
0.0194917
0.0204789
0.0215018
0.0221992
0.0227501
0.0234323
0.0238691
0.0245267
0.0248721
0.0253369
0.0258066
0.0261446
0.02653
0.0268373
0.0271641
0.0273893
0.027669
0.0280599
0.0283085
0.0286052
0.0287883
0.0289979
0.0292276
0.029561
0.0297303
0.0299243
0.0301045
0.0302796
0.0304923
0.0307247
0.0308501
0.0310988
0.0312485
0.0315292
0.0316922
0.0319074
0.0321065
0.0323274
0.0325716
0.0337554
0.0340882
0.0343156
0.0345941
0.0348589
0.0351849
0.0355144
0.0358428
0.0362024
0.0365648
0.0369957
0.0374542
0.0378919
0.0383218
0.0387535
0.0390594
0.0393623
0.0395615
0.0397575
0.0398724
0.0399489
0.039975
0.0400446
0.0400246
0.0400116
0.0399835
0.0399865
0.0400226
0.0399988
0.0399969
0.0400305
0.0400172
0.0400493
0.0400416
0.0400512
0.0400592
0.0400595
0.0400162
0.0399965
0.0399976
0.0399463
0.0399712
0.0399849
0.039989
0.0399786
0.0399513
0.0399605
0.039955
0.0399846
0.0399725
0.03999
0.0399934
0.0399986
0.0400312
0.0399773
0.0399952
0.0400393
)
;

boundaryField
{
    inlet
    {
        type            fixedValue;
        value           uniform 0;
    }
    outlet
    {
        type            zeroGradient;
    }
    yzfaces
    {
        type            empty;
    }
}


// ************************************************************************* //
