/*--------------------------------*- C++ -*----------------------------------*\
| =========                 |                                                 |
| \\      /  F ield         | foam-extend: Open Source CFD                    |
|  \\    /   O peration     | Version:     5.0                                |
|   \\  /    A nd           | Web:         http://www.foam-extend.org         |
|    \\/     M anipulation  |                                                 |
\*---------------------------------------------------------------------------*/
FoamFile
{
    version     2.0;
    format      ascii;
    class       volScalarField;
    location    "9";
    object      CO2.water;
}
// * * * * * * * * * * * * * * * * * * * * * * * * * * * * * * * * * * * * * //

dimensions      [0 0 0 0 0 0 0];

internalField   nonuniform List<scalar> 
100
(
0.000848904
0.00118994
0.00140211
0.00159056
0.00167973
0.00171893
0.00176352
0.00184749
0.00195679
0.00208706
0.00219812
0.00227357
0.0023196
0.00238232
0.00245522
0.00251265
0.00256875
0.00262551
0.00268292
0.00271253
0.00274635
0.00278927
0.00283216
0.00286719
0.00290297
0.00294323
0.00296905
0.00298138
0.00298735
0.00299334
0.00299979
0.00302365
0.00304561
0.00306902
0.00309282
0.00312273
0.00315545
0.0031739
0.00319541
0.00321574
0.00323846
0.00325896
0.00327168
0.00328759
0.0033038
0.00332258
0.00333624
0.00335422
0.00336744
0.00338437
0.00339438
0.00340335
0.00341567
0.00342866
0.00343896
0.00345235
0.00346662
0.00348078
0.00349661
0.00350962
0.00352392
0.00353459
0.00354729
0.0035571
0.00356826
0.00358118
0.003594
0.00360615
0.00361676
0.00363048
0.00363696
0.00364743
0.00365512
0.00366554
0.00367637
0.00368858
0.00369953
0.00371178
0.00372158
0.00372974
0.00373771
0.00374838
0.00375535
0.00376453
0.0037742
0.00378189
0.00379129
0.00379929
0.00380671
0.00381294
0.00382157
0.00382999
0.00383479
0.00384195
0.00384972
0.00386047
0.00386788
0.0038758
0.00388435
0.00389319
)
;

boundaryField
{
    inlet
    {
        type            fixedValue;
        value           uniform 0;
    }
    outlet
    {
        type            zeroGradient;
    }
    yzfaces
    {
        type            empty;
    }
}


// ************************************************************************* //
