/*--------------------------------*- C++ -*----------------------------------*\
| =========                 |                                                 |
| \\      /  F ield         | foam-extend: Open Source CFD                    |
|  \\    /   O peration     | Version:     5.0                                |
|   \\  /    A nd           | Web:         http://www.foam-extend.org         |
|    \\/     M anipulation  |                                                 |
\*---------------------------------------------------------------------------*/
FoamFile
{
    version     2.0;
    format      ascii;
    class       volScalarField;
    location    "9";
    object      CO2.gas;
}
// * * * * * * * * * * * * * * * * * * * * * * * * * * * * * * * * * * * * * //

dimensions      [0 0 0 0 0 0 0];

internalField   nonuniform List<scalar> 
100
(
0.167352
0.154393
0.14633
0.139169
0.135781
0.134291
0.132597
0.129406
0.125252
0.120302
0.116082
0.113215
0.111466
0.109082
0.106312
0.10413
0.101998
0.099841
0.0976594
0.0965344
0.0952493
0.0936183
0.0919884
0.0906573
0.0892977
0.0877679
0.0867868
0.0863182
0.0860914
0.0858637
0.0856186
0.0847119
0.0838774
0.0829877
0.0820835
0.0809468
0.0797035
0.0790022
0.0781849
0.0774124
0.076549
0.0757702
0.0752866
0.0746822
0.0740661
0.0733526
0.0728334
0.0721501
0.0716476
0.0710046
0.0706239
0.0702833
0.0698152
0.0693215
0.0689301
0.0684211
0.0678789
0.067341
0.0667393
0.066245
0.0657014
0.065296
0.0648136
0.0644407
0.0640165
0.0635255
0.0630383
0.0625768
0.0621735
0.0616523
0.0614062
0.0610082
0.0607159
0.0603199
0.0599086
0.0594445
0.0590283
0.0585628
0.0581903
0.0578806
0.0575774
0.0571722
0.0569071
0.0565585
0.0561907
0.0558988
0.0555415
0.0552374
0.0549554
0.0547187
0.0543909
0.0540709
0.0538886
0.0536164
0.0533212
0.0529128
0.0526309
0.0523302
0.0520051
0.0516694
)
;

boundaryField
{
    inlet
    {
        type            fixedValue;
        value           uniform 0.2;
    }
    outlet
    {
        type            zeroGradient;
    }
    yzfaces
    {
        type            empty;
    }
}


// ************************************************************************* //
