/*--------------------------------*- C++ -*----------------------------------*\
| =========                 |                                                 |
| \\      /  F ield         | foam-extend: Open Source CFD                    |
|  \\    /   O peration     | Version:     5.0                                |
|   \\  /    A nd           | Web:         http://www.foam-extend.org         |
|    \\/     M anipulation  |                                                 |
\*---------------------------------------------------------------------------*/
FoamFile
{
    version     2.0;
    format      ascii;
    class       volScalarField;
    location    "9";
    object      Na.water;
}
// * * * * * * * * * * * * * * * * * * * * * * * * * * * * * * * * * * * * * //

dimensions      [0 0 0 0 0 0 0];

internalField   nonuniform List<scalar> 
100
(
0.00371189
0.00520292
0.00613134
0.00695485
0.00734334
0.00751373
0.00770981
0.00807719
0.00855464
0.00912416
0.00961148
0.0099414
0.010143
0.0104168
0.0107351
0.0109813
0.0112306
0.0114759
0.0117279
0.0118581
0.0120031
0.0121907
0.0123788
0.0125285
0.0126909
0.0128689
0.0129833
0.01304
0.0130675
0.0130919
0.0131203
0.0132236
0.0133167
0.0134201
0.0135263
0.0136554
0.0138011
0.0138798
0.0139735
0.0140613
0.0141601
0.0142481
0.0143009
0.0143686
0.014441
0.014525
0.0145839
0.0146607
0.0147205
0.0147929
0.0148345
0.0148756
0.0149318
0.0149884
0.015034
0.0150915
0.0151539
0.015215
0.015284
0.0153382
0.0154055
0.0154544
0.0155079
0.0155482
0.0155955
0.015654
0.0157099
0.0157678
0.0158184
0.0158768
0.0159027
0.0159449
0.0159797
0.0160288
0.0160793
0.0161317
0.0161799
0.0162286
0.0162697
0.0163058
0.0163409
0.0163875
0.0164162
0.0164538
0.0164994
0.0165361
0.0165783
0.0166073
0.0166434
0.0166733
0.0167091
0.0167475
0.0167737
0.0168
0.0168305
0.0168784
0.0169122
0.0169458
0.0169833
0.0170235
)
;

boundaryField
{
    inlet
    {
        type            fixedValue;
        value           uniform 0;
    }
    outlet
    {
        type            zeroGradient;
    }
    yzfaces
    {
        type            empty;
    }
}


// ************************************************************************* //
