/*--------------------------------*- C++ -*----------------------------------*\
| =========                 |                                                 |
| \\      /  F ield         | foam-extend: Open Source CFD                    |
|  \\    /   O peration     | Version:     5.0                                |
|   \\  /    A nd           | Web:         http://www.foam-extend.org         |
|    \\/     M anipulation  |                                                 |
\*---------------------------------------------------------------------------*/
FoamFile
{
    version     2.0;
    format      ascii;
    class       surfaceScalarField;
    location    "9";
    object      phi;
}
// * * * * * * * * * * * * * * * * * * * * * * * * * * * * * * * * * * * * * //

dimensions      [0 3 -1 0 0 0 0];

internalField   nonuniform List<scalar> 
99
(
1.21639e-06
1.22938e-06
1.22379e-06
1.22954e-06
1.22584e-06
1.23507e-06
1.23052e-06
1.21817e-06
1.19823e-06
1.19304e-06
1.18589e-06
1.18558e-06
1.18259e-06
1.17719e-06
1.18244e-06
1.17693e-06
1.17586e-06
1.17088e-06
1.1759e-06
1.17909e-06
1.17734e-06
1.17589e-06
1.17854e-06
1.17787e-06
1.17917e-06
1.18266e-06
1.19456e-06
1.19313e-06
1.19015e-06
1.18371e-06
1.18225e-06
1.1842e-06
1.17947e-06
1.17629e-06
1.17392e-06
1.16984e-06
1.17047e-06
1.16709e-06
1.16716e-06
1.16646e-06
1.16291e-06
1.16563e-06
1.1629e-06
1.16266e-06
1.16193e-06
1.16217e-06
1.16218e-06
1.1627e-06
1.16434e-06
1.16456e-06
1.16712e-06
1.16634e-06
1.16479e-06
1.16217e-06
1.16141e-06
1.15999e-06
1.16133e-06
1.16092e-06
1.16097e-06
1.15986e-06
1.16161e-06
1.16516e-06
1.16574e-06
1.16436e-06
1.16178e-06
1.16494e-06
1.16367e-06
1.16496e-06
1.16428e-06
1.16822e-06
1.168e-06
1.16775e-06
1.1642e-06
1.16371e-06
1.16224e-06
1.16125e-06
1.15873e-06
1.16116e-06
1.16115e-06
1.16142e-06
1.16007e-06
1.16128e-06
1.15568e-06
1.15525e-06
1.1523e-06
1.15114e-06
1.14899e-06
1.149e-06
1.15095e-06
1.1478e-06
1.1487e-06
1.14895e-06
1.14703e-06
1.14867e-06
1.14594e-06
1.14914e-06
1.14461e-06
1.1416e-06
1.13838e-06
)
;

boundaryField
{
    inlet
    {
        type            calculated;
        value           uniform -1.225e-06;
    }
    outlet
    {
        type            calculated;
        value           uniform 1.13483e-06;
    }
    yzfaces
    {
        type            empty;
    }
}


// ************************************************************************* //
