/*--------------------------------*- C++ -*----------------------------------*\
| =========                 |                                                 |
| \\      /  F ield         | foam-extend: Open Source CFD                    |
|  \\    /   O peration     | Version:     5.0                                |
|   \\  /    A nd           | Web:         http://www.foam-extend.org         |
|    \\/     M anipulation  |                                                 |
\*---------------------------------------------------------------------------*/
FoamFile
{
    version     2.0;
    format      ascii;
    class       volVectorField;
    location    "9";
    object      U.gas;
}
// * * * * * * * * * * * * * * * * * * * * * * * * * * * * * * * * * * * * * //

dimensions      [0 1 -1 0 0 0 0];

internalField   nonuniform List<vector> 
100
(
(0.00593657 0 0)
(0.00643072 0 0)
(0.00678731 0 0)
(0.00711641 0 0)
(0.00728198 0 0)
(0.00736936 0 0)
(0.00747044 0 0)
(0.00758989 0 0)
(0.00771752 0 0)
(0.00792056 0 0)
(0.00812857 0 0)
(0.00827417 0 0)
(0.00836759 0 0)
(0.00849561 0 0)
(0.00868195 0 0)
(0.00882641 0 0)
(0.00895048 0 0)
(0.00908178 0 0)
(0.00924146 0 0)
(0.00934623 0 0)
(0.00945028 0 0)
(0.00956503 0 0)
(0.00969578 0 0)
(0.00980478 0 0)
(0.00991588 0 0)
(0.0100622 0 0)
(0.0101988 0 0)
(0.010273 0 0)
(0.0102677 0 0)
(0.0102456 0 0)
(0.0102315 0 0)
(0.0103207 0 0)
(0.0103761 0 0)
(0.0104156 0 0)
(0.0104667 0 0)
(0.0105382 0 0)
(0.0106291 0 0)
(0.0106619 0 0)
(0.0107183 0 0)
(0.010779 0 0)
(0.010834 0 0)
(0.0108926 0 0)
(0.0109238 0 0)
(0.0109643 0 0)
(0.0110121 0 0)
(0.0110714 0 0)
(0.0111084 0 0)
(0.0111743 0 0)
(0.0112207 0 0)
(0.0112869 0 0)
(0.0113206 0 0)
(0.0113567 0 0)
(0.0113891 0 0)
(0.0114096 0 0)
(0.011421 0 0)
(0.0114553 0 0)
(0.011499 0 0)
(0.0115471 0 0)
(0.0115956 0 0)
(0.0116244 0 0)
(0.0116724 0 0)
(0.011724 0 0)
(0.0117865 0 0)
(0.0118035 0 0)
(0.0118185 0 0)
(0.0118633 0 0)
(0.0119087 0 0)
(0.0119409 0 0)
(0.0119705 0 0)
(0.0120308 0 0)
(0.0120494 0 0)
(0.0120849 0 0)
(0.012079 0 0)
(0.0120917 0 0)
(0.0121104 0 0)
(0.0121314 0 0)
(0.0121365 0 0)
(0.0121701 0 0)
(0.0122005 0 0)
(0.0122159 0 0)
(0.0122274 0 0)
(0.0122599 0 0)
(0.0122405 0 0)
(0.0122357 0 0)
(0.0122409 0 0)
(0.0122282 0 0)
(0.0122352 0 0)
(0.0122335 0 0)
(0.0122576 0 0)
(0.0122603 0 0)
(0.0122715 0 0)
(0.0122909 0 0)
(0.0122771 0 0)
(0.012299 0 0)
(0.0123092 0 0)
(0.0123381 0 0)
(0.0123289 0 0)
(0.0123028 0 0)
(0.0122842 0 0)
(0.0122606 0 0)
)
;

boundaryField
{
    inlet
    {
        type            fixedValue;
        value           uniform (0.005 0 0);
    }
    outlet
    {
        type            zeroGradient;
    }
    yzfaces
    {
        type            empty;
    }
}


// ************************************************************************* //
