/*--------------------------------*- C++ -*----------------------------------*\
| =========                 |                                                 |
| \\      /  F ield         | foam-extend: Open Source CFD                    |
|  \\    /   O peration     | Version:     5.0                                |
|   \\  /    A nd           | Web:         http://www.foam-extend.org         |
|    \\/     M anipulation  |                                                 |
\*---------------------------------------------------------------------------*/
FoamFile
{
    version     2.0;
    format      ascii;
    class       volVectorField;
    location    "9";
    object      U.water;
}
// * * * * * * * * * * * * * * * * * * * * * * * * * * * * * * * * * * * * * //

dimensions      [0 1 -1 0 0 0 0];

internalField   nonuniform List<vector> 
100
(
(3.24835e-05 0 0)
(7.67583e-05 0 0)
(0.000115472 0 0)
(0.000149286 0 0)
(0.000180017 0 0)
(0.000196847 0 0)
(0.000206609 0 0)
(0.00021856 0 0)
(0.000238425 0 0)
(0.000268179 0 0)
(0.000305557 0 0)
(0.000339191 0 0)
(0.000363259 0 0)
(0.000381981 0 0)
(0.000409887 0 0)
(0.000440319 0 0)
(0.000466361 0 0)
(0.000493673 0 0)
(0.000524644 0 0)
(0.000554101 0 0)
(0.000573048 0 0)
(0.000596005 0 0)
(0.000624604 0 0)
(0.000652114 0 0)
(0.00067732 0 0)
(0.000706353 0 0)
(0.000738201 0 0)
(0.000758467 0 0)
(0.000765602 0 0)
(0.000767584 0 0)
(0.000770355 0 0)
(0.000780949 0 0)
(0.000799828 0 0)
(0.000817144 0 0)
(0.000836042 0 0)
(0.000857371 0 0)
(0.000885615 0 0)
(0.000911513 0 0)
(0.000929708 0 0)
(0.000951015 0 0)
(0.000971713 0 0)
(0.000995116 0 0)
(0.0010147 0 0)
(0.00102876 0 0)
(0.00104618 0 0)
(0.00106646 0 0)
(0.00108695 0 0)
(0.00110509 0 0)
(0.00112554 0 0)
(0.00114536 0 0)
(0.00116563 0 0)
(0.00117832 0 0)
(0.00119029 0 0)
(0.00120503 0 0)
(0.00121899 0 0)
(0.00123395 0 0)
(0.00125326 0 0)
(0.00127328 0 0)
(0.00129432 0 0)
(0.00131499 0 0)
(0.00133522 0 0)
(0.00135742 0 0)
(0.00137695 0 0)
(0.00139515 0 0)
(0.00140875 0 0)
(0.0014271 0 0)
(0.00144906 0 0)
(0.0014696 0 0)
(0.00148877 0 0)
(0.00151107 0 0)
(0.00153248 0 0)
(0.00154565 0 0)
(0.00155928 0 0)
(0.00157187 0 0)
(0.00158914 0 0)
(0.00160789 0 0)
(0.00162673 0 0)
(0.00164723 0 0)
(0.00166938 0 0)
(0.00168684 0 0)
(0.00170158 0 0)
(0.00171807 0 0)
(0.00173286 0 0)
(0.00174318 0 0)
(0.00175848 0 0)
(0.00177307 0 0)
(0.00178692 0 0)
(0.00180352 0 0)
(0.00182023 0 0)
(0.00183291 0 0)
(0.00184589 0 0)
(0.00186485 0 0)
(0.00187834 0 0)
(0.00188893 0 0)
(0.00190314 0 0)
(0.00192298 0 0)
(0.00194257 0 0)
(0.00195221 0 0)
(0.00196437 0 0)
(0.00197738 0 0)
)
;

boundaryField
{
    inlet
    {
        type            fixedValue;
        value           uniform (0 0 0);
    }
    outlet
    {
        type            zeroGradient;
    }
    yzfaces
    {
        type            empty;
    }
}


// ************************************************************************* //
