/*--------------------------------*- C++ -*----------------------------------*\
| =========                 |                                                 |
| \\      /  F ield         | foam-extend: Open Source CFD                    |
|  \\    /   O peration     | Version:     5.0                                |
|   \\  /    A nd           | Web:         http://www.foam-extend.org         |
|    \\/     M anipulation  |                                                 |
\*---------------------------------------------------------------------------*/
FoamFile
{
    version     2.0;
    format      ascii;
    class       volScalarField;
    location    "4";
    object      CO2.water;
}
// * * * * * * * * * * * * * * * * * * * * * * * * * * * * * * * * * * * * * //

dimensions      [0 0 0 0 0 0 0];

internalField   nonuniform List<scalar> 
100
(
0.00124888
0.00159281
0.00189708
0.00211625
0.00227397
0.00245007
0.00256001
0.00265527
0.00274581
0.00282507
0.00289586
0.00296721
0.00302562
0.00307947
0.00313112
0.00317118
0.00322577
0.00326903
0.00331192
0.00335907
0.00339741
0.00343579
0.00346804
0.00351402
0.00354718
0.00358306
0.00361886
0.00366127
0.00370181
0.00374332
0.00379956
0.00385144
0.00393105
0.00401889
0.00416
0.00439315
0.00490613
0.000884435
0.000349189
0.000132682
4.91934e-05
1.79424e-05
6.49104e-06
2.34338e-06
8.46942e-07
3.08493e-07
1.13525e-07
4.22006e-08
1.58588e-08
6.02424e-09
2.31089e-09
8.93186e-10
3.48368e-10
1.37082e-10
5.43888e-11
2.1826e-11
8.82836e-12
3.61358e-12
1.4986e-12
6.29145e-13
2.67442e-13
1.15429e-13
5.06255e-14
2.24945e-14
1.01446e-14
4.62789e-15
2.13656e-15
9.95888e-16
4.66463e-16
2.19509e-16
1.03459e-16
4.88773e-17
2.31054e-17
1.09104e-17
5.15669e-18
2.44048e-18
1.15557e-18
5.47696e-19
2.59468e-19
1.23357e-19
5.86373e-20
2.78969e-20
1.32955e-20
6.3373e-21
3.02216e-21
1.43883e-21
6.84288e-22
3.25287e-22
1.54347e-22
7.31819e-23
3.46625e-23
1.63329e-23
7.68769e-24
3.60475e-24
1.68623e-24
7.87874e-25
3.66835e-25
1.70571e-25
7.91337e-26
4.1526e-26
)
;

boundaryField
{
    inlet
    {
        type            fixedValue;
        value           uniform 0;
    }
    outlet
    {
        type            zeroGradient;
    }
    yzfaces
    {
        type            empty;
    }
}


// ************************************************************************* //
