/*--------------------------------*- C++ -*----------------------------------*\
| =========                 |                                                 |
| \\      /  F ield         | foam-extend: Open Source CFD                    |
|  \\    /   O peration     | Version:     5.0                                |
|   \\  /    A nd           | Web:         http://www.foam-extend.org         |
|    \\/     M anipulation  |                                                 |
\*---------------------------------------------------------------------------*/
FoamFile
{
    version     2.0;
    format      ascii;
    class       volScalarField;
    location    "4";
    object      CO2.gas;
}
// * * * * * * * * * * * * * * * * * * * * * * * * * * * * * * * * * * * * * //

dimensions      [0 0 0 0 0 0 0];

internalField   nonuniform List<scalar> 
100
(
0.152144
0.139019
0.12746
0.119083
0.113018
0.106322
0.102205
0.0978212
0.0944046
0.0914179
0.0888668
0.0865825
0.0845065
0.0825645
0.0806066
0.0784847
0.0764499
0.074616
0.0730163
0.0716783
0.070085
0.0688099
0.0670884
0.0659371
0.0645863
0.0632797
0.061835
0.0604575
0.0588301
0.0572789
0.0551802
0.0531452
0.0501982
0.0467159
0.0413508
0.032222
0.0122233
0.0264563
0.0251441
0.0241458
0.0232864
0.0224143
0.0214663
0.0204191
0.0192218
0.0179334
0.0165762
0.0151402
0.0136871
0.0122292
0.0108141
0.00942985
0.0081264
0.00690786
0.00578623
0.0047724
0.00386481
0.00307305
0.0023887
0.00181402
0.00133737
0.000953743
0.00065254
0.000426524
0.000263494
0.000152532
8.19427e-05
4.05896e-05
1.84389e-05
7.74569e-06
3.03552e-06
1.13288e-06
4.11459e-07
1.48355e-07
5.41445e-08
2.02809e-08
7.84651e-09
3.14212e-09
1.29639e-09
5.52061e-10
2.39327e-10
1.05777e-10
4.71621e-11
2.07565e-11
9.06872e-12
3.92774e-12
1.69001e-12
7.22434e-13
3.08062e-13
1.30902e-13
5.54648e-14
2.35305e-14
9.95798e-15
4.18931e-15
1.76158e-15
7.38574e-16
3.09549e-16
1.29427e-16
5.38834e-17
2.75374e-17
)
;

boundaryField
{
    inlet
    {
        type            fixedValue;
        value           uniform 0.2;
    }
    outlet
    {
        type            zeroGradient;
    }
    yzfaces
    {
        type            empty;
    }
}


// ************************************************************************* //
