/*--------------------------------*- C++ -*----------------------------------*\
| =========                 |                                                 |
| \\      /  F ield         | foam-extend: Open Source CFD                    |
|  \\    /   O peration     | Version:     5.0                                |
|   \\  /    A nd           | Web:         http://www.foam-extend.org         |
|    \\/     M anipulation  |                                                 |
\*---------------------------------------------------------------------------*/
FoamFile
{
    version     2.0;
    format      ascii;
    class       volScalarField;
    location    "4";
    object      Na.water;
}
// * * * * * * * * * * * * * * * * * * * * * * * * * * * * * * * * * * * * * //

dimensions      [0 0 0 0 0 0 0];

internalField   nonuniform List<scalar> 
100
(
0.00545996
0.00696248
0.00829399
0.00925476
0.00994295
0.0107099
0.0111822
0.0116038
0.0120059
0.0123454
0.0126482
0.012964
0.0132228
0.0134634
0.0136883
0.0138669
0.0141048
0.0142961
0.0144828
0.0146934
0.0148615
0.0150341
0.0151617
0.0153643
0.0155119
0.0156628
0.0158151
0.0160056
0.0161865
0.0163711
0.0166149
0.0168424
0.017189
0.0175763
0.0181931
0.019213
0.0214537
0.0206578
0.0208969
0.0209625
0.0209793
0.0209651
0.0209405
0.0209218
0.0208874
0.0208847
0.0208926
0.0208809
0.0208836
0.0208838
0.0209206
0.0209252
0.0209538
0.0209904
0.0210224
0.0210746
0.0211163
0.0211842
0.021235
0.0213187
0.0213976
0.0215114
0.0216348
0.0217974
0.021952
0.0221059
0.0222707
0.0224697
0.022595
0.0227193
0.0228143
0.0228864
0.0229456
0.022956
0.0229727
0.022983
0.0230043
0.0230184
0.0229987
0.023003
0.0230168
0.0229999
0.0230061
0.0229956
0.0229786
0.0229688
0.0229841
0.0230015
0.0229854
0.0229909
0.0230113
0.0229777
0.022989
0.022996
0.0230001
0.0230222
0.0230145
0.0230271
0.0230198
0.0230067
)
;

boundaryField
{
    inlet
    {
        type            fixedValue;
        value           uniform 0;
    }
    outlet
    {
        type            zeroGradient;
    }
    yzfaces
    {
        type            empty;
    }
}


// ************************************************************************* //
