/*--------------------------------*- C++ -*----------------------------------*\
| =========                 |                                                 |
| \\      /  F ield         | foam-extend: Open Source CFD                    |
|  \\    /   O peration     | Version:     5.0                                |
|   \\  /    A nd           | Web:         http://www.foam-extend.org         |
|    \\/     M anipulation  |                                                 |
\*---------------------------------------------------------------------------*/
FoamFile
{
    version     2.0;
    format      ascii;
    class       surfaceScalarField;
    location    "4";
    object      phi.water;
}
// * * * * * * * * * * * * * * * * * * * * * * * * * * * * * * * * * * * * * //

dimensions      [0 3 -1 0 0 0 0];

internalField   nonuniform List<scalar> 
99
(
1.2663e-07
1.93583e-07
2.86965e-07
3.67661e-07
4.39193e-07
5.37188e-07
6.02806e-07
6.78137e-07
7.50918e-07
8.24717e-07
8.91575e-07
9.54983e-07
1.01299e-06
1.06375e-06
1.12596e-06
1.18328e-06
1.25194e-06
1.32347e-06
1.3912e-06
1.45297e-06
1.52128e-06
1.58232e-06
1.65685e-06
1.71981e-06
1.79106e-06
1.86309e-06
1.9398e-06
2.02122e-06
2.11713e-06
2.2077e-06
2.34046e-06
2.48067e-06
2.6916e-06
2.95652e-06
3.3864e-06
4.32954e-06
4.72455e-06
4.89799e-06
4.96784e-06
4.98976e-06
4.97556e-06
4.96259e-06
4.94267e-06
4.91448e-06
4.89791e-06
4.89664e-06
4.89515e-06
4.89302e-06
4.90535e-06
4.90935e-06
4.91545e-06
4.93076e-06
4.94654e-06
4.96757e-06
4.99299e-06
5.02136e-06
5.05876e-06
5.10046e-06
5.15613e-06
5.21946e-06
5.28532e-06
5.35447e-06
5.4465e-06
5.54177e-06
5.64189e-06
5.74194e-06
5.83331e-06
5.91187e-06
5.98291e-06
6.02467e-06
6.05559e-06
6.07678e-06
6.09413e-06
6.10542e-06
6.10912e-06
6.12182e-06
6.11977e-06
6.11658e-06
6.12142e-06
6.11664e-06
6.11596e-06
6.11676e-06
6.12289e-06
6.12145e-06
6.1145e-06
6.11799e-06
6.12799e-06
6.11811e-06
6.12377e-06
6.13223e-06
6.12439e-06
6.13706e-06
6.13378e-06
6.13374e-06
6.13546e-06
6.13468e-06
6.13776e-06
6.14078e-06
6.14354e-06
)
;

boundaryField
{
    inlet
    {
        type            fixedValue;
        value           uniform 0;
    }
    outlet
    {
        type            calculated;
        value           uniform 6.13835e-06;
    }
    yzfaces
    {
        type            empty;
    }
}


// ************************************************************************* //
