/*--------------------------------*- C++ -*----------------------------------*\
| =========                 |                                                 |
| \\      /  F ield         | foam-extend: Open Source CFD                    |
|  \\    /   O peration     | Version:     5.0                                |
|   \\  /    A nd           | Web:         http://www.foam-extend.org         |
|    \\/     M anipulation  |                                                 |
\*---------------------------------------------------------------------------*/
FoamFile
{
    version     2.0;
    format      ascii;
    class       volScalarField;
    location    "5";
    object      alpha.gas;
}
// * * * * * * * * * * * * * * * * * * * * * * * * * * * * * * * * * * * * * //

dimensions      [0 0 0 0 0 0 0];

internalField   nonuniform List<scalar> 
100
(
0.156529
0.142475
0.132473
0.125892
0.120656
0.115844
0.110701
0.106399
0.102556
0.0994176
0.0966544
0.0942897
0.0919645
0.0896824
0.0877777
0.0866727
0.0848718
0.0831628
0.0814994
0.0802068
0.0787877
0.0774532
0.0761283
0.0750695
0.0739805
0.0729633
0.0717495
0.0706831
0.0697483
0.0688201
0.0678696
0.0669034
0.0660665
0.0652943
0.0644372
0.0636131
0.0628813
0.0623047
0.0615131
0.0608055
0.0600969
0.05949
0.0586957
0.0580275
0.0573695
0.0566979
0.0560816
0.0554754
0.0547736
0.0542213
0.0536737
0.0530925
0.0524891
0.0518939
0.0513922
0.0508166
0.050235
0.049686
0.0490798
0.0484576
0.047774
0.0471459
0.0465156
0.0458623
0.0451964
0.0445001
0.0438039
0.0431239
0.0424455
0.0417531
0.0410232
0.0402748
0.0395209
0.0387606
0.0379678
0.0371529
0.0363338
0.0354287
0.0344834
0.0334492
0.0323571
0.0311864
0.0299322
0.0285579
0.0270689
0.0254461
0.0237028
0.0218532
0.0199191
0.0179832
0.0161343
0.0144833
0.0131108
0.0120551
0.0113035
0.0108001
0.0104797
0.0102813
0.0101627
0.0100933
)
;

boundaryField
{
    inlet
    {
        type            fixedValue;
        value           uniform 0.2;
    }
    outlet
    {
        type            zeroGradient;
    }
    yzfaces
    {
        type            empty;
    }
}


// ************************************************************************* //
