/*--------------------------------*- C++ -*----------------------------------*\
| =========                 |                                                 |
| \\      /  F ield         | foam-extend: Open Source CFD                    |
|  \\    /   O peration     | Version:     5.0                                |
|   \\  /    A nd           | Web:         http://www.foam-extend.org         |
|    \\/     M anipulation  |                                                 |
\*---------------------------------------------------------------------------*/
FoamFile
{
    version     2.0;
    format      ascii;
    class       volScalarField;
    location    "5";
    object      CO2.gas;
}
// * * * * * * * * * * * * * * * * * * * * * * * * * * * * * * * * * * * * * //

dimensions      [0 0 0 0 0 0 0];

internalField   nonuniform List<scalar> 
100
(
0.156224
0.142198
0.132215
0.125647
0.120421
0.115619
0.110485
0.106192
0.102357
0.099224
0.0964662
0.094106
0.0917854
0.0895077
0.0876067
0.0865039
0.0847065
0.0830009
0.0813407
0.0800506
0.0786343
0.0773023
0.07598
0.0749233
0.0738364
0.0728212
0.0716098
0.0705454
0.0696124
0.0686861
0.0677375
0.0667732
0.0659378
0.0651671
0.0643117
0.0634892
0.0627588
0.0621834
0.0613933
0.0606871
0.0599799
0.0593741
0.0585814
0.0579145
0.0572578
0.0565874
0.0559724
0.0553674
0.0546669
0.0541157
0.0535691
0.0529891
0.0523869
0.0517929
0.0512921
0.0507177
0.0501372
0.0495893
0.0489842
0.0483633
0.047681
0.0470541
0.0464251
0.0457729
0.0451084
0.0444135
0.0437186
0.04304
0.0423629
0.0416718
0.0409433
0.0330646
0.029237
0.0257154
0.0223989
0.0193893
0.0166237
0.0140763
0.0117873
0.009732
0.00790691
0.00631543
0.00494228
0.0037712
0.00279685
0.00200652
0.00137959
0.000902052
0.000554759
0.000317625
0.000167259
8.05652e-05
3.53348e-05
1.42274e-05
5.35461e-06
1.92332e-06
6.76957e-07
2.394e-07
8.70351e-08
3.35861e-08
)
;

boundaryField
{
    inlet
    {
        type            fixedValue;
        value           uniform 0.2;
    }
    outlet
    {
        type            zeroGradient;
    }
    yzfaces
    {
        type            empty;
    }
}


// ************************************************************************* //
