/*--------------------------------*- C++ -*----------------------------------*\
| =========                 |                                                 |
| \\      /  F ield         | foam-extend: Open Source CFD                    |
|  \\    /   O peration     | Version:     5.0                                |
|   \\  /    A nd           | Web:         http://www.foam-extend.org         |
|    \\/     M anipulation  |                                                 |
\*---------------------------------------------------------------------------*/
FoamFile
{
    version     2.0;
    format      ascii;
    class       volScalarField;
    location    "5";
    object      CO2.water;
}
// * * * * * * * * * * * * * * * * * * * * * * * * * * * * * * * * * * * * * //

dimensions      [0 0 0 0 0 0 0];

internalField   nonuniform List<scalar> 
100
(
0.00113643
0.00152118
0.00177376
0.0019497
0.00209484
0.00223135
0.00234311
0.00245897
0.00256363
0.00265624
0.00272751
0.00278474
0.00284496
0.00290697
0.00295494
0.00298891
0.00302413
0.0030517
0.00308952
0.003137
0.00317668
0.00320832
0.00323908
0.00327399
0.00330876
0.00333793
0.00336245
0.00338485
0.00341286
0.00344088
0.00346638
0.00348957
0.00350973
0.00353381
0.00355776
0.00358001
0.00360113
0.00361809
0.00363865
0.00365781
0.00367564
0.00369581
0.00371184
0.00372986
0.00374798
0.00376389
0.00378294
0.00379896
0.00381658
0.00383146
0.00384716
0.00386357
0.00387813
0.00389083
0.00390456
0.00391847
0.00393403
0.00394942
0.00396754
0.0039824
0.00399808
0.0040148
0.0040319
0.00404909
0.00406677
0.00408483
0.00410237
0.00412091
0.0041386
0.0041561
0.00417512
0.000164925
3.44537e-05
7.49855e-06
1.708e-06
4.1202e-07
1.06041e-07
2.95265e-08
8.92168e-09
2.92497e-09
1.04307e-09
4.01662e-10
1.67513e-10
7.09378e-11
2.87767e-11
1.13251e-11
4.3365e-12
1.60992e-12
6.00047e-13
2.27639e-13
8.80101e-14
3.44732e-14
1.36794e-14
5.47376e-15
2.20147e-15
8.877e-16
3.59493e-16
1.45718e-16
5.87917e-17
2.99327e-17
)
;

boundaryField
{
    inlet
    {
        type            fixedValue;
        value           uniform 0;
    }
    outlet
    {
        type            zeroGradient;
    }
    yzfaces
    {
        type            empty;
    }
}


// ************************************************************************* //
