/*--------------------------------*- C++ -*----------------------------------*\
| =========                 |                                                 |
| \\      /  F ield         | foam-extend: Open Source CFD                    |
|  \\    /   O peration     | Version:     5.0                                |
|   \\  /    A nd           | Web:         http://www.foam-extend.org         |
|    \\/     M anipulation  |                                                 |
\*---------------------------------------------------------------------------*/
FoamFile
{
    version     2.0;
    format      ascii;
    class       volScalarField;
    location    "5";
    object      H2O.water;
}
// * * * * * * * * * * * * * * * * * * * * * * * * * * * * * * * * * * * * * //

dimensions      [0 0 0 0 0 0 0];

internalField   nonuniform List<scalar> 
100
(
0.024415
0.0326706
0.0378331
0.0412557
0.0443426
0.0474275
0.0500526
0.05321
0.0559128
0.0581307
0.0593571
0.0602598
0.061309
0.0630463
0.0637954
0.0641133
0.0647627
0.0652838
0.0664767
0.067727
0.0684981
0.0691542
0.0698211
0.0705903
0.0714215
0.0717808
0.072436
0.073024
0.0737421
0.0742643
0.0747366
0.0751044
0.0753357
0.0761054
0.0765353
0.0770567
0.0774524
0.0777479
0.0782665
0.0786442
0.0789488
0.0795225
0.0797178
0.0801825
0.0806652
0.0808531
0.0813492
0.0815973
0.0820503
0.082257
0.0824839
0.0829871
0.083199
0.0833404
0.0837421
0.0841665
0.084654
0.0848238
0.0854271
0.0856186
0.0859492
0.086403
0.0868095
0.0871762
0.0875183
0.0879005
0.0883046
0.0887874
0.0891115
0.0894382
0.0898465
0.0923353
0.0928048
0.0933014
0.0937437
0.0943245
0.0948183
0.0953776
0.0959228
0.0965561
0.0972318
0.0979338
0.098704
0.0993807
0.100283
0.101075
0.102109
0.103188
0.104315
0.105415
0.106527
0.107561
0.10835
0.108896
0.109254
0.10953
0.109825
0.109911
0.109996
0.110091
)
;

boundaryField
{
    inlet
    {
        type            fixedValue;
        value           uniform 0;
    }
    outlet
    {
        type            zeroGradient;
    }
    yzfaces
    {
        type            empty;
    }
}


// ************************************************************************* //
