/*--------------------------------*- C++ -*----------------------------------*\
| =========                 |                                                 |
| \\      /  F ield         | foam-extend: Open Source CFD                    |
|  \\    /   O peration     | Version:     5.0                                |
|   \\  /    A nd           | Web:         http://www.foam-extend.org         |
|    \\/     M anipulation  |                                                 |
\*---------------------------------------------------------------------------*/
FoamFile
{
    version     2.0;
    format      ascii;
    class       volScalarField;
    location    "5";
    object      H2O.gas;
}
// * * * * * * * * * * * * * * * * * * * * * * * * * * * * * * * * * * * * * //

dimensions      [0 0 0 0 0 0 0];

internalField   nonuniform List<scalar> 
100
(
0.00030523
0.000276701
0.000257973
0.000244927
0.000234166
0.000224043
0.000215757
0.000207166
0.000199405
0.000192539
0.000187254
0.00018301
0.000178545
0.000173947
0.00017039
0.000167872
0.00016526
0.000163216
0.000160411
0.000156891
0.000153949
0.000151602
0.000149322
0.000146734
0.000144156
0.000141992
0.000140174
0.000138513
0.000136437
0.000134359
0.000132468
0.000130748
0.000129254
0.000127468
0.000125692
0.000124043
0.000122477
0.000121219
0.000119695
0.000118274
0.000116951
0.000115456
0.000114268
0.000112931
0.000111588
0.000110408
0.000108996
0.000107808
0.000106501
0.000105398
0.000104234
0.000103017
0.000101937
0.000100996
9.99777e-05
9.8946e-05
9.77926e-05
9.66515e-05
9.53081e-05
9.42059e-05
9.30431e-05
9.18037e-05
9.05355e-05
8.92611e-05
8.79501e-05
8.6611e-05
8.53106e-05
8.39358e-05
8.26237e-05
8.13265e-05
7.99158e-05
0.00720401
0.0102946
0.0131107
0.0156159
0.0178614
0.0197969
0.0214554
0.0227759
0.023818
0.0245433
0.0249629
0.0250716
0.0248163
0.0242925
0.0234318
0.0222976
0.020914
0.0193209
0.0176141
0.0159143
0.0143614
0.0130392
0.0120102
0.0112741
0.0107832
0.010482
0.0102875
0.0101753
0.0101104
)
;

boundaryField
{
    inlet
    {
        type            fixedValue;
        value           uniform 0;
    }
    outlet
    {
        type            zeroGradient;
    }
    yzfaces
    {
        type            empty;
    }
}


// ************************************************************************* //
