/*--------------------------------*- C++ -*----------------------------------*\
| =========                 |                                                 |
| \\      /  F ield         | foam-extend: Open Source CFD                    |
|  \\    /   O peration     | Version:     5.0                                |
|   \\  /    A nd           | Web:         http://www.foam-extend.org         |
|    \\/     M anipulation  |                                                 |
\*---------------------------------------------------------------------------*/
FoamFile
{
    version     2.0;
    format      ascii;
    class       volScalarField;
    location    "5";
    object      Na.water;
}
// * * * * * * * * * * * * * * * * * * * * * * * * * * * * * * * * * * * * * //

dimensions      [0 0 0 0 0 0 0];

internalField   nonuniform List<scalar> 
100
(
0.00885852
0.0118646
0.0139661
0.0155184
0.0166684
0.0176554
0.01841
0.0189718
0.019565
0.02017
0.0208818
0.0214929
0.0220755
0.0223596
0.0228745
0.0233469
0.0236617
0.0239197
0.0240219
0.0242802
0.024635
0.0248876
0.0251297
0.0254018
0.0256384
0.0259956
0.026121
0.0262402
0.0264018
0.0266607
0.0269029
0.0271425
0.0273996
0.0274628
0.0276897
0.0278401
0.0280397
0.0281997
0.0283238
0.0284952
0.0286715
0.028751
0.0289565
0.0290648
0.0291561
0.029344
0.0294479
0.0296251
0.0297309
0.029904
0.0300805
0.0301317
0.0302805
0.030455
0.0305095
0.0305575
0.0306005
0.0308013
0.0308272
0.0310034
0.0311269
0.0312186
0.0313335
0.0314655
0.0316184
0.0317625
0.0318911
0.0319973
0.0321593
0.0323188
0.0324611
0.0335662
0.0337458
0.0339415
0.0340866
0.0342913
0.0344543
0.0346737
0.0348663
0.0351015
0.035338
0.0355889
0.0358578
0.0361027
0.0364208
0.0367337
0.0371153
0.0375258
0.0379325
0.0383422
0.0387314
0.0391091
0.0393901
0.0395958
0.039743
0.0398282
0.0399249
0.0399403
0.0399801
0.0399926
)
;

boundaryField
{
    inlet
    {
        type            fixedValue;
        value           uniform 0;
    }
    outlet
    {
        type            zeroGradient;
    }
    yzfaces
    {
        type            empty;
    }
}


// ************************************************************************* //
