/*--------------------------------*- C++ -*----------------------------------*\
| =========                 |                                                 |
| \\      /  F ield         | foam-extend: Open Source CFD                    |
|  \\    /   O peration     | Version:     5.0                                |
|   \\  /    A nd           | Web:         http://www.foam-extend.org         |
|    \\/     M anipulation  |                                                 |
\*---------------------------------------------------------------------------*/
FoamFile
{
    version     2.0;
    format      ascii;
    class       volScalarField;
    location    "5";
    object      Na.water;
}
// * * * * * * * * * * * * * * * * * * * * * * * * * * * * * * * * * * * * * //

dimensions      [0 0 0 0 0 0 0];

internalField   nonuniform List<scalar> 
100
(
0.00880925
0.0118956
0.0140812
0.0157273
0.0166401
0.0176447
0.0183618
0.018986
0.0196771
0.0203508
0.0210007
0.0214541
0.0218684
0.0223445
0.0227209
0.0231113
0.0234556
0.0236691
0.0239934
0.0244775
0.024699
0.0249802
0.025247
0.0255066
0.0257178
0.0259211
0.0261072
0.0263577
0.02656
0.0267848
0.0269177
0.0271422
0.0273469
0.027502
0.0276327
0.0277895
0.0279632
0.0282097
0.0283329
0.0285189
0.02856
0.0287089
0.0288478
0.0290109
0.0291072
0.0292135
0.0293824
0.0295224
0.0296422
0.0298847
0.0300535
0.0301948
0.0302888
0.0303525
0.0304831
0.0305598
0.0307054
0.0308406
0.030909
0.0310029
0.0310645
0.0312032
0.0313446
0.0314476
0.0315672
0.0317061
0.0318359
0.0320177
0.0321435
0.0322867
0.0324289
0.0335435
0.033746
0.0339477
0.034092
0.0342949
0.0344599
0.0346406
0.0348629
0.035082
0.0352925
0.0355434
0.0358087
0.0360952
0.0364018
0.0367818
0.0371511
0.0375478
0.0379535
0.038343
0.0386949
0.0390782
0.0393641
0.0395712
0.0397332
0.0398526
0.0399309
0.0399409
0.0399571
0.0400068
)
;

boundaryField
{
    inlet
    {
        type            fixedValue;
        value           uniform 0;
    }
    outlet
    {
        type            zeroGradient;
    }
    yzfaces
    {
        type            empty;
    }
}


// ************************************************************************* //
