/*--------------------------------*- C++ -*----------------------------------*\
| =========                 |                                                 |
| \\      /  F ield         | foam-extend: Open Source CFD                    |
|  \\    /   O peration     | Version:     5.0                                |
|   \\  /    A nd           | Web:         http://www.foam-extend.org         |
|    \\/     M anipulation  |                                                 |
\*---------------------------------------------------------------------------*/
FoamFile
{
    version     2.0;
    format      ascii;
    class       volVectorField;
    location    "5";
    object      U.gas;
}
// * * * * * * * * * * * * * * * * * * * * * * * * * * * * * * * * * * * * * //

dimensions      [0 1 -1 0 0 0 0];

internalField   nonuniform List<vector> 
100
(
(0.00636853 0 0)
(0.00696086 0 0)
(0.00741973 0 0)
(0.00777013 0 0)
(0.00804292 0 0)
(0.00833152 0 0)
(0.00858395 0 0)
(0.00887665 0 0)
(0.00912622 0 0)
(0.00938889 0 0)
(0.00958241 0 0)
(0.00971381 0 0)
(0.00989042 0 0)
(0.0100895 0 0)
(0.0102591 0 0)
(0.0103931 0 0)
(0.010571 0 0)
(0.0106554 0 0)
(0.0107342 0 0)
(0.0108914 0 0)
(0.0110418 0 0)
(0.0111444 0 0)
(0.0111886 0 0)
(0.0112597 0 0)
(0.0113664 0 0)
(0.0114613 0 0)
(0.0115487 0 0)
(0.0116125 0 0)
(0.0116964 0 0)
(0.0117885 0 0)
(0.0118775 0 0)
(0.0119269 0 0)
(0.0119479 0 0)
(0.0120061 0 0)
(0.0120619 0 0)
(0.0121211 0 0)
(0.0121935 0 0)
(0.0122333 0 0)
(0.0122988 0 0)
(0.0123591 0 0)
(0.0124029 0 0)
(0.0124728 0 0)
(0.0125132 0 0)
(0.0125645 0 0)
(0.0126182 0 0)
(0.0126522 0 0)
(0.0126809 0 0)
(0.0126948 0 0)
(0.012754 0 0)
(0.012782 0 0)
(0.0128124 0 0)
(0.0128533 0 0)
(0.0128834 0 0)
(0.012889 0 0)
(0.012891 0 0)
(0.0128788 0 0)
(0.0128547 0 0)
(0.0128438 0 0)
(0.0128795 0 0)
(0.0128713 0 0)
(0.0128576 0 0)
(0.0128461 0 0)
(0.0128274 0 0)
(0.0127971 0 0)
(0.0127845 0 0)
(0.0127841 0 0)
(0.0127696 0 0)
(0.0127689 0 0)
(0.0127499 0 0)
(0.0127117 0 0)
(0.0126836 0 0)
(0.0126607 0 0)
(0.0126334 0 0)
(0.0125906 0 0)
(0.012554 0 0)
(0.0124957 0 0)
(0.0124273 0 0)
(0.0123439 0 0)
(0.0122495 0 0)
(0.0121331 0 0)
(0.0120079 0 0)
(0.0118455 0 0)
(0.0116444 0 0)
(0.0114057 0 0)
(0.0111126 0 0)
(0.0107584 0 0)
(0.010345 0 0)
(0.00984352 0 0)
(0.00925482 0 0)
(0.00858734 0 0)
(0.0078628 0 0)
(0.00712704 0 0)
(0.00642647 0 0)
(0.00582424 0 0)
(0.00535609 0 0)
(0.00502141 0 0)
(0.00480158 0 0)
(0.00466021 0 0)
(0.00457236 0 0)
(0.00452271 0 0)
)
;

boundaryField
{
    inlet
    {
        type            fixedValue;
        value           uniform (0.005 0 0);
    }
    outlet
    {
        type            zeroGradient;
    }
    yzfaces
    {
        type            empty;
    }
}


// ************************************************************************* //
