/*--------------------------------*- C++ -*----------------------------------*\
| =========                 |                                                 |
| \\      /  F ield         | foam-extend: Open Source CFD                    |
|  \\    /   O peration     | Version:     5.0                                |
|   \\  /    A nd           | Web:         http://www.foam-extend.org         |
|    \\/     M anipulation  |                                                 |
\*---------------------------------------------------------------------------*/
FoamFile
{
    version     2.0;
    format      ascii;
    class       volScalarField;
    location    "10";
    object      alpha.gas;
}
// * * * * * * * * * * * * * * * * * * * * * * * * * * * * * * * * * * * * * //

dimensions      [0 0 0 0 0 0 0];

internalField   nonuniform List<scalar> 
100
(
0.173124
0.149898
0.132623
0.121983
0.111292
0.106568
0.105599
0.103802
0.106499
0.0990941
0.0986748
0.0993877
0.098216
0.0978871
0.0960258
0.0991869
0.099667
0.0995984
0.0977161
0.0925876
0.0924542
0.0995291
0.0961784
0.0982962
0.0967273
0.090359
0.0883504
0.0811288
0.0792567
0.0801902
0.0826635
0.0802096
0.0800094
0.0789369
0.0787748
0.0783297
0.0805438
0.0800204
0.0790658
0.0775574
0.076657
0.0771496
0.0733503
0.0732067
0.0730849
0.0734633
0.0737888
0.0743125
0.0733319
0.0703764
0.0726706
0.0716214
0.0702587
0.0684894
0.0675069
0.0687416
0.0689085
0.0669371
0.0666463
0.0688586
0.0682756
0.0675956
0.0679995
0.0653958
0.0630905
0.0637196
0.0636529
0.0634084
0.0618234
0.061514
0.0609771
0.0605321
0.0608948
0.0614601
0.0604689
0.060039
0.0577767
0.0568164
0.0569151
0.0542318
0.0509659
0.0523682
0.0490183
0.0466987
0.0453499
0.0458129
0.0441421
0.0412318
0.0363807
0.0251456
0.0217822
0.021665
0.0221394
0.022603
0.022962
0.0232018
0.0233644
0.0234838
0.0235686
0.0236422
)
;

boundaryField
{
    inlet
    {
        type            fixedValue;
        value           uniform 0.2;
    }
    outlet
    {
        type            zeroGradient;
    }
    yzfaces
    {
        type            empty;
    }
}


// ************************************************************************* //
