/*--------------------------------*- C++ -*----------------------------------*\
| =========                 |                                                 |
| \\      /  F ield         | foam-extend: Open Source CFD                    |
|  \\    /   O peration     | Version:     5.0                                |
|   \\  /    A nd           | Web:         http://www.foam-extend.org         |
|    \\/     M anipulation  |                                                 |
\*---------------------------------------------------------------------------*/
FoamFile
{
    version     2.0;
    format      ascii;
    class       volScalarField;
    location    "10";
    object      CO2.water;
}
// * * * * * * * * * * * * * * * * * * * * * * * * * * * * * * * * * * * * * //

dimensions      [0 0 0 0 0 0 0];

internalField   nonuniform List<scalar> 
100
(
0.000705893
0.00131591
0.00176963
0.00204908
0.00232987
0.00245395
0.00247939
0.0025266
0.00245577
0.00265025
0.00266126
0.00264254
0.00267331
0.00268195
0.00273084
0.00264781
0.0026352
0.002637
0.00268644
0.00282114
0.00282464
0.00263882
0.00272683
0.0026712
0.00271241
0.00287967
0.00293243
0.0031221
0.00317127
0.00314675
0.00308179
0.00314624
0.0031515
0.00317967
0.00318392
0.00319561
0.00313746
0.00315121
0.00317628
0.0032159
0.00323955
0.00322661
0.0033264
0.00333017
0.00333337
0.00332343
0.00331488
0.00330113
0.00332688
0.0034045
0.00334425
0.0033718
0.0034076
0.00345407
0.00347987
0.00344744
0.00344306
0.00349484
0.00350247
0.00344437
0.00345968
0.00347754
0.00346693
0.00353532
0.00359587
0.00357934
0.00358109
0.00358752
0.00362914
0.00363727
0.00365137
0.00366306
0.00365353
0.00363869
0.00366472
0.00367601
0.00373543
0.00376065
0.00375806
0.00382853
0.00391431
0.00387748
0.00396546
0.00402639
0.00406181
0.00404965
0.00409354
0.00416997
0.00429739
0.00459247
0.00206819
0.00079823
0.000292454
0.000105421
3.80083e-05
1.37503e-05
5.00384e-06
1.82792e-06
6.69065e-07
2.46724e-07
)
;

boundaryField
{
    inlet
    {
        type            fixedValue;
        value           uniform 0;
    }
    outlet
    {
        type            zeroGradient;
    }
    yzfaces
    {
        type            empty;
    }
}


// ************************************************************************* //
