/*--------------------------------*- C++ -*----------------------------------*\
| =========                 |                                                 |
| \\      /  F ield         | foam-extend: Open Source CFD                    |
|  \\    /   O peration     | Version:     5.0                                |
|   \\  /    A nd           | Web:         http://www.foam-extend.org         |
|    \\/     M anipulation  |                                                 |
\*---------------------------------------------------------------------------*/
FoamFile
{
    version     2.0;
    format      ascii;
    class       volScalarField;
    location    "10";
    object      CO2.gas;
}
// * * * * * * * * * * * * * * * * * * * * * * * * * * * * * * * * * * * * * //

dimensions      [0 0 0 0 0 0 0];

internalField   nonuniform List<scalar> 
100
(
0.172787
0.149606
0.132365
0.121746
0.111076
0.10636
0.105394
0.1036
0.106291
0.0989011
0.0984826
0.0991942
0.0980247
0.0976964
0.0958387
0.0989937
0.0994729
0.0994045
0.0975258
0.0924073
0.0922742
0.0993353
0.0959911
0.0981048
0.096539
0.090183
0.0881783
0.0809708
0.0791024
0.080034
0.0825025
0.0800534
0.0798536
0.0787832
0.0786214
0.0781772
0.080387
0.0798646
0.0789118
0.0774064
0.0765077
0.0769994
0.0732075
0.0730641
0.0729425
0.0733202
0.0736451
0.0741677
0.0731891
0.0702393
0.0725291
0.0714819
0.0701219
0.068356
0.0673755
0.0686077
0.0687743
0.0668067
0.0665165
0.0687245
0.0681426
0.067464
0.067867
0.0652684
0.0629676
0.0635955
0.0635289
0.0632849
0.061703
0.0613942
0.0608583
0.0604142
0.0607762
0.0613404
0.0603511
0.0599221
0.0576642
0.0567057
0.0568042
0.0541262
0.0508666
0.0522662
0.0489229
0.0466078
0.0452616
0.0457237
0.0440561
0.0411515
0.0363099
0.0250966
0.0215202
0.0211734
0.0213848
0.0215367
0.0215416
0.0213781
0.021122
0.0207761
0.0203514
0.0198864
)
;

boundaryField
{
    inlet
    {
        type            fixedValue;
        value           uniform 0.2;
    }
    outlet
    {
        type            zeroGradient;
    }
    yzfaces
    {
        type            empty;
    }
}


// ************************************************************************* //
