/*--------------------------------*- C++ -*----------------------------------*\
| =========                 |                                                 |
| \\      /  F ield         | foam-extend: Open Source CFD                    |
|  \\    /   O peration     | Version:     5.0                                |
|   \\  /    A nd           | Web:         http://www.foam-extend.org         |
|    \\/     M anipulation  |                                                 |
\*---------------------------------------------------------------------------*/
FoamFile
{
    version     2.0;
    format      ascii;
    class       volScalarField;
    location    "10";
    object      H2O.gas;
}
// * * * * * * * * * * * * * * * * * * * * * * * * * * * * * * * * * * * * * //

dimensions      [0 0 0 0 0 0 0];

internalField   nonuniform List<scalar> 
100
(
0.000337153
0.000291922
0.000258279
0.000237558
0.000216739
0.000207538
0.000205652
0.000202151
0.000207403
0.000192983
0.000192166
0.000193555
0.000191273
0.000190632
0.000187007
0.000193164
0.000194099
0.000193965
0.000190299
0.000180312
0.000180052
0.00019383
0.000187305
0.000191429
0.000188374
0.000175971
0.00017206
0.000157996
0.00015435
0.000156168
0.000160985
0.000156206
0.000155816
0.000153727
0.000153412
0.000152545
0.000156857
0.000155837
0.000153978
0.000151041
0.000149287
0.000150247
0.000142848
0.000142568
0.000142331
0.000143068
0.000143702
0.000144721
0.000142812
0.000137056
0.000141524
0.000139481
0.000136827
0.000133381
0.000131468
0.000133872
0.000134197
0.000130358
0.000129792
0.0001341
0.000132965
0.000131641
0.000132427
0.000127356
0.000122867
0.000124092
0.000123962
0.000123486
0.000120399
0.000119797
0.000118751
0.000117885
0.000118591
0.000119692
0.000117761
0.000116924
0.000112518
0.000110648
0.00011084
0.000105615
9.92546e-05
0.000101985
9.54618e-05
9.09444e-05
8.83177e-05
8.92193e-05
8.59654e-05
8.02978e-05
7.08504e-05
4.89702e-05
0.00024665
0.000494504
0.000772363
0.00108491
0.00143531
0.00182326
0.0022532
0.00272168
0.00322537
0.00376762
)
;

boundaryField
{
    inlet
    {
        type            fixedValue;
        value           uniform 0;
    }
    outlet
    {
        type            zeroGradient;
    }
    yzfaces
    {
        type            empty;
    }
}


// ************************************************************************* //
