/*--------------------------------*- C++ -*----------------------------------*\
| =========                 |                                                 |
| \\      /  F ield         | foam-extend: Open Source CFD                    |
|  \\    /   O peration     | Version:     5.0                                |
|   \\  /    A nd           | Web:         http://www.foam-extend.org         |
|    \\/     M anipulation  |                                                 |
\*---------------------------------------------------------------------------*/
FoamFile
{
    version     2.0;
    format      ascii;
    class       surfaceScalarField;
    location    "10";
    object      phi;
}
// * * * * * * * * * * * * * * * * * * * * * * * * * * * * * * * * * * * * * //

dimensions      [0 3 -1 0 0 0 0];

internalField   nonuniform List<scalar> 
99
(
1.22125e-06
1.21044e-06
1.20987e-06
1.21711e-06
1.20853e-06
1.2117e-06
1.20573e-06
1.20399e-06
1.20761e-06
1.20289e-06
1.20469e-06
1.20855e-06
1.20638e-06
1.20688e-06
1.20422e-06
1.20559e-06
1.20789e-06
1.21416e-06
1.21732e-06
1.21751e-06
1.21661e-06
1.21647e-06
1.21868e-06
1.21921e-06
1.21838e-06
1.21588e-06
1.22329e-06
1.22302e-06
1.21845e-06
1.22003e-06
1.22165e-06
1.22253e-06
1.22173e-06
1.22449e-06
1.2194e-06
1.22036e-06
1.2234e-06
1.22438e-06
1.22395e-06
1.22379e-06
1.22493e-06
1.22556e-06
1.22494e-06
1.22466e-06
1.22672e-06
1.2248e-06
1.22449e-06
1.22548e-06
1.2266e-06
1.22451e-06
1.22284e-06
1.22685e-06
1.22588e-06
1.22522e-06
1.22679e-06
1.22655e-06
1.23083e-06
1.23134e-06
1.23138e-06
1.23174e-06
1.2305e-06
1.23024e-06
1.23194e-06
1.23191e-06
1.22984e-06
1.23114e-06
1.22931e-06
1.23039e-06
1.23126e-06
1.22882e-06
1.22592e-06
1.22398e-06
1.22445e-06
1.22374e-06
1.22454e-06
1.2265e-06
1.22507e-06
1.22447e-06
1.22718e-06
1.22675e-06
1.22458e-06
1.22799e-06
1.22777e-06
1.22656e-06
1.2234e-06
1.22199e-06
1.22151e-06
1.22058e-06
1.22072e-06
1.22141e-06
1.22333e-06
1.2255e-06
1.22379e-06
1.22457e-06
1.22364e-06
1.22409e-06
1.22485e-06
1.22522e-06
1.22426e-06
)
;

boundaryField
{
    inlet
    {
        type            calculated;
        value           uniform -1.225e-06;
    }
    outlet
    {
        type            calculated;
        value           uniform 1.22231e-06;
    }
    yzfaces
    {
        type            empty;
    }
}


// ************************************************************************* //
