/*--------------------------------*- C++ -*----------------------------------*\
| =========                 |                                                 |
| \\      /  F ield         | foam-extend: Open Source CFD                    |
|  \\    /   O peration     | Version:     5.0                                |
|   \\  /    A nd           | Web:         http://www.foam-extend.org         |
|    \\/     M anipulation  |                                                 |
\*---------------------------------------------------------------------------*/
FoamFile
{
    version     2.0;
    format      ascii;
    class       volVectorField;
    location    "10";
    object      U.gas;
}
// * * * * * * * * * * * * * * * * * * * * * * * * * * * * * * * * * * * * * //

dimensions      [0 1 -1 0 0 0 0];

internalField   nonuniform List<vector> 
100
(
(0.00574403 0 0)
(0.0065667 0 0)
(0.00738782 0 0)
(0.00800594 0 0)
(0.00858891 0 0)
(0.00897405 0 0)
(0.00888684 0 0)
(0.00894357 0 0)
(0.00891008 0 0)
(0.00925971 0 0)
(0.00950291 0 0)
(0.0093618 0 0)
(0.00942029 0 0)
(0.00946399 0 0)
(0.00959985 0 0)
(0.00938543 0 0)
(0.00943163 0 0)
(0.00952305 0 0)
(0.00957558 0 0)
(0.00989911 0 0)
(0.00987428 0 0)
(0.00935729 0 0)
(0.009674 0 0)
(0.00959274 0 0)
(0.00958925 0 0)
(0.0101823 0 0)
(0.0105354 0 0)
(0.011017 0 0)
(0.0111164 0 0)
(0.0109552 0 0)
(0.0108412 0 0)
(0.0111315 0 0)
(0.0110213 0 0)
(0.0112068 0 0)
(0.0110148 0 0)
(0.0112328 0 0)
(0.0109887 0 0)
(0.0111973 0 0)
(0.0110972 0 0)
(0.0113654 0 0)
(0.01142 0 0)
(0.0114161 0 0)
(0.0116962 0 0)
(0.0117221 0 0)
(0.0117307 0 0)
(0.0116234 0 0)
(0.0116436 0 0)
(0.0116498 0 0)
(0.0116848 0 0)
(0.0118491 0 0)
(0.0117461 0 0)
(0.0119067 0 0)
(0.0119888 0 0)
(0.0120691 0 0)
(0.0121544 0 0)
(0.0121242 0 0)
(0.012131 0 0)
(0.0123194 0 0)
(0.0122188 0 0)
(0.0120976 0 0)
(0.012162 0 0)
(0.0121953 0 0)
(0.0123192 0 0)
(0.0124017 0 0)
(0.0125394 0 0)
(0.0124869 0 0)
(0.0125302 0 0)
(0.0125993 0 0)
(0.0126946 0 0)
(0.0126648 0 0)
(0.0125993 0 0)
(0.012749 0 0)
(0.0125788 0 0)
(0.0127438 0 0)
(0.0126279 0 0)
(0.012874 0 0)
(0.0129912 0 0)
(0.0130109 0 0)
(0.0129887 0 0)
(0.0133392 0 0)
(0.0133596 0 0)
(0.0134237 0 0)
(0.0134259 0 0)
(0.0134977 0 0)
(0.0133953 0 0)
(0.0133597 0 0)
(0.0135122 0 0)
(0.0136228 0 0)
(0.0138908 0 0)
(0.0146468 0 0)
(0.0106109 0 0)
(0.00955796 0 0)
(0.00949138 0 0)
(0.00964855 0 0)
(0.00980811 0 0)
(0.00992852 0 0)
(0.0100108 0 0)
(0.0100668 0 0)
(0.0101043 0 0)
(0.0101181 0 0)
)
;

boundaryField
{
    inlet
    {
        type            fixedValue;
        value           uniform (0.005 0 0);
    }
    outlet
    {
        type            zeroGradient;
    }
    yzfaces
    {
        type            empty;
    }
}


// ************************************************************************* //
