/*--------------------------------*- C++ -*----------------------------------*\
| =========                 |                                                 |
| \\      /  F ield         | foam-extend: Open Source CFD                    |
|  \\    /   O peration     | Version:     5.0                                |
|   \\  /    A nd           | Web:         http://www.foam-extend.org         |
|    \\/     M anipulation  |                                                 |
\*---------------------------------------------------------------------------*/
FoamFile
{
    version     2.0;
    format      ascii;
    class       volVectorField;
    location    "10";
    object      U.water;
}
// * * * * * * * * * * * * * * * * * * * * * * * * * * * * * * * * * * * * * //

dimensions      [0 1 -1 0 0 0 0];

internalField   nonuniform List<vector> 
100
(
(2.47151e-05 0 0)
(7.41246e-05 0 0)
(0.000151636 0 0)
(0.000239219 0 0)
(0.000321061 0 0)
(0.00040367 0 0)
(0.000449773 0 0)
(0.000448121 0 0)
(0.000455612 0 0)
(0.000471276 0 0)
(0.000528224 0 0)
(0.000556743 0 0)
(0.000543498 0 0)
(0.000551087 0 0)
(0.000566478 0 0)
(0.000573581 0 0)
(0.000550512 0 0)
(0.000557122 0 0)
(0.000568091 0 0)
(0.000591252 0 0)
(0.000631423 0 0)
(0.000605138 0 0)
(0.000554476 0 0)
(0.000580736 0 0)
(0.000572551 0 0)
(0.000611749 0 0)
(0.000719901 0 0)
(0.000820599 0 0)
(0.000912141 0 0)
(0.000937591 0 0)
(0.000911998 0 0)
(0.000910622 0 0)
(0.000942798 0 0)
(0.000948987 0 0)
(0.000961761 0 0)
(0.000956037 0 0)
(0.000970904 0 0)
(0.000950347 0 0)
(0.000966309 0 0)
(0.000978026 0 0)
(0.001029 0 0)
(0.00104984 0 0)
(0.00107947 0 0)
(0.00113744 0 0)
(0.00116063 0 0)
(0.0011565 0 0)
(0.0011386 0 0)
(0.0011397 0 0)
(0.00114343 0 0)
(0.00116426 0 0)
(0.00119058 0 0)
(0.00120158 0 0)
(0.00123921 0 0)
(0.00127148 0 0)
(0.00130865 0 0)
(0.00133283 0 0)
(0.00133465 0 0)
(0.001354 0 0)
(0.00137994 0 0)
(0.00135642 0 0)
(0.00133092 0 0)
(0.00133782 0 0)
(0.00136319 0 0)
(0.00140436 0 0)
(0.00145097 0 0)
(0.00149301 0 0)
(0.00150469 0 0)
(0.00152766 0 0)
(0.00156526 0 0)
(0.00159545 0 0)
(0.00159751 0 0)
(0.00161211 0 0)
(0.00163581 0 0)
(0.00163451 0 0)
(0.00165452 0 0)
(0.00167057 0 0)
(0.0017441 0 0)
(0.00181222 0 0)
(0.0018548 0 0)
(0.00192333 0 0)
(0.00205036 0 0)
(0.00215915 0 0)
(0.00225645 0 0)
(0.002343 0 0)
(0.00242434 0 0)
(0.00247443 0 0)
(0.0025545 0 0)
(0.00271436 0 0)
(0.00300498 0 0)
(0.00363633 0 0)
(0.00430218 0 0)
(0.00444361 0 0)
(0.00443931 0 0)
(0.00440395 0 0)
(0.00437227 0 0)
(0.00434797 0 0)
(0.00433474 0 0)
(0.00432609 0 0)
(0.00431696 0 0)
(0.00430594 0 0)
)
;

boundaryField
{
    inlet
    {
        type            fixedValue;
        value           uniform (0 0 0);
    }
    outlet
    {
        type            zeroGradient;
    }
    yzfaces
    {
        type            empty;
    }
}


// ************************************************************************* //
