/*--------------------------------*- C++ -*----------------------------------*\
| =========                 |                                                 |
| \\      /  F ield         | foam-extend: Open Source CFD                    |
|  \\    /   O peration     | Version:     5.0                                |
|   \\  /    A nd           | Web:         http://www.foam-extend.org         |
|    \\/     M anipulation  |                                                 |
\*---------------------------------------------------------------------------*/
FoamFile
{
    version     2.0;
    format      ascii;
    class       volScalarField;
    location    "5";
    object      alpha.gas;
}
// * * * * * * * * * * * * * * * * * * * * * * * * * * * * * * * * * * * * * //

dimensions      [0 0 0 0 0 0 0];

internalField   nonuniform List<scalar> 
100
(
0.156666
0.142448
0.134605
0.126464
0.122467
0.1156
0.10971
0.105558
0.101744
0.0987587
0.096177
0.0936394
0.0912148
0.0889668
0.0867621
0.0851892
0.0834285
0.0820427
0.0803574
0.0788227
0.0770145
0.0755162
0.0743061
0.0729623
0.071581
0.0704959
0.0692619
0.0678446
0.0668719
0.0657181
0.0642888
0.0628135
0.0613119
0.0595814
0.0577561
0.0555664
0.0533033
0.0502588
0.0458719
0.0391085
0.0268081
0.0368413
0.0361468
0.0356666
0.0352523
0.0349253
0.0346334
0.0343472
0.0341221
0.0339728
0.0338247
0.0337052
0.0336093
0.0335612
0.0335538
0.0335502
0.0335725
0.0335788
0.0336318
0.0336673
0.0336892
0.0337173
0.0337764
0.033796
0.0338307
0.0338023
0.0337749
0.0336648
0.0335344
0.0333675
0.0331619
0.0328921
0.0325527
0.0321743
0.0317052
0.0311527
0.030527
0.029775
0.0289356
0.0279932
0.0268924
0.0256665
0.0242978
0.0227623
0.0211098
0.0193531
0.0175679
0.0158473
0.0142954
0.0129901
0.0119895
0.0112712
0.0107875
0.0104752
0.0102829
0.0101712
0.0101022
0.0100622
0.0100353
0.0100226
)
;

boundaryField
{
    inlet
    {
        type            fixedValue;
        value           uniform 0.2;
    }
    outlet
    {
        type            zeroGradient;
    }
    yzfaces
    {
        type            empty;
    }
}


// ************************************************************************* //
