/*--------------------------------*- C++ -*----------------------------------*\
| =========                 |                                                 |
| \\      /  F ield         | foam-extend: Open Source CFD                    |
|  \\    /   O peration     | Version:     5.0                                |
|   \\  /    A nd           | Web:         http://www.foam-extend.org         |
|    \\/     M anipulation  |                                                 |
\*---------------------------------------------------------------------------*/
FoamFile
{
    version     2.0;
    format      ascii;
    class       volScalarField;
    location    "5";
    object      Cl.water;
}
// * * * * * * * * * * * * * * * * * * * * * * * * * * * * * * * * * * * * * //

dimensions      [0 0 0 0 0 0 0];

internalField   nonuniform List<scalar> 
100
(
0.00495532
0.00651959
0.00749656
0.00844423
0.00885111
0.00966994
0.0103578
0.0108033
0.0112579
0.0115729
0.0119135
0.0121447
0.0124544
0.0127314
0.0129933
0.0131804
0.0133781
0.0135458
0.0137029
0.0138401
0.0140587
0.0142425
0.0144071
0.0145565
0.0147045
0.014863
0.0149766
0.0151671
0.0152865
0.0154184
0.0155532
0.0157301
0.015905
0.0160969
0.0163189
0.0165862
0.0168227
0.0171497
0.017617
0.0182834
0.0195509
0.0187525
0.0188231
0.0188678
0.0189207
0.0189501
0.0189786
0.0190273
0.0190487
0.0190561
0.0190748
0.0191006
0.019107
0.0191114
0.0191067
0.0191188
0.0191111
0.0191162
0.0191053
0.0191009
0.0191121
0.0191153
0.0190873
0.019101
0.019082
0.0190946
0.0190871
0.0191075
0.0191205
0.019129
0.0191504
0.019184
0.0192275
0.0192525
0.0193104
0.0193884
0.0194465
0.0195464
0.0196475
0.0197416
0.0198826
0.0200163
0.0201765
0.020358
0.0205385
0.0207333
0.0209421
0.0211447
0.0213137
0.0214739
0.0215771
0.0216636
0.0217325
0.0217588
0.0217816
0.0218017
0.021802
0.0218188
0.02182
0.0217973
)
;

boundaryField
{
    inlet
    {
        type            fixedValue;
        value           uniform 0;
    }
    outlet
    {
        type            zeroGradient;
    }
    yzfaces
    {
        type            empty;
    }
}


// ************************************************************************* //
