/*--------------------------------*- C++ -*----------------------------------*\
| =========                 |                                                 |
| \\      /  F ield         | foam-extend: Open Source CFD                    |
|  \\    /   O peration     | Version:     5.0                                |
|   \\  /    A nd           | Web:         http://www.foam-extend.org         |
|    \\/     M anipulation  |                                                 |
\*---------------------------------------------------------------------------*/
FoamFile
{
    version     2.0;
    format      ascii;
    class       volScalarField;
    location    "5";
    object      CO2.water;
}
// * * * * * * * * * * * * * * * * * * * * * * * * * * * * * * * * * * * * * //

dimensions      [0 0 0 0 0 0 0];

internalField   nonuniform List<scalar> 
100
(
0.00113319
0.00149176
0.00171497
0.00193095
0.00202522
0.00221204
0.00236961
0.00247263
0.00257624
0.00264745
0.00272569
0.00277685
0.00284817
0.00291001
0.00297176
0.00301433
0.00306037
0.00309718
0.00313406
0.003166
0.00321457
0.00325847
0.00329437
0.00332846
0.0033617
0.00340092
0.00342752
0.00346945
0.00349583
0.00352714
0.00355859
0.0035971
0.00363753
0.00368151
0.00373162
0.00379273
0.00384704
0.00392259
0.0040294
0.00418227
0.00447183
0.000698648
0.000259357
9.52908e-05
3.49226e-05
1.27779e-05
4.66152e-06
1.69266e-06
6.11572e-07
2.19237e-07
7.79311e-08
2.74209e-08
9.55341e-09
3.29078e-09
1.11808e-09
3.7422e-10
1.23412e-10
4.00871e-11
1.28689e-11
4.09829e-12
1.2982e-12
4.11747e-13
1.31319e-13
4.23318e-14
1.37346e-14
4.66717e-15
1.86785e-15
9.97263e-16
6.68837e-16
4.84243e-16
3.48032e-16
2.45402e-16
1.69436e-16
1.1505e-16
7.70716e-17
5.10571e-17
3.34949e-17
2.17949e-17
1.4085e-17
9.04011e-18
5.75852e-18
3.64276e-18
2.28539e-18
1.42128e-18
8.75478e-19
5.33038e-19
3.20261e-19
1.89648e-19
1.10443e-19
6.31226e-20
3.53915e-20
1.94629e-20
1.05114e-20
5.58102e-21
2.91686e-21
1.5019e-21
7.63563e-22
3.82818e-22
1.89837e-22
9.28802e-23
)
;

boundaryField
{
    inlet
    {
        type            fixedValue;
        value           uniform 0;
    }
    outlet
    {
        type            zeroGradient;
    }
    yzfaces
    {
        type            empty;
    }
}


// ************************************************************************* //
