/*--------------------------------*- C++ -*----------------------------------*\
| =========                 |                                                 |
| \\      /  F ield         | foam-extend: Open Source CFD                    |
|  \\    /   O peration     | Version:     5.0                                |
|   \\  /    A nd           | Web:         http://www.foam-extend.org         |
|    \\/     M anipulation  |                                                 |
\*---------------------------------------------------------------------------*/
FoamFile
{
    version     2.0;
    format      ascii;
    class       volScalarField;
    location    "5";
    object      CO2.gas;
}
// * * * * * * * * * * * * * * * * * * * * * * * * * * * * * * * * * * * * * //

dimensions      [0 0 0 0 0 0 0];

internalField   nonuniform List<scalar> 
100
(
0.155949
0.140458
0.134342
0.126218
0.122229
0.115375
0.10942
0.105026
0.101355
0.0981569
0.0959897
0.092923
0.0907433
0.0886147
0.08652
0.0850233
0.0832329
0.0818829
0.0799886
0.07826
0.0765148
0.0751111
0.0739934
0.072644
0.0712299
0.0703586
0.0690027
0.0677125
0.0667417
0.0655578
0.0640426
0.0625935
0.0611155
0.0593681
0.0575763
0.0554581
0.0531995
0.0501609
0.0457826
0.0390324
0.0267559
0.0366987
0.0359836
0.0354467
0.0349252
0.0344911
0.0340473
0.0335238
0.0330605
0.0326267
0.0321115
0.0315357
0.0309526
0.030326
0.0296667
0.0289129
0.0281304
0.0272269
0.0263104
0.0253016
0.0241863
0.0230291
0.0218791
0.0206101
0.0193523
0.0180174
0.0166863
0.0152848
0.0139085
0.0125565
0.0112242
0.00992703
0.00868301
0.00751528
0.00641127
0.00538779
0.00446521
0.00363116
0.00289501
0.00225989
0.00171432
0.00126294
0.000897776
0.000610817
0.00039516
0.000239995
0.000135266
7.00076e-05
3.29975e-05
1.40896e-05
5.48229e-06
1.96029e-06
6.52528e-07
2.04594e-07
6.03737e-08
1.65615e-08
4.07862e-09
7.50815e-10
8.89897e-12
0
)
;

boundaryField
{
    inlet
    {
        type            fixedValue;
        value           uniform 0.2;
    }
    outlet
    {
        type            zeroGradient;
    }
    yzfaces
    {
        type            empty;
    }
}


// ************************************************************************* //
