/*--------------------------------*- C++ -*----------------------------------*\
| =========                 |                                                 |
| \\      /  F ield         | foam-extend: Open Source CFD                    |
|  \\    /   O peration     | Version:     5.0                                |
|   \\  /    A nd           | Web:         http://www.foam-extend.org         |
|    \\/     M anipulation  |                                                 |
\*---------------------------------------------------------------------------*/
FoamFile
{
    version     2.0;
    format      ascii;
    class       volScalarField;
    location    "5";
    object      H2O.gas;
}
// * * * * * * * * * * * * * * * * * * * * * * * * * * * * * * * * * * * * * //

dimensions      [0 0 0 0 0 0 0];

internalField   nonuniform List<scalar> 
100
(
3.48637e-05
7.45658e-05
0.000262138
0.000246285
0.000238501
0.000225128
0.000212493
0.000204634
0.000197505
0.000191274
0.000187302
0.000180769
0.000175954
0.000172141
0.00016874
0.000165904
0.000160337
0.000159776
0.00015272
0.000148572
0.000144538
0.000141387
0.000139266
0.000136913
0.000134702
0.000137289
0.000131498
0.000132125
0.000130231
0.000127226
0.000124477
0.000121932
0.000119099
0.000115798
0.000112309
0.000108214
0.000103807
9.78775e-05
8.93342e-05
7.61627e-05
5.2208e-05
0.000114869
0.000159009
0.000224685
0.000315814
0.000438646
0.000598738
0.000800796
0.00105226
0.00136056
0.00172742
0.00215808
0.00266182
0.00324211
0.00390124
0.0046356
0.00545625
0.00635263
0.00733712
0.00838988
0.00949153
0.0106577
0.0119077
0.013165
0.0144898
0.0157813
0.0171017
0.0183662
0.0196139
0.0208203
0.0219473
0.022962
0.023863
0.0246754
0.0253006
0.0257492
0.026065
0.0261383
0.0260255
0.0257467
0.0251644
0.0243984
0.0233998
0.0221439
0.0207196
0.019121
0.0174377
0.0157773
0.0142665
0.0129734
0.0119874
0.0112711
0.0107826
0.0104767
0.0102831
0.0101685
0.010107
0.0100598
0.0100342
0.0100186
)
;

boundaryField
{
    inlet
    {
        type            fixedValue;
        value           uniform 0;
    }
    outlet
    {
        type            zeroGradient;
    }
    yzfaces
    {
        type            empty;
    }
}


// ************************************************************************* //
