/*--------------------------------*- C++ -*----------------------------------*\
| =========                 |                                                 |
| \\      /  F ield         | foam-extend: Open Source CFD                    |
|  \\    /   O peration     | Version:     5.0                                |
|   \\  /    A nd           | Web:         http://www.foam-extend.org         |
|    \\/     M anipulation  |                                                 |
\*---------------------------------------------------------------------------*/
FoamFile
{
    version     2.0;
    format      ascii;
    class       volScalarField;
    location    "5";
    object      Na.water;
}
// * * * * * * * * * * * * * * * * * * * * * * * * * * * * * * * * * * * * * //

dimensions      [0 0 0 0 0 0 0];

internalField   nonuniform List<scalar> 
100
(
0.00495363
0.00652248
0.00749978
0.00844078
0.00885823
0.00967298
0.0103639
0.0108111
0.0112642
0.0115753
0.0119211
0.0121377
0.0124461
0.0127172
0.0129877
0.0131781
0.0133832
0.0135372
0.0137012
0.0138441
0.014059
0.014245
0.0143959
0.0145502
0.0146969
0.0148761
0.0149882
0.0151712
0.0152824
0.0154079
0.015551
0.0157266
0.0159049
0.0161007
0.016313
0.0165789
0.0168173
0.017151
0.0176177
0.0182881
0.0195525
0.0187514
0.0188183
0.0188682
0.0189297
0.0189583
0.01899
0.0190373
0.0190581
0.019063
0.0190796
0.0191024
0.0191035
0.0191054
0.0191029
0.0191072
0.0190967
0.0191061
0.0190887
0.0190806
0.0190969
0.0191011
0.0190775
0.019088
0.0190699
0.0190811
0.0190795
0.019109
0.0191235
0.019134
0.0191577
0.0192002
0.0192389
0.0192748
0.0193358
0.0194061
0.0194697
0.0195562
0.0196539
0.0197468
0.0198917
0.0200292
0.0201771
0.020362
0.0205406
0.020743
0.0209495
0.0211524
0.0213271
0.0214867
0.0215934
0.0216756
0.0217374
0.0217638
0.0217906
0.0218026
0.0217955
0.0218105
0.0218136
0.0217955
)
;

boundaryField
{
    inlet
    {
        type            fixedValue;
        value           uniform 0;
    }
    outlet
    {
        type            zeroGradient;
    }
    yzfaces
    {
        type            empty;
    }
}


// ************************************************************************* //
