/*--------------------------------*- C++ -*----------------------------------*\
| =========                 |                                                 |
| \\      /  F ield         | foam-extend: Open Source CFD                    |
|  \\    /   O peration     | Version:     5.0                                |
|   \\  /    A nd           | Web:         http://www.foam-extend.org         |
|    \\/     M anipulation  |                                                 |
\*---------------------------------------------------------------------------*/
FoamFile
{
    version     2.0;
    format      ascii;
    class       volScalarField;
    location    "5";
    object      Ns;
}
// * * * * * * * * * * * * * * * * * * * * * * * * * * * * * * * * * * * * * //

dimensions      [0 -3 0 0 1 0 0];

internalField   nonuniform List<scalar> 
100
(
0.10263
0.410512
3.68189
0.610806
15.6815
6.59779
0.438949
0.551699
0.568374
1.16872
1.65003
0.864066
0.519194
2.15115
0.49506
1.58537
0.287809
1.2819
0.0019899
0.831521
1.33827
0.175102
0.359156
0.924705
0.914359
0.622021
0.426529
2.1778
1.01683
0.788536
0.00942923
0.87413
2.298
0.627862
1.58075
1.06401
8.27937
14.4832
26.3149
61.1768
108.328
176.935
170.32
162.107
180.682
176.011
177.952
169.381
173.124
175.678
178.069
174.3
174.855
173.388
174.498
176.577
169.279
176.441
176.642
172.539
174.591
170.907
173.911
169.987
172.239
171.22
175.575
173.635
170.619
176.605
168.008
177.982
173.795
176.123
177.662
169.87
173.544
174.169
173.293
171.563
172.173
173.463
170.27
170.51
171.152
172.472
168.822
172.717
177.543
172.456
175.907
179.811
170.296
178.115
174.857
172.793
178.749
172.719
172.1
170.144
)
;

boundaryField
{
    inlet
    {
        type            fixedValue;
        value           uniform 0;
    }
    outlet
    {
        type            zeroGradient;
    }
    yzfaces
    {
        type            empty;
    }
}


// ************************************************************************* //
