/*--------------------------------*- C++ -*----------------------------------*\
| =========                 |                                                 |
| \\      /  F ield         | foam-extend: Open Source CFD                    |
|  \\    /   O peration     | Version:     5.0                                |
|   \\  /    A nd           | Web:         http://www.foam-extend.org         |
|    \\/     M anipulation  |                                                 |
\*---------------------------------------------------------------------------*/
FoamFile
{
    version     2.0;
    format      ascii;
    class       surfaceScalarField;
    location    "5";
    object      phi;
}
// * * * * * * * * * * * * * * * * * * * * * * * * * * * * * * * * * * * * * //

dimensions      [0 3 -1 0 0 0 0];

internalField   nonuniform List<scalar> 
99
(
1.22276e-06
1.22347e-06
1.24413e-06
1.2492e-06
1.23709e-06
1.23693e-06
1.23911e-06
1.23889e-06
1.24033e-06
1.24363e-06
1.23613e-06
1.23968e-06
1.23587e-06
1.23669e-06
1.23798e-06
1.23202e-06
1.228e-06
1.229e-06
1.22734e-06
1.2206e-06
1.22001e-06
1.22417e-06
1.22271e-06
1.22402e-06
1.22576e-06
1.22369e-06
1.21968e-06
1.2236e-06
1.21961e-06
1.21641e-06
1.22057e-06
1.21828e-06
1.21774e-06
1.22084e-06
1.22577e-06
1.22703e-06
1.22719e-06
1.22342e-06
1.22022e-06
1.21152e-06
1.21893e-06
1.22218e-06
1.2218e-06
1.22186e-06
1.22276e-06
1.22378e-06
1.2234e-06
1.22529e-06
1.22634e-06
1.22587e-06
1.22404e-06
1.22561e-06
1.22579e-06
1.22442e-06
1.22414e-06
1.22525e-06
1.22393e-06
1.22343e-06
1.22203e-06
1.22013e-06
1.22059e-06
1.22402e-06
1.22272e-06
1.22513e-06
1.22383e-06
1.22393e-06
1.22312e-06
1.22371e-06
1.22475e-06
1.22404e-06
1.22357e-06
1.22402e-06
1.22379e-06
1.22329e-06
1.22269e-06
1.22404e-06
1.2242e-06
1.22514e-06
1.2264e-06
1.22587e-06
1.22746e-06
1.22785e-06
1.22792e-06
1.22897e-06
1.22853e-06
1.22673e-06
1.22644e-06
1.22571e-06
1.22418e-06
1.22488e-06
1.22312e-06
1.22272e-06
1.22336e-06
1.22314e-06
1.22242e-06
1.22418e-06
1.22132e-06
1.22281e-06
1.22309e-06
)
;

boundaryField
{
    inlet
    {
        type            calculated;
        value           uniform -1.225e-06;
    }
    outlet
    {
        type            calculated;
        value           uniform 1.22434e-06;
    }
    yzfaces
    {
        type            empty;
    }
}


// ************************************************************************* //
