/*--------------------------------*- C++ -*----------------------------------*\
| =========                 |                                                 |
| \\      /  F ield         | foam-extend: Open Source CFD                    |
|  \\    /   O peration     | Version:     5.0                                |
|   \\  /    A nd           | Web:         http://www.foam-extend.org         |
|    \\/     M anipulation  |                                                 |
\*---------------------------------------------------------------------------*/
FoamFile
{
    version     2.0;
    format      ascii;
    class       surfaceScalarField;
    location    "5";
    object      phi.water;
}
// * * * * * * * * * * * * * * * * * * * * * * * * * * * * * * * * * * * * * //

dimensions      [0 3 -1 0 0 0 0];

internalField   nonuniform List<scalar> 
99
(
1.06065e-07
1.86511e-07
2.28745e-07
3.10921e-07
3.4275e-07
4.15163e-07
4.98272e-07
5.6058e-07
6.28452e-07
6.86047e-07
7.26286e-07
7.9012e-07
8.42268e-07
8.98008e-07
9.57646e-07
9.94085e-07
1.04679e-06
1.08743e-06
1.14548e-06
1.18938e-06
1.25291e-06
1.3121e-06
1.35639e-06
1.41221e-06
1.47139e-06
1.51075e-06
1.56767e-06
1.62093e-06
1.67389e-06
1.73014e-06
1.80885e-06
1.88689e-06
1.96805e-06
2.0753e-06
2.1961e-06
2.32651e-06
2.47501e-06
2.68963e-06
3.00627e-06
3.57362e-06
3.82198e-06
3.94158e-06
4.0098e-06
4.06069e-06
4.10654e-06
4.14255e-06
4.17164e-06
4.20999e-06
4.2355e-06
4.24775e-06
4.25829e-06
4.2775e-06
4.28657e-06
4.28671e-06
4.28757e-06
4.29146e-06
4.28466e-06
4.28241e-06
4.27041e-06
4.26175e-06
4.26417e-06
4.27297e-06
4.26101e-06
4.26791e-06
4.25705e-06
4.26173e-06
4.26078e-06
4.27468e-06
4.28985e-06
4.30271e-06
4.322e-06
4.35138e-06
4.38307e-06
4.41833e-06
4.46527e-06
4.52533e-06
4.58825e-06
4.66795e-06
4.75503e-06
4.84534e-06
4.96129e-06
5.07859e-06
5.20674e-06
5.349e-06
5.48703e-06
5.61974e-06
5.7516e-06
5.86299e-06
5.94851e-06
6.02078e-06
6.0582e-06
6.08904e-06
6.11126e-06
6.12088e-06
6.1255e-06
6.13692e-06
6.12493e-06
6.13556e-06
6.1384e-06
)
;

boundaryField
{
    inlet
    {
        type            fixedValue;
        value           uniform 0;
    }
    outlet
    {
        type            calculated;
        value           uniform 6.14621e-06;
    }
    yzfaces
    {
        type            empty;
    }
}


// ************************************************************************* //
