/*--------------------------------*- C++ -*----------------------------------*\
| =========                 |                                                 |
| \\      /  F ield         | foam-extend: Open Source CFD                    |
|  \\    /   O peration     | Version:     5.0                                |
|   \\  /    A nd           | Web:         http://www.foam-extend.org         |
|    \\/     M anipulation  |                                                 |
\*---------------------------------------------------------------------------*/
FoamFile
{
    version     2.0;
    format      ascii;
    class       volVectorField;
    location    "5";
    object      U.gas;
}
// * * * * * * * * * * * * * * * * * * * * * * * * * * * * * * * * * * * * * //

dimensions      [0 1 -1 0 0 0 0];

internalField   nonuniform List<vector> 
100
(
(0.00636339 0 0)
(0.00696187 0 0)
(0.00734569 0 0)
(0.0079193 0 0)
(0.00813102 0 0)
(0.00850039 0 0)
(0.00890622 0 0)
(0.00919584 0 0)
(0.00947896 0 0)
(0.00971837 0 0)
(0.00987089 0 0)
(0.010092 0 0)
(0.0102857 0 0)
(0.0104588 0 0)
(0.0106554 0 0)
(0.0107547 0 0)
(0.0108725 0 0)
(0.0109687 0 0)
(0.0111235 0 0)
(0.0112164 0 0)
(0.0113508 0 0)
(0.0114917 0 0)
(0.0116025 0 0)
(0.0117246 0 0)
(0.0118632 0 0)
(0.0119392 0 0)
(0.012031 0 0)
(0.0121179 0 0)
(0.0122283 0 0)
(0.0122914 0 0)
(0.0124267 0 0)
(0.0125578 0 0)
(0.012661 0 0)
(0.0128203 0 0)
(0.0130004 0 0)
(0.0131757 0 0)
(0.0133421 0 0)
(0.0135602 0 0)
(0.0137998 0 0)
(0.0141094 0 0)
(0.0133215 0 0)
(0.0130352 0 0)
(0.012893 0 0)
(0.0127895 0 0)
(0.0127291 0 0)
(0.0126776 0 0)
(0.0126365 0 0)
(0.012606 0 0)
(0.0125736 0 0)
(0.0125359 0 0)
(0.0125033 0 0)
(0.0124765 0 0)
(0.0124656 0 0)
(0.0124417 0 0)
(0.0124205 0 0)
(0.0124237 0 0)
(0.0124198 0 0)
(0.0124154 0 0)
(0.0124022 0 0)
(0.012395 0 0)
(0.0123953 0 0)
(0.0124172 0 0)
(0.0124278 0 0)
(0.0124462 0 0)
(0.0124541 0 0)
(0.0124588 0 0)
(0.0124489 0 0)
(0.0124556 0 0)
(0.0124512 0 0)
(0.012437 0 0)
(0.01241 0 0)
(0.0123853 0 0)
(0.0123524 0 0)
(0.0122977 0 0)
(0.0122372 0 0)
(0.0121688 0 0)
(0.0120818 0 0)
(0.0119781 0 0)
(0.0118436 0 0)
(0.0116726 0 0)
(0.0114693 0 0)
(0.0112112 0 0)
(0.0108913 0 0)
(0.0105043 0 0)
(0.0100229 0 0)
(0.00944821 0 0)
(0.00878777 0 0)
(0.00807162 0 0)
(0.00733524 0 0)
(0.00664435 0 0)
(0.0060446 0 0)
(0.00557242 0 0)
(0.00523684 0 0)
(0.00501073 0 0)
(0.00486239 0 0)
(0.00477524 0 0)
(0.00472066 0 0)
(0.00468569 0 0)
(0.00467058 0 0)
(0.00466087 0 0)
)
;

boundaryField
{
    inlet
    {
        type            fixedValue;
        value           uniform (0.005 0 0);
    }
    outlet
    {
        type            zeroGradient;
    }
    yzfaces
    {
        type            empty;
    }
}


// ************************************************************************* //
