/*--------------------------------*- C++ -*----------------------------------*\
| =========                 |                                                 |
| \\      /  F ield         | foam-extend: Open Source CFD                    |
|  \\    /   O peration     | Version:     5.0                                |
|   \\  /    A nd           | Web:         http://www.foam-extend.org         |
|    \\/     M anipulation  |                                                 |
\*---------------------------------------------------------------------------*/
FoamFile
{
    version     2.0;
    format      ascii;
    class       volVectorField;
    location    "5";
    object      U.water;
}
// * * * * * * * * * * * * * * * * * * * * * * * * * * * * * * * * * * * * * //

dimensions      [0 1 -1 0 0 0 0];

internalField   nonuniform List<vector> 
100
(
(4.99133e-05 0 0)
(0.000117476 0 0)
(0.00017114 0 0)
(0.000218055 0 0)
(0.000269416 0 0)
(0.000309993 0 0)
(0.000371377 0 0)
(0.000431371 0 0)
(0.000483429 0 0)
(0.000534268 0 0)
(0.000575573 0 0)
(0.00061607 0 0)
(0.000663903 0 0)
(0.000709054 0 0)
(0.000755801 0 0)
(0.000796995 0 0)
(0.000832238 0 0)
(0.000871222 0 0)
(0.000908797 0 0)
(0.000949405 0 0)
(0.00099194 0 0)
(0.00104284 0 0)
(0.00108666 0 0)
(0.00112732 0 0)
(0.00117378 0 0)
(0.00121637 0 0)
(0.00125443 0 0)
(0.00130012 0 0)
(0.00134413 0 0)
(0.00138908 0 0)
(0.00144265 0 0)
(0.00150635 0 0)
(0.00157204 0 0)
(0.00164855 0 0)
(0.00174183 0 0)
(0.00184461 0 0)
(0.00196004 0 0)
(0.00210823 0 0)
(0.00232365 0 0)
(0.00265617 0 0)
(0.003002 0 0)
(0.0031634 0 0)
(0.00324377 0 0)
(0.00329363 0 0)
(0.00333282 0 0)
(0.00336707 0 0)
(0.00339369 0 0)
(0.00341972 0 0)
(0.00344608 0 0)
(0.00346341 0 0)
(0.00347251 0 0)
(0.00348378 0 0)
(0.00349544 0 0)
(0.00349994 0 0)
(0.00350056 0 0)
(0.00350216 0 0)
(0.00350125 0 0)
(0.00349733 0 0)
(0.0034925 0 0)
(0.00348395 0 0)
(0.00347919 0 0)
(0.00348279 0 0)
(0.00348267 0 0)
(0.00348059 0 0)
(0.00347986 0 0)
(0.00347749 0 0)
(0.00347923 0 0)
(0.00348328 0 0)
(0.00349518 0 0)
(0.0035078 0 0)
(0.0035213 0 0)
(0.00354044 0 0)
(0.00356531 0 0)
(0.00359383 0 0)
(0.00362682 0 0)
(0.00366944 0 0)
(0.00372013 0 0)
(0.00377785 0 0)
(0.00384607 0 0)
(0.00391946 0 0)
(0.00400284 0 0)
(0.00409799 0 0)
(0.00419871 0 0)
(0.00430896 0 0)
(0.00442439 0 0)
(0.00453533 0 0)
(0.00464234 0 0)
(0.00474044 0 0)
(0.00481999 0 0)
(0.00488372 0 0)
(0.00492903 0 0)
(0.00495681 0 0)
(0.00497804 0 0)
(0.00499188 0 0)
(0.00499792 0 0)
(0.00500475 0 0)
(0.0050052 0 0)
(0.00500405 0 0)
(0.0050086 0 0)
(0.00501237 0 0)
)
;

boundaryField
{
    inlet
    {
        type            fixedValue;
        value           uniform (0 0 0);
    }
    outlet
    {
        type            zeroGradient;
    }
    yzfaces
    {
        type            empty;
    }
}


// ************************************************************************* //
