/*--------------------------------*- C++ -*----------------------------------*\
| =========                 |                                                 |
| \\      /  F ield         | foam-extend: Open Source CFD                    |
|  \\    /   O peration     | Version:     5.0                                |
|   \\  /    A nd           | Web:         http://www.foam-extend.org         |
|    \\/     M anipulation  |                                                 |
\*---------------------------------------------------------------------------*/
FoamFile
{
    version     2.0;
    format      ascii;
    class       volScalarField;
    location    "1.1297216";
    object      alpha.gas;
}
// * * * * * * * * * * * * * * * * * * * * * * * * * * * * * * * * * * * * * //

dimensions      [0 0 0 0 0 0 0];

internalField   nonuniform List<scalar> 
100
(
0.116912
0.0990058
0.0881337
0.0800189
0.0733591
0.0677583
0.06248
0.0574813
0.0532071
0.0495874
0.0300948
0.0349171
0.0367582
0.0368248
0.0360647
0.0347294
0.0331143
0.0312635
0.0292422
0.0270361
0.0246895
0.0222294
0.019762
0.0174087
0.0153013
0.0135612
0.0122495
0.0113497
0.0107798
0.0104375
0.01024
0.0101307
0.0100691
0.010038
0.0100207
0.0100105
0.0100069
0.0100024
0.0100005
0.0099984
0.00999876
0.00999839
0.00999987
0.00999831
0.00999914
0.00999975
0.0099977
0.00999768
0.0100006
0.010001
0.0100005
0.00999962
0.0100021
0.0100019
0.0100028
0.0100014
0.0099993
0.00999889
0.0100007
0.00999882
0.0100006
0.0100014
0.0100007
0.0100003
0.00999939
0.00999916
0.00999984
0.0100022
0.0100014
0.0100026
0.0100039
0.0100021
0.0100006
0.00999899
0.00999929
0.0099977
0.00999821
0.0100019
0.0100007
0.0100006
0.0100009
0.0100016
0.0100035
0.0100021
0.0100023
0.0100026
0.0100016
0.0100019
0.0100013
0.0099998
0.00999965
0.00999829
0.00999865
0.00999795
0.00999694
0.0100001
0.0100022
0.0100004
0.00999787
0.00999891
)
;

boundaryField
{
    inlet
    {
        type            fixedValue;
        value           uniform 0.2;
    }
    outlet
    {
        type            zeroGradient;
    }
    yzfaces
    {
        type            empty;
    }
}


// ************************************************************************* //
