/*--------------------------------*- C++ -*----------------------------------*\
| =========                 |                                                 |
| \\      /  F ield         | foam-extend: Open Source CFD                    |
|  \\    /   O peration     | Version:     5.0                                |
|   \\  /    A nd           | Web:         http://www.foam-extend.org         |
|    \\/     M anipulation  |                                                 |
\*---------------------------------------------------------------------------*/
FoamFile
{
    version     2.0;
    format      ascii;
    class       volScalarField;
    location    "1.1297216";
    object      Cl.water;
}
// * * * * * * * * * * * * * * * * * * * * * * * * * * * * * * * * * * * * * //

dimensions      [0 0 0 0 0 0 0];

internalField   nonuniform List<scalar> 
100
(
0
0.00614867
0.0103408
0.00607681
0.00779452
0.0112564
0.00630405
0.00890614
0.0129812
0.0159069
0.00205631
0.0156629
0.0188286
0.0195194
0.0198185
0.0200025
0.0202144
0.0204358
0.0206838
0.0209242
0.0212247
0.0215067
0.0218135
0.0221014
0.0223505
0.0225568
0.0226825
0.0228243
0.0228894
0.022938
0.0229675
0.0229795
0.0229696
0.022992
0.0229963
0.0230007
0.0229875
0.0230063
0.0230039
0.0229919
0.0229837
0.0229884
0.0230062
0.0229869
0.0229982
0.0229812
0.022997
0.0229772
0.0229783
0.022976
0.022994
0.0229975
0.0230025
0.0230036
0.0230062
0.0230177
0.0230025
0.0229858
0.0229993
0.0229829
0.0229864
0.0229933
0.0229896
0.0229937
0.0229902
0.0229988
0.0229866
0.0229861
0.0230078
0.0230116
0.022998
0.0229998
0.0230082
0.0230078
0.0229947
0.0230138
0.0230198
0.0229968
0.0230171
0.0230099
0.0230125
0.0230151
0.0229844
0.0229998
0.0230136
0.0230274
0.0229974
0.0230132
0.0230116
0.0229947
0.022986
0.0229744
0.0229823
0.0229762
0.0229812
0.0229624
0.0229639
0.0230047
0.023008
0.0229997
)
;

boundaryField
{
    inlet
    {
        type            fixedValue;
        value           uniform 0;
    }
    outlet
    {
        type            zeroGradient;
    }
    yzfaces
    {
        type            empty;
    }
}


// ************************************************************************* //
