/*--------------------------------*- C++ -*----------------------------------*\
| =========                 |                                                 |
| \\      /  F ield         | foam-extend: Open Source CFD                    |
|  \\    /   O peration     | Version:     5.0                                |
|   \\  /    A nd           | Web:         http://www.foam-extend.org         |
|    \\/     M anipulation  |                                                 |
\*---------------------------------------------------------------------------*/
FoamFile
{
    version     2.0;
    format      ascii;
    class       volScalarField;
    location    "1.1297216";
    object      H2O.gas;
}
// * * * * * * * * * * * * * * * * * * * * * * * * * * * * * * * * * * * * * //

dimensions      [0 0 0 0 0 0 0];

internalField   nonuniform List<scalar> 
100
(
9.43397e-09
1.45351e-06
8.41933e-06
2.40238e-05
5.52543e-05
0.00011914
0.000204261
0.000351897
0.000639833
0.00115656
0.000601493
0.00246518
0.00425175
0.00613793
0.0081867
0.0102604
0.0123074
0.0141718
0.0157368
0.0168279
0.0174186
0.0173722
0.016782
0.0157456
0.0144611
0.0131831
0.0120809
0.0112923
0.0107564
0.0104315
0.010239
0.010128
0.0100593
0.0100348
0.0100214
0.0100128
0.0100053
0.010007
0.0100019
0.00999697
0.00999394
0.00999324
0.0100026
0.00999475
0.0100013
0.00999265
0.00999952
0.00998707
0.00998992
0.00998991
0.00999493
0.00999475
0.00999818
0.00999884
0.0100012
0.0100037
0.00999755
0.00998851
0.00999785
0.00999058
0.00999716
0.0100002
0.00999766
0.0100012
0.00999754
0.0100016
0.00999801
0.00999974
0.0100067
0.0100097
0.0100045
0.0100044
0.0100048
0.0100052
0.0100002
0.010006
0.0100069
0.00999987
0.0100072
0.0100046
0.0100043
0.0100057
0.00999245
0.00999816
0.0100024
0.0100095
0.00999657
0.0100044
0.00999997
0.00999524
0.00999438
0.00998938
0.00999219
0.00998807
0.00999184
0.00998728
0.00998685
0.0100014
0.00999888
0.00999603
)
;

boundaryField
{
    inlet
    {
        type            fixedValue;
        value           uniform 0;
    }
    outlet
    {
        type            zeroGradient;
    }
    yzfaces
    {
        type            empty;
    }
}


// ************************************************************************* //
