/*--------------------------------*- C++ -*----------------------------------*\
| =========                 |                                                 |
| \\      /  F ield         | foam-extend: Open Source CFD                    |
|  \\    /   O peration     | Version:     5.0                                |
|   \\  /    A nd           | Web:         http://www.foam-extend.org         |
|    \\/     M anipulation  |                                                 |
\*---------------------------------------------------------------------------*/
FoamFile
{
    version     2.0;
    format      ascii;
    class       volScalarField;
    location    "1.1297216";
    object      Na.water;
}
// * * * * * * * * * * * * * * * * * * * * * * * * * * * * * * * * * * * * * //

dimensions      [0 0 0 0 0 0 0];

internalField   nonuniform List<scalar> 
100
(
0
0.00615035
0.0103448
0.00607449
0.00779685
0.011262
0.0063071
0.00890442
0.0129802
0.01591
0.00205599
0.0156561
0.0188231
0.0195202
0.0198212
0.0200053
0.020221
0.0204383
0.0206865
0.020922
0.0212194
0.0215039
0.0218139
0.0221059
0.0223576
0.0225643
0.0226986
0.0228325
0.0228893
0.0229432
0.0229705
0.0229758
0.0229646
0.0229898
0.0229992
0.0229961
0.0229829
0.0229949
0.022994
0.0229906
0.0229839
0.0229815
0.0229953
0.0229767
0.0229934
0.0229724
0.0229946
0.0229604
0.0229702
0.0229771
0.022996
0.0229962
0.0230032
0.0230029
0.0229974
0.0230061
0.0229996
0.0229796
0.0229952
0.0229807
0.0229948
0.0229941
0.0229844
0.022996
0.0229934
0.0230067
0.0229928
0.0229909
0.0229998
0.0230059
0.0229941
0.022995
0.0230008
0.0230018
0.0229932
0.0230168
0.0230219
0.0229976
0.0230115
0.023018
0.0230249
0.0230356
0.0229987
0.0230074
0.0230151
0.0230241
0.0229857
0.0230067
0.0229972
0.0229879
0.0229854
0.0229741
0.0229866
0.0229804
0.0229915
0.0229708
0.0229674
0.0230095
0.0230059
0.0230073
)
;

boundaryField
{
    inlet
    {
        type            fixedValue;
        value           uniform 0;
    }
    outlet
    {
        type            zeroGradient;
    }
    yzfaces
    {
        type            empty;
    }
}


// ************************************************************************* //
