/*--------------------------------*- C++ -*----------------------------------*\
| =========                 |                                                 |
| \\      /  F ield         | foam-extend: Open Source CFD                    |
|  \\    /   O peration     | Version:     5.0                                |
|   \\  /    A nd           | Web:         http://www.foam-extend.org         |
|    \\/     M anipulation  |                                                 |
\*---------------------------------------------------------------------------*/
FoamFile
{
    version     2.0;
    format      ascii;
    class       surfaceScalarField;
    location    "1.1297216";
    object      phi;
}
// * * * * * * * * * * * * * * * * * * * * * * * * * * * * * * * * * * * * * //

dimensions      [0 3 -1 0 0 0 0];

internalField   nonuniform List<scalar> 
99
(
1.22728e-06
1.22318e-06
1.22193e-06
1.21436e-06
1.21504e-06
1.21716e-06
1.21734e-06
1.21681e-06
1.21883e-06
1.21567e-06
1.21627e-06
1.22149e-06
1.21952e-06
1.22394e-06
1.21971e-06
1.22282e-06
1.22226e-06
1.22436e-06
1.22367e-06
1.22337e-06
1.22379e-06
1.22574e-06
1.22805e-06
1.22808e-06
1.22642e-06
1.22472e-06
1.22621e-06
1.22649e-06
1.22579e-06
1.22628e-06
1.22527e-06
1.22531e-06
1.22597e-06
1.2266e-06
1.22589e-06
1.22429e-06
1.22487e-06
1.22404e-06
1.22264e-06
1.22113e-06
1.22159e-06
1.22161e-06
1.2205e-06
1.22134e-06
1.21967e-06
1.21757e-06
1.21877e-06
1.21741e-06
1.21633e-06
1.21706e-06
1.21784e-06
1.21811e-06
1.21924e-06
1.21777e-06
1.21942e-06
1.21658e-06
1.2151e-06
1.21622e-06
1.21423e-06
1.21375e-06
1.21333e-06
1.21297e-06
1.21626e-06
1.216e-06
1.21556e-06
1.2142e-06
1.21545e-06
1.21455e-06
1.21624e-06
1.21451e-06
1.21711e-06
1.2172e-06
1.21534e-06
1.21597e-06
1.21634e-06
1.21645e-06
1.21626e-06
1.21796e-06
1.21676e-06
1.21847e-06
1.21774e-06
1.21638e-06
1.21748e-06
1.21652e-06
1.2154e-06
1.21579e-06
1.21472e-06
1.2134e-06
1.21318e-06
1.21218e-06
1.21161e-06
1.21273e-06
1.21341e-06
1.21397e-06
1.21337e-06
1.21232e-06
1.21429e-06
1.21394e-06
1.21613e-06
)
;

boundaryField
{
    inlet
    {
        type            calculated;
        value           uniform -1.225e-06;
    }
    outlet
    {
        type            calculated;
        value           uniform 1.21546e-06;
    }
    yzfaces
    {
        type            empty;
    }
}


// ************************************************************************* //
