/*--------------------------------*- C++ -*----------------------------------*\
| =========                 |                                                 |
| \\      /  F ield         | foam-extend: Open Source CFD                    |
|  \\    /   O peration     | Version:     5.0                                |
|   \\  /    A nd           | Web:         http://www.foam-extend.org         |
|    \\/     M anipulation  |                                                 |
\*---------------------------------------------------------------------------*/
FoamFile
{
    version     2.0;
    format      ascii;
    class       surfaceScalarField;
    location    "1.1297216";
    object      phi.water;
}
// * * * * * * * * * * * * * * * * * * * * * * * * * * * * * * * * * * * * * //

dimensions      [0 3 -1 0 0 0 0];

internalField   nonuniform List<scalar> 
99
(
3.71901e-07
6.41404e-07
8.84027e-07
1.11752e-06
1.36292e-06
1.60927e-06
1.88032e-06
2.18229e-06
2.47828e-06
2.61074e-06
4.68788e-06
4.16133e-06
3.94919e-06
3.94481e-06
3.99754e-06
4.13981e-06
4.29982e-06
4.49426e-06
4.69726e-06
4.91529e-06
5.14033e-06
5.37232e-06
5.58769e-06
5.76569e-06
5.89853e-06
5.99441e-06
6.06747e-06
6.10573e-06
6.12465e-06
6.13861e-06
6.1411e-06
6.14823e-06
6.15403e-06
6.15515e-06
6.15048e-06
6.14352e-06
6.14579e-06
6.14083e-06
6.13585e-06
6.13018e-06
6.13363e-06
6.13144e-06
6.12534e-06
6.12976e-06
6.12242e-06
6.11198e-06
6.11918e-06
6.11621e-06
6.11081e-06
6.1128e-06
6.11487e-06
6.11576e-06
6.12082e-06
6.11272e-06
6.11931e-06
6.10514e-06
6.10173e-06
6.10761e-06
6.09691e-06
6.09485e-06
6.09045e-06
6.08845e-06
6.10439e-06
6.10271e-06
6.10005e-06
6.09323e-06
6.10114e-06
6.09422e-06
6.09984e-06
6.09252e-06
6.10705e-06
6.10639e-06
6.09592e-06
6.10014e-06
6.10139e-06
6.09958e-06
6.10182e-06
6.1109e-06
6.10309e-06
6.11254e-06
6.10885e-06
6.10648e-06
6.11439e-06
6.1062e-06
6.09725e-06
6.10077e-06
6.09678e-06
6.08894e-06
6.08996e-06
6.08633e-06
6.08477e-06
6.09083e-06
6.09455e-06
6.09683e-06
6.09482e-06
6.09261e-06
6.09815e-06
6.09147e-06
6.10381e-06
)
;

boundaryField
{
    inlet
    {
        type            fixedValue;
        value           uniform 0;
    }
    outlet
    {
        type            calculated;
        value           uniform 6.10154e-06;
    }
    yzfaces
    {
        type            empty;
    }
}


// ************************************************************************* //
