/*--------------------------------*- C++ -*----------------------------------*\
| =========                 |                                                 |
| \\      /  F ield         | foam-extend: Open Source CFD                    |
|  \\    /   O peration     | Version:     5.0                                |
|   \\  /    A nd           | Web:         http://www.foam-extend.org         |
|    \\/     M anipulation  |                                                 |
\*---------------------------------------------------------------------------*/
FoamFile
{
    version     2.0;
    format      ascii;
    class       volScalarField;
    location    "1.1297216";
    object      S.gas;
}
// * * * * * * * * * * * * * * * * * * * * * * * * * * * * * * * * * * * * * //

dimensions      [0 0 0 0 0 0 0];

internalField   nonuniform List<scalar> 
100
(
0.584562
0.495029
0.440669
0.400094
0.366795
0.338792
0.3124
0.287406
0.266035
0.247937
0.150474
0.174585
0.183791
0.184124
0.180324
0.173647
0.165572
0.156318
0.146211
0.135181
0.123448
0.111147
0.0988102
0.0870433
0.0765064
0.0678059
0.0612473
0.0567483
0.0538992
0.0521873
0.0511999
0.0506533
0.0503457
0.0501902
0.0501036
0.0500526
0.0500344
0.050012
0.0500023
0.049992
0.0499938
0.049992
0.0499994
0.0499915
0.0499957
0.0499988
0.0499885
0.0499884
0.050003
0.050005
0.0500024
0.0499981
0.0500106
0.0500093
0.0500138
0.0500068
0.0499965
0.0499944
0.0500034
0.0499941
0.0500029
0.0500068
0.0500037
0.0500013
0.049997
0.0499958
0.0499992
0.0500108
0.0500068
0.0500128
0.0500196
0.0500104
0.0500029
0.0499949
0.0499965
0.0499885
0.049991
0.0500097
0.0500033
0.050003
0.0500044
0.050008
0.0500175
0.0500106
0.0500114
0.0500132
0.0500082
0.0500093
0.0500066
0.049999
0.0499982
0.0499915
0.0499932
0.0499897
0.0499847
0.0500007
0.0500111
0.0500019
0.0499894
0.0499946
)
;

boundaryField
{
    inlet
    {
        type            calculated;
        value           uniform 1;
    }
    outlet
    {
        type            calculated;
        value           uniform 0.0499946;
    }
    yzfaces
    {
        type            empty;
    }
}


// ************************************************************************* //
