/*--------------------------------*- C++ -*----------------------------------*\
| =========                 |                                                 |
| \\      /  F ield         | foam-extend: Open Source CFD                    |
|  \\    /   O peration     | Version:     5.0                                |
|   \\  /    A nd           | Web:         http://www.foam-extend.org         |
|    \\/     M anipulation  |                                                 |
\*---------------------------------------------------------------------------*/
FoamFile
{
    version     2.0;
    format      ascii;
    class       volVectorField;
    location    "1.1297216";
    object      U.gas;
}
// * * * * * * * * * * * * * * * * * * * * * * * * * * * * * * * * * * * * * //

dimensions      [0 1 -1 0 0 0 0];

internalField   nonuniform List<vector> 
100
(
(0.00844181 0 0)
(0.00967933 0 0)
(0.0105325 0 0)
(0.0112027 0 0)
(0.0117728 0 0)
(0.0122869 0 0)
(0.0127729 0 0)
(0.0131815 0 0)
(0.013445 0 0)
(0.0135754 0 0)
(0.0166939 0 0)
(0.0113481 0 0)
(0.0123619 0 0)
(0.0127866 0 0)
(0.0128982 0 0)
(0.0128804 0 0)
(0.0127593 0 0)
(0.0125514 0 0)
(0.0122503 0 0)
(0.0118425 0 0)
(0.0113167 0 0)
(0.0106708 0 0)
(0.00989021 0 0)
(0.00899612 0 0)
(0.00804231 0 0)
(0.00711707 0 0)
(0.00632231 0 0)
(0.00571426 0 0)
(0.00528952 0 0)
(0.00501912 0 0)
(0.00485636 0 0)
(0.00476247 0 0)
(0.00471239 0 0)
(0.00468594 0 0)
(0.00467107 0 0)
(0.00465861 0 0)
(0.00465209 0 0)
(0.00465028 0 0)
(0.00464319 0 0)
(0.00463672 0 0)
(0.00463419 0 0)
(0.00463524 0 0)
(0.00463314 0 0)
(0.004633 0 0)
(0.00463093 0 0)
(0.00462386 0 0)
(0.00462215 0 0)
(0.00462123 0 0)
(0.00461666 0 0)
(0.00461754 0 0)
(0.00462061 0 0)
(0.0046225 0 0)
(0.00462486 0 0)
(0.0046251 0 0)
(0.00462552 0 0)
(0.00462353 0 0)
(0.00461422 0 0)
(0.00461302 0 0)
(0.00461162 0 0)
(0.00460718 0 0)
(0.00460452 0 0)
(0.00460465 0 0)
(0.00461051 0 0)
(0.00461557 0 0)
(0.00461418 0 0)
(0.00461047 0 0)
(0.00460947 0 0)
(0.00461053 0 0)
(0.0046136 0 0)
(0.00461313 0 0)
(0.00461512 0 0)
(0.00462078 0 0)
(0.00461683 0 0)
(0.00461383 0 0)
(0.00461487 0 0)
(0.00461584 0 0)
(0.00461526 0 0)
(0.00461805 0 0)
(0.00462031 0 0)
(0.00462102 0 0)
(0.0046231 0 0)
(0.00461924 0 0)
(0.00461882 0 0)
(0.00461974 0 0)
(0.0046159 0 0)
(0.00461503 0 0)
(0.00461332 0 0)
(0.00460826 0 0)
(0.00460617 0 0)
(0.00460303 0 0)
(0.00459848 0 0)
(0.00459965 0 0)
(0.00460219 0 0)
(0.00460529 0 0)
(0.00460575 0 0)
(0.00460175 0 0)
(0.00460467 0 0)
(0.00460871 0 0)
(0.00461102 0 0)
(0.00461255 0 0)
)
;

boundaryField
{
    inlet
    {
        type            fixedValue;
        value           uniform (0.005 0 0);
    }
    outlet
    {
        type            zeroGradient;
    }
    yzfaces
    {
        type            empty;
    }
}


// ************************************************************************* //
