/*--------------------------------*- C++ -*----------------------------------*\
| =========                 |                                                 |
| \\      /  F ield         | foam-extend: Open Source CFD                    |
|  \\    /   O peration     | Version:     5.0                                |
|   \\  /    A nd           | Web:         http://www.foam-extend.org         |
|    \\/     M anipulation  |                                                 |
\*---------------------------------------------------------------------------*/
FoamFile
{
    version     2.0;
    format      ascii;
    class       volVectorField;
    location    "1.1297216";
    object      U.water;
}
// * * * * * * * * * * * * * * * * * * * * * * * * * * * * * * * * * * * * * //

dimensions      [0 1 -1 0 0 0 0];

internalField   nonuniform List<vector> 
100
(
(0.000168226 0 0)
(0.000414648 0 0)
(0.000623409 0 0)
(0.000816611 0 0)
(0.00101034 0 0)
(0.00121141 0 0)
(0.00142251 0 0)
(0.0016548 0 0)
(0.00189906 0 0)
(0.00213085 0 0)
(0.00288529 0 0)
(0.00362704 0 0)
(0.00331979 0 0)
(0.00322638 0 0)
(0.00324664 0 0)
(0.0033256 0 0)
(0.00344834 0 0)
(0.00359271 0 0)
(0.0037537 0 0)
(0.00392347 0 0)
(0.0041038 0 0)
(0.00428984 0 0)
(0.00447242 0 0)
(0.00463272 0 0)
(0.00475791 0 0)
(0.0048485 0 0)
(0.00491575 0 0)
(0.00496287 0 0)
(0.00498842 0 0)
(0.00500342 0 0)
(0.0050111 0 0)
(0.00501391 0 0)
(0.00501798 0 0)
(0.00502212 0 0)
(0.0050227 0 0)
(0.00501837 0 0)
(0.00501651 0 0)
(0.00501607 0 0)
(0.00501165 0 0)
(0.00500574 0 0)
(0.00500361 0 0)
(0.00500459 0 0)
(0.00500238 0 0)
(0.00500179 0 0)
(0.00500011 0 0)
(0.00499238 0 0)
(0.00499054 0 0)
(0.00499026 0 0)
(0.00498526 0 0)
(0.00498444 0 0)
(0.00498752 0 0)
(0.00498967 0 0)
(0.00499257 0 0)
(0.00499183 0 0)
(0.0049922 0 0)
(0.00498975 0 0)
(0.00498095 0 0)
(0.00498023 0 0)
(0.00497844 0 0)
(0.00497338 0 0)
(0.00497158 0 0)
(0.00496989 0 0)
(0.00497588 0 0)
(0.00498212 0 0)
(0.00498068 0 0)
(0.004977 0 0)
(0.00497684 0 0)
(0.00497755 0 0)
(0.00497908 0 0)
(0.004979 0 0)
(0.00498077 0 0)
(0.00498626 0 0)
(0.00498265 0 0)
(0.00498016 0 0)
(0.00498227 0 0)
(0.00498325 0 0)
(0.0049831 0 0)
(0.0049862 0 0)
(0.00498716 0 0)
(0.00498821 0 0)
(0.0049902 0 0)
(0.00498593 0 0)
(0.00498539 0 0)
(0.00498563 0 0)
(0.00498138 0 0)
(0.00497987 0 0)
(0.00497849 0 0)
(0.0049736 0 0)
(0.0049704 0 0)
(0.00496795 0 0)
(0.00496482 0 0)
(0.00496595 0 0)
(0.00496969 0 0)
(0.00497218 0 0)
(0.00497206 0 0)
(0.00496872 0 0)
(0.00497055 0 0)
(0.00497382 0 0)
(0.00497766 0 0)
(0.00498083 0 0)
)
;

boundaryField
{
    inlet
    {
        type            fixedValue;
        value           uniform (0 0 0);
    }
    outlet
    {
        type            zeroGradient;
    }
    yzfaces
    {
        type            empty;
    }
}


// ************************************************************************* //
