/*--------------------------------*- C++ -*----------------------------------*\
| =========                 |                                                 |
| \\      /  F ield         | foam-extend: Open Source CFD                    |
|  \\    /   O peration     | Version:     5.0                                |
|   \\  /    A nd           | Web:         http://www.foam-extend.org         |
|    \\/     M anipulation  |                                                 |
\*---------------------------------------------------------------------------*/
FoamFile
{
    version     2.0;
    format      ascii;
    class       volScalarField;
    location    "5";
    object      alpha.gas;
}
// * * * * * * * * * * * * * * * * * * * * * * * * * * * * * * * * * * * * * //

dimensions      [0 0 0 0 0 0 0];

internalField   nonuniform List<scalar> 
100
(
0.156353
0.141745
0.13346
0.125759
0.119946
0.115531
0.111108
0.10655
0.102799
0.0995478
0.0966924
0.0942656
0.092007
0.0896111
0.0878705
0.0864642
0.0850359
0.0836331
0.0821997
0.0807589
0.0792974
0.0778396
0.0764436
0.0753772
0.074102
0.0729581
0.0717712
0.0705958
0.0698477
0.0689168
0.0678739
0.067037
0.0661477
0.0654488
0.0647781
0.0638847
0.0631871
0.0624377
0.0617412
0.0610068
0.0602338
0.0595391
0.0587756
0.0580942
0.0574575
0.0567065
0.0560833
0.0555273
0.0549171
0.0542169
0.0536677
0.0531056
0.0525313
0.0519496
0.0513672
0.0507897
0.0502225
0.0496594
0.0490393
0.0483637
0.047794
0.047146
0.0465121
0.0458261
0.0451751
0.0444408
0.04377
0.0430685
0.0423729
0.041682
0.040961
0.0402339
0.0394663
0.0386667
0.0378842
0.037052
0.0361851
0.0352788
0.0343023
0.0332934
0.0322172
0.0310357
0.0297565
0.0283663
0.026864
0.0252345
0.0234801
0.0216204
0.0196879
0.0177595
0.0159341
0.0143097
0.0129748
0.0119546
0.0112355
0.0107566
0.0104504
0.0102649
0.0101538
0.0100889
)
;

boundaryField
{
    inlet
    {
        type            fixedValue;
        value           uniform 0.2;
    }
    outlet
    {
        type            zeroGradient;
    }
    yzfaces
    {
        type            empty;
    }
}


// ************************************************************************* //
