/*--------------------------------*- C++ -*----------------------------------*\
| =========                 |                                                 |
| \\      /  F ield         | foam-extend: Open Source CFD                    |
|  \\    /   O peration     | Version:     5.0                                |
|   \\  /    A nd           | Web:         http://www.foam-extend.org         |
|    \\/     M anipulation  |                                                 |
\*---------------------------------------------------------------------------*/
FoamFile
{
    version     2.0;
    format      ascii;
    class       volScalarField;
    location    "5";
    object      CO2.water;
}
// * * * * * * * * * * * * * * * * * * * * * * * * * * * * * * * * * * * * * //

dimensions      [0 0 0 0 0 0 0];

internalField   nonuniform List<scalar> 
100
(
0.00114637
0.00153005
0.00174764
0.00194991
0.00210259
0.00221854
0.00233472
0.00245443
0.00255293
0.00263833
0.00271333
0.00277707
0.00283639
0.00289931
0.00294503
0.00298197
0.00301948
0.00305632
0.00309397
0.00313181
0.0031702
0.00320849
0.00324515
0.00327316
0.00330665
0.0033367
0.00336787
0.00339874
0.00341839
0.00344284
0.00347023
0.00349221
0.00351557
0.00353393
0.00355154
0.00357501
0.00359333
0.00361301
0.0036313
0.00365059
0.0036709
0.00368914
0.00370919
0.00372709
0.00374381
0.00376354
0.00377991
0.00379451
0.00381053
0.00382893
0.00384335
0.00385811
0.0038732
0.00388848
0.00390377
0.00391894
0.00393384
0.00394863
0.00396491
0.00398266
0.00399762
0.00401464
0.00403129
0.00404931
0.0040664
0.00408569
0.00410331
0.00412173
0.00414
0.00415815
0.00417709
0.000170657
3.55477e-05
7.49489e-06
1.58509e-06
3.31429e-07
6.68694e-08
1.32015e-08
2.38597e-09
3.25336e-10
0
0
0
0
0
0
0
0
0
1.34516e-15
5.36074e-15
4.13247e-15
2.5109e-15
1.39155e-15
7.32256e-16
3.73711e-16
1.86551e-16
9.14805e-17
4.42815e-17
2.76872e-17
)
;

boundaryField
{
    inlet
    {
        type            fixedValue;
        value           uniform 0;
    }
    outlet
    {
        type            zeroGradient;
    }
    yzfaces
    {
        type            empty;
    }
}


// ************************************************************************* //
