/*--------------------------------*- C++ -*----------------------------------*\
| =========                 |                                                 |
| \\      /  F ield         | foam-extend: Open Source CFD                    |
|  \\    /   O peration     | Version:     5.0                                |
|   \\  /    A nd           | Web:         http://www.foam-extend.org         |
|    \\/     M anipulation  |                                                 |
\*---------------------------------------------------------------------------*/
FoamFile
{
    version     2.0;
    format      ascii;
    class       volScalarField;
    location    "5";
    object      CO2.gas;
}
// * * * * * * * * * * * * * * * * * * * * * * * * * * * * * * * * * * * * * //

dimensions      [0 0 0 0 0 0 0];

internalField   nonuniform List<scalar> 
100
(
0.156048
0.141469
0.1332
0.125514
0.119712
0.115306
0.110891
0.106342
0.102599
0.0993539
0.0965041
0.094082
0.0918278
0.0894366
0.0876994
0.0862958
0.0848703
0.0834702
0.0820396
0.0806016
0.079143
0.077688
0.0762947
0.0752304
0.0739577
0.072816
0.0716315
0.0704583
0.0697117
0.0687826
0.0677417
0.0669064
0.0660188
0.0653213
0.064652
0.0637603
0.0630641
0.0623161
0.061621
0.060888
0.0601165
0.0594231
0.0586611
0.057981
0.0573456
0.0565961
0.0559741
0.0554192
0.0548102
0.0541113
0.0535632
0.0530021
0.052429
0.0518484
0.0512671
0.0506908
0.0501247
0.0495627
0.0489438
0.0482695
0.0477009
0.0470542
0.0464216
0.0457369
0.0450871
0.0443542
0.0436847
0.0429846
0.0422904
0.0416008
0.0408813
0.0330254
0.029152
0.0255596
0.0222475
0.0191984
0.016393
0.0138621
0.0115653
0.00954476
0.00773866
0.00616053
0.00480021
0.00365021
0.00269793
0.00192437
0.00131662
0.000854409
0.000521201
0.000294963
0.000153343
7.21226e-05
3.07125e-05
1.18481e-05
4.17256e-06
1.35461e-06
4.0604e-07
1.1298e-07
2.99409e-08
4.67412e-09
)
;

boundaryField
{
    inlet
    {
        type            fixedValue;
        value           uniform 0.2;
    }
    outlet
    {
        type            zeroGradient;
    }
    yzfaces
    {
        type            empty;
    }
}


// ************************************************************************* //
