/*--------------------------------*- C++ -*----------------------------------*\
| =========                 |                                                 |
| \\      /  F ield         | foam-extend: Open Source CFD                    |
|  \\    /   O peration     | Version:     5.0                                |
|   \\  /    A nd           | Web:         http://www.foam-extend.org         |
|    \\/     M anipulation  |                                                 |
\*---------------------------------------------------------------------------*/
FoamFile
{
    version     2.0;
    format      ascii;
    class       volScalarField;
    location    "5";
    object      H2O.gas;
}
// * * * * * * * * * * * * * * * * * * * * * * * * * * * * * * * * * * * * * //

dimensions      [0 0 0 0 0 0 0];

internalField   nonuniform List<scalar> 
100
(
0.000304493
0.000276044
0.00025991
0.000244912
0.000233591
0.000224993
0.000216379
0.000207503
0.000200199
0.000193866
0.000188306
0.000183579
0.000179181
0.000174515
0.000171125
0.000168386
0.000165605
0.000162873
0.000160082
0.000157276
0.000154429
0.00015159
0.000148872
0.000146795
0.000144311
0.000142084
0.000139772
0.000137483
0.000136026
0.000134214
0.000132182
0.000130553
0.000128821
0.00012746
0.000126153
0.000124414
0.000123055
0.000121596
0.000120239
0.000118809
0.000117304
0.000115951
0.000114464
0.000113137
0.000111897
0.000110434
0.000109221
0.000108138
0.00010695
0.000105586
0.000104516
0.000103422
0.000102303
0.00010117
0.000100036
9.89114e-05
9.78069e-05
9.67103e-05
9.55026e-05
9.41868e-05
9.30774e-05
9.18154e-05
9.0581e-05
8.9245e-05
8.79772e-05
8.65471e-05
8.52407e-05
8.38746e-05
8.252e-05
8.11745e-05
7.97704e-05
0.0071589
0.0102585
0.0130741
0.0155818
0.0178188
0.0197413
0.0213996
0.0227139
0.0237738
0.0244948
0.024878
0.0249619
0.0247252
0.0241732
0.0233164
0.022189
0.0207711
0.0191773
0.0174686
0.0158065
0.0142386
0.0129394
0.0119453
0.0112295
0.010753
0.0104461
0.0102593
0.0101493
0.0100823
)
;

boundaryField
{
    inlet
    {
        type            fixedValue;
        value           uniform 0;
    }
    outlet
    {
        type            zeroGradient;
    }
    yzfaces
    {
        type            empty;
    }
}


// ************************************************************************* //
