/*--------------------------------*- C++ -*----------------------------------*\
| =========                 |                                                 |
| \\      /  F ield         | foam-extend: Open Source CFD                    |
|  \\    /   O peration     | Version:     5.0                                |
|   \\  /    A nd           | Web:         http://www.foam-extend.org         |
|    \\/     M anipulation  |                                                 |
\*---------------------------------------------------------------------------*/
FoamFile
{
    version     2.0;
    format      ascii;
    class       surfaceScalarField;
    location    "5";
    object      phi;
}
// * * * * * * * * * * * * * * * * * * * * * * * * * * * * * * * * * * * * * //

dimensions      [0 3 -1 0 0 0 0];

internalField   nonuniform List<scalar> 
99
(
1.22921e-06
1.2289e-06
1.23918e-06
1.24019e-06
1.24047e-06
1.23715e-06
1.23691e-06
1.23552e-06
1.22902e-06
1.2227e-06
1.22509e-06
1.22358e-06
1.21696e-06
1.22163e-06
1.22119e-06
1.22312e-06
1.22475e-06
1.224e-06
1.22836e-06
1.23074e-06
1.22835e-06
1.22942e-06
1.23078e-06
1.23176e-06
1.23065e-06
1.23016e-06
1.23037e-06
1.23374e-06
1.23314e-06
1.22987e-06
1.23529e-06
1.23427e-06
1.23574e-06
1.2351e-06
1.23181e-06
1.23088e-06
1.23056e-06
1.23019e-06
1.23076e-06
1.22875e-06
1.23019e-06
1.23107e-06
1.23252e-06
1.23287e-06
1.23039e-06
1.23032e-06
1.22981e-06
1.22672e-06
1.22574e-06
1.22603e-06
1.2263e-06
1.22513e-06
1.22617e-06
1.22583e-06
1.22653e-06
1.22638e-06
1.22713e-06
1.22611e-06
1.22156e-06
1.22405e-06
1.2201e-06
1.21934e-06
1.21656e-06
1.21593e-06
1.21441e-06
1.21425e-06
1.21421e-06
1.21492e-06
1.216e-06
1.21517e-06
1.21511e-06
1.21454e-06
1.21487e-06
1.21719e-06
1.21824e-06
1.21946e-06
1.21896e-06
1.21935e-06
1.22084e-06
1.22042e-06
1.21994e-06
1.21945e-06
1.2226e-06
1.22429e-06
1.22503e-06
1.22567e-06
1.22594e-06
1.22598e-06
1.22613e-06
1.22691e-06
1.22504e-06
1.22592e-06
1.22429e-06
1.22464e-06
1.22383e-06
1.2228e-06
1.22294e-06
1.22362e-06
1.22418e-06
)
;

boundaryField
{
    inlet
    {
        type            calculated;
        value           uniform -1.225e-06;
    }
    outlet
    {
        type            calculated;
        value           uniform 1.22517e-06;
    }
    yzfaces
    {
        type            empty;
    }
}


// ************************************************************************* //
