/*--------------------------------*- C++ -*----------------------------------*\
| =========                 |                                                 |
| \\      /  F ield         | foam-extend: Open Source CFD                    |
|  \\    /   O peration     | Version:     5.0                                |
|   \\  /    A nd           | Web:         http://www.foam-extend.org         |
|    \\/     M anipulation  |                                                 |
\*---------------------------------------------------------------------------*/
FoamFile
{
    version     2.0;
    format      ascii;
    class       volVectorField;
    location    "5";
    object      U.gas;
}
// * * * * * * * * * * * * * * * * * * * * * * * * * * * * * * * * * * * * * //

dimensions      [0 1 -1 0 0 0 0];

internalField   nonuniform List<vector> 
100
(
(0.00639264 0 0)
(0.00702905 0 0)
(0.00745976 0 0)
(0.00791302 0 0)
(0.00825539 0 0)
(0.00851638 0 0)
(0.00879541 0 0)
(0.00910677 0 0)
(0.0093438 0 0)
(0.00953441 0 0)
(0.00973573 0 0)
(0.00992637 0 0)
(0.010073 0 0)
(0.0102631 0 0)
(0.0104158 0 0)
(0.0105355 0 0)
(0.0106737 0 0)
(0.0107973 0 0)
(0.0109369 0 0)
(0.0110937 0 0)
(0.0112243 0 0)
(0.0113471 0 0)
(0.0114799 0 0)
(0.0115751 0 0)
(0.0116954 0 0)
(0.0117847 0 0)
(0.0118898 0 0)
(0.0120112 0 0)
(0.0120726 0 0)
(0.0121423 0 0)
(0.0122475 0 0)
(0.01233 0 0)
(0.0124098 0 0)
(0.0124623 0 0)
(0.0124963 0 0)
(0.0125598 0 0)
(0.0125961 0 0)
(0.0126556 0 0)
(0.012708 0 0)
(0.012758 0 0)
(0.0128154 0 0)
(0.0128707 0 0)
(0.0129397 0 0)
(0.0129893 0 0)
(0.0130165 0 0)
(0.0130603 0 0)
(0.0130828 0 0)
(0.0130894 0 0)
(0.0131078 0 0)
(0.0131496 0 0)
(0.0131653 0 0)
(0.0131893 0 0)
(0.0132164 0 0)
(0.013245 0 0)
(0.0132684 0 0)
(0.0132907 0 0)
(0.0133102 0 0)
(0.0133244 0 0)
(0.0133193 0 0)
(0.0133302 0 0)
(0.0133178 0 0)
(0.0133103 0 0)
(0.013295 0 0)
(0.0132856 0 0)
(0.0132668 0 0)
(0.0132656 0 0)
(0.0132445 0 0)
(0.0132391 0 0)
(0.0132299 0 0)
(0.0132065 0 0)
(0.0131782 0 0)
(0.0131401 0 0)
(0.0131029 0 0)
(0.0130697 0 0)
(0.013025 0 0)
(0.0129775 0 0)
(0.012907 0 0)
(0.0128195 0 0)
(0.0127278 0 0)
(0.0126056 0 0)
(0.0124586 0 0)
(0.0122878 0 0)
(0.0120953 0 0)
(0.0118693 0 0)
(0.0115769 0 0)
(0.0112194 0 0)
(0.0107794 0 0)
(0.0102491 0 0)
(0.00962817 0 0)
(0.00892399 0 0)
(0.00815886 0 0)
(0.00738162 0 0)
(0.00665812 0 0)
(0.00604091 0 0)
(0.0055612 0 0)
(0.00522074 0 0)
(0.00499608 0 0)
(0.00485346 0 0)
(0.0047681 0 0)
(0.00471861 0 0)
)
;

boundaryField
{
    inlet
    {
        type            fixedValue;
        value           uniform (0.005 0 0);
    }
    outlet
    {
        type            zeroGradient;
    }
    yzfaces
    {
        type            empty;
    }
}


// ************************************************************************* //
