/*--------------------------------*- C++ -*----------------------------------*\
| =========                 |                                                 |
| \\      /  F ield         | foam-extend: Open Source CFD                    |
|  \\    /   O peration     | Version:     5.0                                |
|   \\  /    A nd           | Web:         http://www.foam-extend.org         |
|    \\/     M anipulation  |                                                 |
\*---------------------------------------------------------------------------*/
FoamFile
{
    version     2.0;
    format      ascii;
    class       volVectorField;
    location    "5";
    object      U.water;
}
// * * * * * * * * * * * * * * * * * * * * * * * * * * * * * * * * * * * * * //

dimensions      [0 1 -1 0 0 0 0];

internalField   nonuniform List<vector> 
100
(
(5.05935e-05 0 0)
(0.000119785 0 0)
(0.000177311 0 0)
(0.000227036 0 0)
(0.000278798 0 0)
(0.000323986 0 0)
(0.000366518 0 0)
(0.000415493 0 0)
(0.000467018 0 0)
(0.000513373 0 0)
(0.000558791 0 0)
(0.000602874 0 0)
(0.000642209 0 0)
(0.000685303 0 0)
(0.000729756 0 0)
(0.000763967 0 0)
(0.000795767 0 0)
(0.000829085 0 0)
(0.000865478 0 0)
(0.000904084 0 0)
(0.000941604 0 0)
(0.000981629 0 0)
(0.0010246 0 0)
(0.00106414 0 0)
(0.00109939 0 0)
(0.00113835 0 0)
(0.00117718 0 0)
(0.00121955 0 0)
(0.00125734 0 0)
(0.00128546 0 0)
(0.00132379 0 0)
(0.00136441 0 0)
(0.00139923 0 0)
(0.00143338 0 0)
(0.00145996 0 0)
(0.00148993 0 0)
(0.00152585 0 0)
(0.00155712 0 0)
(0.00159021 0 0)
(0.00162277 0 0)
(0.00165798 0 0)
(0.00169647 0 0)
(0.00173487 0 0)
(0.00177354 0 0)
(0.00180658 0 0)
(0.00184075 0 0)
(0.00187894 0 0)
(0.00190933 0 0)
(0.00193793 0 0)
(0.00197409 0 0)
(0.00201186 0 0)
(0.00204336 0 0)
(0.00207675 0 0)
(0.00211241 0 0)
(0.00214895 0 0)
(0.0021859 0 0)
(0.00222304 0 0)
(0.00225913 0 0)
(0.00229119 0 0)
(0.00233131 0 0)
(0.00237245 0 0)
(0.0024086 0 0)
(0.00244886 0 0)
(0.00249086 0 0)
(0.00253606 0 0)
(0.00258265 0 0)
(0.00263394 0 0)
(0.00268458 0 0)
(0.00273826 0 0)
(0.00279085 0 0)
(0.00284309 0 0)
(0.00289807 0 0)
(0.00295559 0 0)
(0.00302055 0 0)
(0.00308798 0 0)
(0.00315522 0 0)
(0.00322457 0 0)
(0.00329631 0 0)
(0.00337604 0 0)
(0.00345968 0 0)
(0.00354436 0 0)
(0.00363573 0 0)
(0.00374077 0 0)
(0.0038573 0 0)
(0.00397793 0 0)
(0.00410362 0 0)
(0.00423497 0 0)
(0.00436818 0 0)
(0.00449944 0 0)
(0.00462442 0 0)
(0.00473088 0 0)
(0.00481858 0 0)
(0.00488543 0 0)
(0.00493151 0 0)
(0.0049633 0 0)
(0.00498019 0 0)
(0.00499104 0 0)
(0.00500054 0 0)
(0.00500767 0 0)
(0.00501355 0 0)
)
;

boundaryField
{
    inlet
    {
        type            fixedValue;
        value           uniform (0 0 0);
    }
    outlet
    {
        type            zeroGradient;
    }
    yzfaces
    {
        type            empty;
    }
}


// ************************************************************************* //
