/*--------------------------------*- C++ -*----------------------------------*\
| =========                 |                                                 |
| \\      /  F ield         | foam-extend: Open Source CFD                    |
|  \\    /   O peration     | Version:     5.0                                |
|   \\  /    A nd           | Web:         http://www.foam-extend.org         |
|    \\/     M anipulation  |                                                 |
\*---------------------------------------------------------------------------*/
FoamFile
{
    version     2.0;
    format      ascii;
    class       volScalarField;
    location    "6";
    object      alpha.water;
}
// * * * * * * * * * * * * * * * * * * * * * * * * * * * * * * * * * * * * * //

dimensions      [0 0 0 0 0 0 0];

internalField   nonuniform List<scalar> 
100
(
0.00327868
0.00518141
0.00686935
0.00843166
0.00989972
0.0112909
0.0126203
0.0138906
0.0151107
0.0162829
0.0174172
0.0185064
0.0195654
0.0205859
0.0215798
0.0225426
0.0234744
0.0243846
0.0252688
0.0261251
0.0269627
0.0277792
0.0285759
0.0293481
0.0301106
0.0308541
0.031581
0.0322893
0.0329829
0.0336636
0.0343333
0.0349825
0.0356219
0.0362454
0.0368606
0.0374648
0.0380525
0.0386323
0.0392041
0.0397631
0.0403189
0.0408687
0.0413946
0.0419236
0.0424383
0.0429469
0.0434426
0.0439313
0.0444073
0.0448821
0.0453511
0.045807
0.0462713
0.0467123
0.0471511
0.0475906
0.0480155
0.0484402
0.0488644
0.0492747
0.0496822
0.0500881
0.0504849
0.0508752
0.0512635
0.0516518
0.0520224
0.052399
0.0527685
0.0531273
0.0534895
0.0538466
0.0541928
0.0545422
0.0548857
0.055222
0.0555608
0.0558981
0.0562265
0.0565534
0.0568721
0.0571891
0.0575084
0.0578151
0.058125
0.0584406
0.0587359
0.0590382
0.0593395
0.0596337
0.0599198
0.060206
0.060491
0.0607745
0.0610548
0.0613307
0.0616031
0.0618734
0.0621396
0.062401
)
;

boundaryField
{
    inlet
    {
        type            fixedValue;
        value           uniform 0;
    }
    outlet
    {
        type            zeroGradient;
    }
    yzfaces
    {
        type            empty;
    }
}


// ************************************************************************* //
