/*--------------------------------*- C++ -*----------------------------------*\
| =========                 |                                                 |
| \\      /  F ield         | foam-extend: Open Source CFD                    |
|  \\    /   O peration     | Version:     5.0                                |
|   \\  /    A nd           | Web:         http://www.foam-extend.org         |
|    \\/     M anipulation  |                                                 |
\*---------------------------------------------------------------------------*/
FoamFile
{
    version     2.0;
    format      ascii;
    class       surfaceScalarField;
    location    "6";
    object      phi.gas;
}
// * * * * * * * * * * * * * * * * * * * * * * * * * * * * * * * * * * * * * //

dimensions      [0 3 -1 0 0 0 0];

internalField   nonuniform List<scalar> 
99
(
0.000625789
0.000631545
0.000636841
0.000641928
0.000646757
0.000651538
0.000656103
0.000660486
0.000664788
0.000669004
0.00067294
0.0006771
0.000680951
0.000684871
0.000688714
0.000692459
0.000695995
0.000699535
0.000702901
0.000706263
0.000709526
0.000712979
0.000716179
0.00071934
0.000722547
0.000725494
0.000728543
0.000731699
0.00073461
0.000737704
0.00074051
0.000743363
0.000746105
0.000748944
0.000751668
0.000754341
0.000757055
0.000759603
0.000762336
0.00076498
0.000767669
0.000770265
0.000772602
0.000775407
0.000777989
0.000780351
0.000782955
0.000785292
0.000787715
0.000790097
0.000792174
0.000794626
0.000796965
0.000799248
0.000801617
0.000803765
0.000805875
0.000808039
0.000810182
0.000812299
0.000814391
0.000816565
0.00081859
0.000820733
0.00082293
0.000824862
0.000826881
0.000828965
0.000831041
0.000832933
0.000834964
0.000836983
0.000838853
0.000840995
0.000842898
0.000844873
0.000846888
0.000848881
0.000850764
0.000852626
0.000854471
0.000856295
0.000858151
0.000860001
0.000861779
0.000863552
0.000865184
0.000866972
0.000868689
0.000870641
0.000872383
0.000874231
0.000876015
0.000877737
0.000879416
0.000881203
0.000882884
0.000884564
0.000886115
)
;

boundaryField
{
    inlet
    {
        type            fixedValue;
        value           uniform -0.0006125;
    }
    outlet
    {
        type            calculated;
        value           uniform 0.0008869;
    }
    yzfaces
    {
        type            empty;
    }
}


// ************************************************************************* //
