/*--------------------------------*- C++ -*----------------------------------*\
| =========                 |                                                 |
| \\      /  F ield         | foam-extend: Open Source CFD                    |
|  \\    /   O peration     | Version:     5.0                                |
|   \\  /    A nd           | Web:         http://www.foam-extend.org         |
|    \\/     M anipulation  |                                                 |
\*---------------------------------------------------------------------------*/
FoamFile
{
    version     2.0;
    format      ascii;
    class       volScalarField;
    location    "6";
    object      S.water;
}
// * * * * * * * * * * * * * * * * * * * * * * * * * * * * * * * * * * * * * //

dimensions      [0 0 0 0 0 0 0];

internalField   nonuniform List<scalar> 
100
(
0.0163934
0.0259071
0.0343468
0.0421583
0.0494986
0.0564545
0.0631016
0.0694529
0.0755534
0.0814144
0.0870859
0.0925319
0.0978268
0.102929
0.107899
0.112713
0.117372
0.121923
0.126344
0.130626
0.134813
0.138896
0.142879
0.14674
0.150553
0.154271
0.157905
0.161446
0.164915
0.168318
0.171667
0.174912
0.178109
0.181227
0.184303
0.187324
0.190262
0.193161
0.196021
0.198815
0.201594
0.204344
0.206973
0.209618
0.212191
0.214734
0.217213
0.219656
0.222037
0.224411
0.226755
0.229035
0.231356
0.233562
0.235756
0.237953
0.240078
0.242201
0.244322
0.246373
0.248411
0.250441
0.252425
0.254376
0.256317
0.258259
0.260112
0.261995
0.263843
0.265637
0.267447
0.269233
0.270964
0.272711
0.274428
0.27611
0.277804
0.279491
0.281133
0.282767
0.284361
0.285945
0.287542
0.289075
0.290625
0.292203
0.29368
0.295191
0.296698
0.298168
0.299599
0.30103
0.302455
0.303872
0.305274
0.306653
0.308015
0.309367
0.310698
0.312005
)
;

boundaryField
{
    inlet
    {
        type            calculated;
        value           uniform 0;
    }
    outlet
    {
        type            calculated;
        value           uniform 0.312005;
    }
    yzfaces
    {
        type            empty;
    }
}


// ************************************************************************* //
