/*--------------------------------*- C++ -*----------------------------------*\
| =========                 |                                                 |
| \\      /  F ield         | foam-extend: Open Source CFD                    |
|  \\    /   O peration     | Version:     5.0                                |
|   \\  /    A nd           | Web:         http://www.foam-extend.org         |
|    \\/     M anipulation  |                                                 |
\*---------------------------------------------------------------------------*/
FoamFile
{
    version     2.0;
    format      ascii;
    class       volVectorField;
    location    "6";
    object      U.water;
}
// * * * * * * * * * * * * * * * * * * * * * * * * * * * * * * * * * * * * * //

dimensions      [0 1 -1 0 0 0 0];

internalField   nonuniform List<vector> 
100
(
(7.45574e-05 0 0)
(0.000167318 0 0)
(0.0002527 0 0)
(0.000334265 0 0)
(0.000413306 0 0)
(0.000490441 0 0)
(0.000566026 0 0)
(0.000640405 0 0)
(0.00071357 0 0)
(0.000785721 0 0)
(0.000856763 0 0)
(0.000927254 0 0)
(0.00099675 0 0)
(0.00106571 0 0)
(0.00113377 0 0)
(0.00120151 0 0)
(0.00126834 0 0)
(0.00133426 0 0)
(0.00139999 0 0)
(0.0014651 0 0)
(0.0015293 0 0)
(0.00159344 0 0)
(0.0016572 0 0)
(0.00172021 0 0)
(0.00178252 0 0)
(0.00184472 0 0)
(0.00190636 0 0)
(0.00196797 0 0)
(0.00202891 0 0)
(0.00208948 0 0)
(0.00214983 0 0)
(0.00220994 0 0)
(0.00226915 0 0)
(0.00232819 0 0)
(0.00238682 0 0)
(0.00244535 0 0)
(0.00250358 0 0)
(0.00256103 0 0)
(0.00261858 0 0)
(0.0026761 0 0)
(0.00273298 0 0)
(0.00279024 0 0)
(0.00284699 0 0)
(0.0029028 0 0)
(0.00295968 0 0)
(0.00301536 0 0)
(0.00307126 0 0)
(0.00312659 0 0)
(0.00318149 0 0)
(0.00323583 0 0)
(0.00328986 0 0)
(0.0033438 0 0)
(0.00339772 0 0)
(0.00345255 0 0)
(0.00350583 0 0)
(0.00355895 0 0)
(0.00361207 0 0)
(0.00366415 0 0)
(0.00371657 0 0)
(0.0037694 0 0)
(0.00382121 0 0)
(0.00387325 0 0)
(0.00392551 0 0)
(0.00397724 0 0)
(0.0040288 0 0)
(0.00408038 0 0)
(0.00413181 0 0)
(0.00418215 0 0)
(0.00423366 0 0)
(0.00428445 0 0)
(0.0043344 0 0)
(0.00438529 0 0)
(0.00443564 0 0)
(0.00448552 0 0)
(0.00453601 0 0)
(0.00458584 0 0)
(0.00463558 0 0)
(0.00468571 0 0)
(0.00473557 0 0)
(0.00478486 0 0)
(0.00483418 0 0)
(0.00488259 0 0)
(0.00493128 0 0)
(0.00498052 0 0)
(0.00502816 0 0)
(0.00507633 0 0)
(0.00512503 0 0)
(0.00517182 0 0)
(0.00521983 0 0)
(0.00526887 0 0)
(0.00531735 0 0)
(0.00536489 0 0)
(0.00541276 0 0)
(0.00546023 0 0)
(0.00550745 0 0)
(0.00555492 0 0)
(0.00560228 0 0)
(0.00564904 0 0)
(0.00569548 0 0)
(0.00574177 0 0)
)
;

boundaryField
{
    inlet
    {
        type            fixedValue;
        value           uniform (0 0 0);
    }
    outlet
    {
        type            zeroGradient;
    }
    yzfaces
    {
        type            empty;
    }
}


// ************************************************************************* //
