/*--------------------------------*- C++ -*----------------------------------*\
| =========                 |                                                 |
| \\      /  F ield         | foam-extend: Open Source CFD                    |
|  \\    /   O peration     | Version:     5.0                                |
|   \\  /    A nd           | Web:         http://www.foam-extend.org         |
|    \\/     M anipulation  |                                                 |
\*---------------------------------------------------------------------------*/
FoamFile
{
    version     2.0;
    format      ascii;
    class       volScalarField;
    location    "7";
    object      alpha.gas;
}
// * * * * * * * * * * * * * * * * * * * * * * * * * * * * * * * * * * * * * //

dimensions      [0 0 0 0 0 0 0];

internalField   nonuniform List<scalar> 
100
(
0.163174
0.149777
0.1405
0.133431
0.127121
0.121492
0.117951
0.114625
0.111462
0.10903
0.106578
0.104108
0.101428
0.0992863
0.0975522
0.0950373
0.0924791
0.0906982
0.0893339
0.0879015
0.0866137
0.0854769
0.0849925
0.0847808
0.0841499
0.0832627
0.0822511
0.0811475
0.0805582
0.0800093
0.0794983
0.0786959
0.0777383
0.0766279
0.0756681
0.0746989
0.0738975
0.0729246
0.0718002
0.0707526
0.0697324
0.0686764
0.0677669
0.0669589
0.0664075
0.0657265
0.0650057
0.0641507
0.0633987
0.0627765
0.0621586
0.061605
0.0609353
0.0602991
0.0596496
0.0589204
0.0582757
0.0576026
0.0569054
0.056202
0.055532
0.0548295
0.053999
0.0530879
0.0520304
0.0508719
0.0494601
0.0479232
0.0448162
0.041113
0.0378741
0.0355991
0.0342721
0.0336856
0.0335594
0.0336609
0.0338547
0.0340343
0.0341798
0.0342795
0.0343761
0.0344587
0.0345347
0.0346047
0.0346378
0.0346837
0.0347168
0.0347206
0.0347282
0.0347363
0.0347262
0.0347113
0.0346792
0.0346286
0.0345736
0.0344807
0.0343832
0.0342552
0.0340741
0.0338667
)
;

boundaryField
{
    inlet
    {
        type            fixedValue;
        value           uniform 0.2;
    }
    outlet
    {
        type            zeroGradient;
    }
    yzfaces
    {
        type            empty;
    }
}


// ************************************************************************* //
