/*--------------------------------*- C++ -*----------------------------------*\
| =========                 |                                                 |
| \\      /  F ield         | foam-extend: Open Source CFD                    |
|  \\    /   O peration     | Version:     5.0                                |
|   \\  /    A nd           | Web:         http://www.foam-extend.org         |
|    \\/     M anipulation  |                                                 |
\*---------------------------------------------------------------------------*/
FoamFile
{
    version     2.0;
    format      ascii;
    class       volScalarField;
    location    "7";
    object      Cl.water;
}
// * * * * * * * * * * * * * * * * * * * * * * * * * * * * * * * * * * * * * //

dimensions      [0 0 0 0 0 0 0];

internalField   nonuniform List<scalar> 
100
(
9.00763e-16
0.00160377
0.0034039
0.00435119
0.00473319
0.00507753
0.00565004
0.00623906
0.00664063
0.0068355
0.00697157
0.00717643
0.00735834
0.00747862
0.00755377
0.00769018
0.00791423
0.00808464
0.00820351
0.00832298
0.00846958
0.00856307
0.00862036
0.0086677
0.008709
0.00874741
0.00878524
0.00891174
0.00917462
0.00943723
0.00961884
0.00969424
0.00972746
0.009701
0.00959519
0.0095029
0.0094864
0.00945833
0.00943565
0.00946259
0.00957284
0.0096368
0.00964045
0.00970137
0.0100048
0.0104082
0.0106003
0.0105928
0.0106627
0.0107218
0.0105495
0.0103123
0.0104595
0.0111829
0.0115793
0.0112748
0.0109982
0.0113783
0.0124469
0.0121842
0.0111794
0.0110818
0.0121846
0.0138724
0.0113477
0.0102241
0.0118767
0.0144091
0.00697046
0.010634
0.0154779
0.0182963
0.0195286
0.0199726
0.0200857
0.0201162
0.0201089
0.0200847
0.020074
0.0200627
0.0200649
0.0200549
0.0200512
0.0200364
0.0200115
0.0200218
0.0200212
0.0200171
0.0200323
0.0200334
0.0200435
0.0200354
0.0200478
0.0200495
0.0200584
0.0200597
0.0200765
0.0200788
0.020095
0.0201127
)
;

boundaryField
{
    inlet
    {
        type            fixedValue;
        value           uniform 0;
    }
    outlet
    {
        type            zeroGradient;
    }
    yzfaces
    {
        type            empty;
    }
}


// ************************************************************************* //
