/*--------------------------------*- C++ -*----------------------------------*\
| =========                 |                                                 |
| \\      /  F ield         | foam-extend: Open Source CFD                    |
|  \\    /   O peration     | Version:     5.0                                |
|   \\  /    A nd           | Web:         http://www.foam-extend.org         |
|    \\/     M anipulation  |                                                 |
\*---------------------------------------------------------------------------*/
FoamFile
{
    version     2.0;
    format      ascii;
    class       volScalarField;
    location    "7";
    object      CO2.gas;
}
// * * * * * * * * * * * * * * * * * * * * * * * * * * * * * * * * * * * * * //

dimensions      [0 0 0 0 0 0 0];

internalField   nonuniform List<scalar> 
100
(
0.163293
0.149801
0.140218
0.132793
0.125568
0.119628
0.11794
0.11495
0.111606
0.109292
0.106351
0.103697
0.100597
0.0986652
0.0969772
0.0938617
0.0914412
0.0901324
0.0891307
0.0878392
0.0869951
0.0862756
0.0864217
0.0865751
0.0858081
0.0847132
0.0834826
0.0821319
0.0817699
0.081126
0.0806164
0.0795297
0.0783345
0.07702
0.0759296
0.0748373
0.0740106
0.072749
0.0715084
0.0703944
0.06946
0.0683795
0.0675894
0.0667988
0.0662792
0.065507
0.0646998
0.0638879
0.0632462
0.062734
0.0621857
0.0616111
0.0609512
0.0603618
0.0597571
0.0588933
0.0582635
0.0575892
0.0568858
0.0561729
0.0554742
0.0547789
0.0538322
0.0529184
0.0518401
0.0505943
0.0491675
0.0476245
0.0445192
0.0407416
0.0373687
0.0348842
0.0332779
0.032342
0.031772
0.0314044
0.0310655
0.0306227
0.0300979
0.0294655
0.0287701
0.0279833
0.0271342
0.026194
0.0251549
0.0241237
0.0230206
0.021853
0.0206848
0.0194745
0.0182537
0.0170089
0.0157735
0.0145356
0.0133314
0.0121274
0.0109735
0.00984998
0.00876727
0.0077295
)
;

boundaryField
{
    inlet
    {
        type            fixedValue;
        value           uniform 0.2;
    }
    outlet
    {
        type            zeroGradient;
    }
    yzfaces
    {
        type            empty;
    }
}


// ************************************************************************* //
