/*--------------------------------*- C++ -*----------------------------------*\
| =========                 |                                                 |
| \\      /  F ield         | foam-extend: Open Source CFD                    |
|  \\    /   O peration     | Version:     5.0                                |
|   \\  /    A nd           | Web:         http://www.foam-extend.org         |
|    \\/     M anipulation  |                                                 |
\*---------------------------------------------------------------------------*/
FoamFile
{
    version     2.0;
    format      ascii;
    class       volScalarField;
    location    "7";
    object      CO2.water;
}
// * * * * * * * * * * * * * * * * * * * * * * * * * * * * * * * * * * * * * //

dimensions      [0 0 0 0 0 0 0];

internalField   nonuniform List<scalar> 
100
(
0.000968066
0.000972078
0.000821123
0.000796314
0.000863906
0.000928107
0.000928241
0.000894288
0.000886774
0.000911918
0.000935842
0.000952255
0.000972688
0.00100741
0.00103635
0.00105402
0.00107545
0.00109927
0.00112128
0.0011357
0.0011531
0.00117715
0.00119908
0.00120865
0.00121074
0.00121924
0.00123153
0.00122578
0.00119317
0.00114769
0.00112198
0.00111551
0.0011245
0.00115217
0.00119538
0.00123546
0.00125965
0.00127712
0.00130641
0.00132471
0.00133163
0.00134444
0.00137235
0.00138272
0.00133257
0.00125717
0.00122841
0.00125329
0.00126317
0.00127451
0.00133217
0.00139701
0.00138384
0.0012476
0.00118152
0.00125896
0.00133767
0.00127215
0.00105847
0.00113459
0.00136887
0.00141177
0.00118694
0.000844892
0.00141832
0.00168775
0.00136799
0.000862615
0.00255963
0.00186152
0.000895138
0.000345101
0.000114103
3.35028e-05
8.95993e-06
2.23855e-06
5.35025e-07
1.24975e-07
2.91719e-08
6.9224e-09
1.69174e-09
4.26837e-10
1.11247e-10
2.97803e-11
8.14516e-12
2.26225e-12
6.32736e-13
1.77225e-13
4.969e-14
1.38877e-14
3.86194e-15
1.06937e-15
2.94794e-16
8.09934e-17
2.21071e-17
5.98103e-18
1.60416e-18
4.27989e-19
1.16177e-19
3.77699e-20
)
;

boundaryField
{
    inlet
    {
        type            fixedValue;
        value           uniform 0;
    }
    outlet
    {
        type            zeroGradient;
    }
    yzfaces
    {
        type            empty;
    }
}


// ************************************************************************* //
