/*--------------------------------*- C++ -*----------------------------------*\
| =========                 |                                                 |
| \\      /  F ield         | foam-extend: Open Source CFD                    |
|  \\    /   O peration     | Version:     5.0                                |
|   \\  /    A nd           | Web:         http://www.foam-extend.org         |
|    \\/     M anipulation  |                                                 |
\*---------------------------------------------------------------------------*/
FoamFile
{
    version     2.0;
    format      ascii;
    class       volScalarField;
    location    "7";
    object      Na.water;
}
// * * * * * * * * * * * * * * * * * * * * * * * * * * * * * * * * * * * * * //

dimensions      [0 0 0 0 0 0 0];

internalField   nonuniform List<scalar> 
100
(
9.00737e-16
0.00160339
0.00340255
0.00434945
0.00473007
0.00507622
0.00565251
0.00624056
0.00663732
0.00682957
0.0069697
0.00717413
0.00735834
0.00748495
0.00756081
0.00769481
0.00792405
0.00809459
0.00821118
0.00832556
0.00846595
0.00856696
0.00862507
0.00866922
0.00870933
0.0087463
0.0087828
0.00890834
0.009174
0.00943744
0.00961648
0.00969675
0.00973179
0.00970388
0.00959257
0.00950327
0.00948306
0.00946221
0.00944101
0.00946154
0.00957027
0.00963195
0.00963576
0.00969004
0.0099944
0.0104028
0.010598
0.0105918
0.0106634
0.0107217
0.0105457
0.0103081
0.0104538
0.0111775
0.0115746
0.0112661
0.0109884
0.011367
0.0124327
0.0121681
0.0111667
0.0110691
0.0121751
0.0138636
0.0113413
0.0102197
0.0118693
0.0144056
0.0069691
0.010634
0.0154806
0.0182939
0.019532
0.0199708
0.0200865
0.0201126
0.0201036
0.0200828
0.0200706
0.0200551
0.020056
0.0200431
0.0200403
0.0200224
0.0199956
0.0200062
0.0200057
0.0199973
0.020013
0.020019
0.0200263
0.0200232
0.0200361
0.0200327
0.0200497
0.0200512
0.0200727
0.0200795
0.0200944
0.0201062
)
;

boundaryField
{
    inlet
    {
        type            fixedValue;
        value           uniform 0;
    }
    outlet
    {
        type            zeroGradient;
    }
    yzfaces
    {
        type            empty;
    }
}


// ************************************************************************* //
