/*--------------------------------*- C++ -*----------------------------------*\
| =========                 |                                                 |
| \\      /  F ield         | foam-extend: Open Source CFD                    |
|  \\    /   O peration     | Version:     5.0                                |
|   \\  /    A nd           | Web:         http://www.foam-extend.org         |
|    \\/     M anipulation  |                                                 |
\*---------------------------------------------------------------------------*/
FoamFile
{
    version     2.0;
    format      ascii;
    class       surfaceScalarField;
    location    "7";
    object      phi;
}
// * * * * * * * * * * * * * * * * * * * * * * * * * * * * * * * * * * * * * //

dimensions      [0 3 -1 0 0 0 0];

internalField   nonuniform List<scalar> 
99
(
1.22227e-06
1.22088e-06
1.20034e-06
1.20307e-06
1.20746e-06
1.22518e-06
1.22973e-06
1.23559e-06
1.23567e-06
1.232e-06
1.22872e-06
1.22021e-06
1.2227e-06
1.22109e-06
1.21625e-06
1.21551e-06
1.22154e-06
1.22404e-06
1.22477e-06
1.22738e-06
1.2304e-06
1.23913e-06
1.24144e-06
1.23952e-06
1.23567e-06
1.2302e-06
1.21947e-06
1.21692e-06
1.21228e-06
1.20838e-06
1.1974e-06
1.19198e-06
1.18144e-06
1.17686e-06
1.17193e-06
1.17073e-06
1.16937e-06
1.1635e-06
1.16533e-06
1.16629e-06
1.16452e-06
1.16225e-06
1.1621e-06
1.16621e-06
1.16484e-06
1.16506e-06
1.16188e-06
1.16487e-06
1.16771e-06
1.16322e-06
1.16483e-06
1.16543e-06
1.16707e-06
1.16487e-06
1.16416e-06
1.16728e-06
1.16411e-06
1.16328e-06
1.16066e-06
1.16397e-06
1.16111e-06
1.16151e-06
1.15915e-06
1.1607e-06
1.16266e-06
1.16293e-06
1.16487e-06
1.16405e-06
1.16443e-06
1.16431e-06
1.16607e-06
1.1653e-06
1.16509e-06
1.16621e-06
1.16672e-06
1.16793e-06
1.16743e-06
1.16772e-06
1.16766e-06
1.17171e-06
1.17024e-06
1.17188e-06
1.17013e-06
1.16799e-06
1.16814e-06
1.16851e-06
1.1694e-06
1.17046e-06
1.17161e-06
1.17139e-06
1.17238e-06
1.17224e-06
1.17215e-06
1.17288e-06
1.17152e-06
1.17184e-06
1.17139e-06
1.16911e-06
1.16999e-06
)
;

boundaryField
{
    inlet
    {
        type            calculated;
        value           uniform -1.225e-06;
    }
    outlet
    {
        type            calculated;
        value           uniform 1.17174e-06;
    }
    yzfaces
    {
        type            empty;
    }
}


// ************************************************************************* //
