/*--------------------------------*- C++ -*----------------------------------*\
| =========                 |                                                 |
| \\      /  F ield         | foam-extend: Open Source CFD                    |
|  \\    /   O peration     | Version:     5.0                                |
|   \\  /    A nd           | Web:         http://www.foam-extend.org         |
|    \\/     M anipulation  |                                                 |
\*---------------------------------------------------------------------------*/
FoamFile
{
    version     2.0;
    format      ascii;
    class       volVectorField;
    location    "7";
    object      U.gas;
}
// * * * * * * * * * * * * * * * * * * * * * * * * * * * * * * * * * * * * * //

dimensions      [0 1 -1 0 0 0 0];

internalField   nonuniform List<vector> 
100
(
(0.00611277 0 0)
(0.00662722 0 0)
(0.0069761 0 0)
(0.00726356 0 0)
(0.00761498 0 0)
(0.00800313 0 0)
(0.00828294 0 0)
(0.0085269 0 0)
(0.00875459 0 0)
(0.00890227 0 0)
(0.00904732 0 0)
(0.0091795 0 0)
(0.00935426 0 0)
(0.00951334 0 0)
(0.00961535 0 0)
(0.00979686 0 0)
(0.0100238 0 0)
(0.0101938 0 0)
(0.0103136 0 0)
(0.0104486 0 0)
(0.0105784 0 0)
(0.0107232 0 0)
(0.0107996 0 0)
(0.0108146 0 0)
(0.0108526 0 0)
(0.0108935 0 0)
(0.0109122 0 0)
(0.0109499 0 0)
(0.0109565 0 0)
(0.0109637 0 0)
(0.0109382 0 0)
(0.0109402 0 0)
(0.0109536 0 0)
(0.0109819 0 0)
(0.0110141 0 0)
(0.0110673 0 0)
(0.0111172 0 0)
(0.0111702 0 0)
(0.0112496 0 0)
(0.0113474 0 0)
(0.0114275 0 0)
(0.0114959 0 0)
(0.0115507 0 0)
(0.0116312 0 0)
(0.0116773 0 0)
(0.011731 0 0)
(0.0117741 0 0)
(0.0118451 0 0)
(0.011926 0 0)
(0.0119567 0 0)
(0.0119859 0 0)
(0.0120326 0 0)
(0.0120999 0 0)
(0.0121388 0 0)
(0.0121666 0 0)
(0.0122334 0 0)
(0.01227 0 0)
(0.0122926 0 0)
(0.0123181 0 0)
(0.0123623 0 0)
(0.0123996 0 0)
(0.0124261 0 0)
(0.0124686 0 0)
(0.0125142 0 0)
(0.0125912 0 0)
(0.0126593 0 0)
(0.0127456 0 0)
(0.0128053 0 0)
(0.01305 0 0)
(0.0131264 0 0)
(0.0129435 0 0)
(0.0125905 0 0)
(0.0122323 0 0)
(0.0119871 0 0)
(0.011865 0 0)
(0.0118317 0 0)
(0.0118408 0 0)
(0.0118673 0 0)
(0.0118956 0 0)
(0.0119413 0 0)
(0.0119678 0 0)
(0.0119819 0 0)
(0.0119917 0 0)
(0.0119824 0 0)
(0.0119863 0 0)
(0.0119921 0 0)
(0.0120067 0 0)
(0.0120239 0 0)
(0.0120346 0 0)
(0.0120405 0 0)
(0.0120471 0 0)
(0.0120512 0 0)
(0.0120506 0 0)
(0.0120514 0 0)
(0.0120424 0 0)
(0.0120353 0 0)
(0.012023 0 0)
(0.0119985 0 0)
(0.0119821 0 0)
(0.011975 0 0)
)
;

boundaryField
{
    inlet
    {
        type            fixedValue;
        value           uniform (0.005 0 0);
    }
    outlet
    {
        type            zeroGradient;
    }
    yzfaces
    {
        type            empty;
    }
}


// ************************************************************************* //
