/*--------------------------------*- C++ -*----------------------------------*\
| =========                 |                                                 |
| \\      /  F ield         | foam-extend: Open Source CFD                    |
|  \\    /   O peration     | Version:     5.0                                |
|   \\  /    A nd           | Web:         http://www.foam-extend.org         |
|    \\/     M anipulation  |                                                 |
\*---------------------------------------------------------------------------*/
FoamFile
{
    version     2.0;
    format      ascii;
    class       volVectorField;
    location    "7";
    object      U.water;
}
// * * * * * * * * * * * * * * * * * * * * * * * * * * * * * * * * * * * * * //

dimensions      [0 1 -1 0 0 0 0];

internalField   nonuniform List<vector> 
100
(
(3.90871e-05 0 0)
(9.16194e-05 0 0)
(0.000136321 0 0)
(0.000177266 0 0)
(0.000217714 0 0)
(0.000262416 0 0)
(0.000304934 0 0)
(0.000338016 0 0)
(0.000371321 0 0)
(0.000402307 0 0)
(0.000429492 0 0)
(0.000457784 0 0)
(0.000490216 0 0)
(0.00052549 0 0)
(0.000554775 0 0)
(0.000585811 0 0)
(0.000629865 0 0)
(0.000673696 0 0)
(0.000706277 0 0)
(0.000735348 0 0)
(0.000766742 0 0)
(0.000797949 0 0)
(0.000822476 0 0)
(0.000831196 0 0)
(0.000837598 0 0)
(0.000851985 0 0)
(0.000868999 0 0)
(0.000890888 0 0)
(0.000911522 0 0)
(0.000923633 0 0)
(0.000932675 0 0)
(0.000942296 0 0)
(0.000958828 0 0)
(0.000981224 0 0)
(0.00100759 0 0)
(0.00103327 0 0)
(0.00105953 0 0)
(0.00108286 0 0)
(0.00111404 0 0)
(0.00115149 0 0)
(0.0011859 0 0)
(0.00121993 0 0)
(0.00125509 0 0)
(0.00128923 0 0)
(0.00131736 0 0)
(0.00134011 0 0)
(0.00136588 0 0)
(0.00139729 0 0)
(0.0014347 0 0)
(0.0014633 0 0)
(0.00148863 0 0)
(0.00151638 0 0)
(0.00154412 0 0)
(0.00157376 0 0)
(0.00160236 0 0)
(0.00163603 0 0)
(0.00166907 0 0)
(0.00169856 0 0)
(0.00173021 0 0)
(0.0017667 0 0)
(0.00180274 0 0)
(0.00183707 0 0)
(0.00187612 0 0)
(0.00192308 0 0)
(0.00198139 0 0)
(0.00204669 0 0)
(0.00212386 0 0)
(0.00221539 0 0)
(0.00235557 0 0)
(0.00258574 0 0)
(0.0028432 0 0)
(0.00306184 0 0)
(0.00320978 0 0)
(0.00329352 0 0)
(0.00332873 0 0)
(0.00333448 0 0)
(0.00332445 0 0)
(0.0033093 0 0)
(0.00329651 0 0)
(0.00329171 0 0)
(0.00328753 0 0)
(0.00328067 0 0)
(0.00327436 0 0)
(0.00326301 0 0)
(0.00325554 0 0)
(0.0032532 0 0)
(0.00325148 0 0)
(0.00325248 0 0)
(0.00325532 0 0)
(0.00325591 0 0)
(0.00325697 0 0)
(0.00325897 0 0)
(0.00326026 0 0)
(0.00326436 0 0)
(0.00326763 0 0)
(0.00327145 0 0)
(0.00327884 0 0)
(0.00328394 0 0)
(0.00329338 0 0)
(0.00331212 0 0)
)
;

boundaryField
{
    inlet
    {
        type            fixedValue;
        value           uniform (0 0 0);
    }
    outlet
    {
        type            zeroGradient;
    }
    yzfaces
    {
        type            empty;
    }
}


// ************************************************************************* //
