/*--------------------------------*- C++ -*----------------------------------*\
| =========                 |                                                 |
| \\      /  F ield         | foam-extend: Open Source CFD                    |
|  \\    /   O peration     | Version:     5.0                                |
|   \\  /    A nd           | Web:         http://www.foam-extend.org         |
|    \\/     M anipulation  |                                                 |
\*---------------------------------------------------------------------------*/
FoamFile
{
    version     2.0;
    format      ascii;
    class       volScalarField;
    location    "3";
    object      Cl.water;
}
// * * * * * * * * * * * * * * * * * * * * * * * * * * * * * * * * * * * * * //

dimensions      [0 0 0 0 0 0 0];

internalField   nonuniform List<scalar> 
100
(
0.00633243
0.00820906
0.00941973
0.0102709
0.0110001
0.0116006
0.0121156
0.0124877
0.0129031
0.0131756
0.0134778
0.0137767
0.0140421
0.0142508
0.0144928
0.0147106
0.0149137
0.0150993
0.0152778
0.0154441
0.0156
0.0157345
0.015887
0.0160266
0.0161644
0.0162882
0.0164244
0.016546
0.016668
0.0167899
0.0169177
0.0170214
0.0171354
0.01726
0.0173707
0.0174904
0.0176084
0.0177306
0.0178485
0.0179646
0.0180983
0.0182101
0.0183311
0.0184662
0.0185926
0.0187292
0.0188756
0.0190365
0.0191862
0.0193798
0.0195557
0.0197483
0.0199613
0.0201941
0.0204286
0.0206651
0.0209082
0.021134
0.0213351
0.0214963
0.0216084
0.0216836
0.0217484
0.0217776
0.0217958
0.0217955
0.0218114
0.0218169
0.0218069
0.021811
0.0218211
0.0218122
0.0218255
0.0218279
0.0218224
0.021831
0.0218325
0.0218152
0.0218207
0.0218152
0.0218186
0.0218164
0.021818
0.02181
0.021818
0.0218311
0.0218242
0.0218212
0.0218319
0.0218091
0.0218057
0.0218168
0.0218107
0.0217957
0.0217992
0.0218159
0.0218174
0.0218167
0.0217982
0.021798
)
;

boundaryField
{
    inlet
    {
        type            fixedValue;
        value           uniform 0;
    }
    outlet
    {
        type            zeroGradient;
    }
    yzfaces
    {
        type            empty;
    }
}


// ************************************************************************* //
