/*--------------------------------*- C++ -*----------------------------------*\
| =========                 |                                                 |
| \\      /  F ield         | foam-extend: Open Source CFD                    |
|  \\    /   O peration     | Version:     5.0                                |
|   \\  /    A nd           | Web:         http://www.foam-extend.org         |
|    \\/     M anipulation  |                                                 |
\*---------------------------------------------------------------------------*/
FoamFile
{
    version     2.0;
    format      ascii;
    class       volScalarField;
    location    "3";
    object      Na.water;
}
// * * * * * * * * * * * * * * * * * * * * * * * * * * * * * * * * * * * * * //

dimensions      [0 0 0 0 0 0 0];

internalField   nonuniform List<scalar> 
100
(
0.00633315
0.00820319
0.00941428
0.0102633
0.0109909
0.0115984
0.0121141
0.012479
0.0129007
0.0131739
0.0134724
0.0137657
0.0140334
0.0142467
0.0144842
0.0147106
0.0149195
0.0150965
0.0152642
0.0154359
0.0155983
0.015734
0.0158846
0.0160198
0.016152
0.0162782
0.0164175
0.0165379
0.016659
0.0167808
0.016913
0.0170236
0.0171312
0.0172544
0.0173677
0.0174825
0.0175994
0.0177129
0.017833
0.01795
0.0180782
0.0181949
0.0183228
0.0184529
0.0185856
0.0187318
0.0188779
0.0190397
0.0191876
0.0193757
0.0195506
0.0197457
0.0199516
0.0201908
0.0204232
0.0206658
0.0209033
0.0211249
0.0213367
0.0214987
0.0216108
0.0216864
0.0217461
0.0217724
0.0217996
0.0218083
0.0218288
0.0218298
0.0218199
0.0218244
0.0218251
0.0218114
0.0218251
0.0218192
0.0218145
0.0218213
0.0218243
0.0218136
0.0218213
0.0218242
0.0218217
0.0218105
0.0218121
0.0218017
0.0218137
0.0218258
0.0218161
0.0218129
0.0218344
0.0218167
0.0218096
0.0218208
0.0218162
0.0218032
0.0218055
0.0218204
0.0218285
0.0218384
0.021823
0.0217987
)
;

boundaryField
{
    inlet
    {
        type            fixedValue;
        value           uniform 0;
    }
    outlet
    {
        type            zeroGradient;
    }
    yzfaces
    {
        type            empty;
    }
}


// ************************************************************************* //
