/*--------------------------------*- C++ -*----------------------------------*\
| =========                 |                                                 |
| \\      /  F ield         | foam-extend: Open Source CFD                    |
|  \\    /   O peration     | Version:     5.0                                |
|   \\  /    A nd           | Web:         http://www.foam-extend.org         |
|    \\/     M anipulation  |                                                 |
\*---------------------------------------------------------------------------*/
FoamFile
{
    version     2.0;
    format      ascii;
    class       volScalarField;
    location    "1";
    object      alpha.gas;
}
// * * * * * * * * * * * * * * * * * * * * * * * * * * * * * * * * * * * * * //

dimensions      [0 0 0 0 0 0 0];

internalField   nonuniform List<scalar> 
100
(
0.115653
0.0974554
0.0861613
0.0784955
0.0723595
0.067372
0.0630199
0.059213
0.0557752
0.0526085
0.0496255
0.0467237
0.0439644
0.0412291
0.0385112
0.0357467
0.0329654
0.0301078
0.0271796
0.0241976
0.0212312
0.0184041
0.0158855
0.0138308
0.0123284
0.0113351
0.0107315
0.0103898
0.0102024
0.0101047
0.010054
0.0100271
0.0100151
0.0100086
0.0100057
0.010003
0.0100016
0.0100008
0.00999983
0.0100007
0.0100004
0.0100015
0.0100026
0.0100019
0.010001
0.0100008
0.0100003
0.0100034
0.0100023
0.00999974
0.0100007
0.0100007
0.0100012
0.00999876
0.00999826
0.00999818
0.00999718
0.00999864
0.0099993
0.010001
0.0100008
0.0100019
0.00999998
0.0099999
0.0099983
0.0100001
0.00999915
0.0100012
0.0100012
0.0100015
0.0100012
0.00999951
0.01
0.0100012
0.0100021
0.0100023
0.0100023
0.0100013
0.0100003
0.0100002
0.0100013
0.00999734
0.00999787
0.00999753
0.00999593
0.00999736
0.00999718
0.00999794
0.00999862
0.00999744
0.00999514
0.00999731
0.00999723
0.00999755
0.00999732
0.00999681
0.00999395
0.0099963
0.00999556
0.00999726
)
;

boundaryField
{
    inlet
    {
        type            fixedValue;
        value           uniform 0.2;
    }
    outlet
    {
        type            zeroGradient;
    }
    yzfaces
    {
        type            empty;
    }
}


// ************************************************************************* //
