/*--------------------------------*- C++ -*----------------------------------*\
| =========                 |                                                 |
| \\      /  F ield         | foam-extend: Open Source CFD                    |
|  \\    /   O peration     | Version:     5.0                                |
|   \\  /    A nd           | Web:         http://www.foam-extend.org         |
|    \\/     M anipulation  |                                                 |
\*---------------------------------------------------------------------------*/
FoamFile
{
    version     2.0;
    format      ascii;
    class       volScalarField;
    location    "1";
    object      alpha.gas;
}
// * * * * * * * * * * * * * * * * * * * * * * * * * * * * * * * * * * * * * //

dimensions      [0 0 0 0 0 0 0];

internalField   nonuniform List<scalar> 
100
(
0.115699
0.0970556
0.0863372
0.0785842
0.0723647
0.0672214
0.0629895
0.0591819
0.0556818
0.0524792
0.0495241
0.0466819
0.0439363
0.0412514
0.03853
0.0357998
0.0330293
0.030179
0.0272657
0.0242981
0.0213449
0.0185256
0.015994
0.0139242
0.0123956
0.0113775
0.0107582
0.0104053
0.0102126
0.0101076
0.0100544
0.01003
0.010015
0.0100089
0.0100053
0.0100048
0.010004
0.0100022
0.0100025
0.010002
0.0100013
0.00999876
0.00999842
0.00999822
0.00999701
0.00999728
0.00999754
0.00999734
0.00999906
0.00999869
0.00999734
0.00999718
0.00999795
0.009999
0.00999832
0.00999847
0.00999769
0.0100012
0.0100013
0.0100018
0.00999923
0.01
0.0100005
0.00999923
0.0100001
0.01
0.00999864
0.0100017
0.0100031
0.0100015
0.00999979
0.0100004
0.00999993
0.0100002
0.00999912
0.00999871
0.0099984
0.00999926
0.00999755
0.00999845
0.00999961
0.0100001
0.00999976
0.00999892
0.00999919
0.00999963
0.0100005
0.00999911
0.0100007
0.00999959
0.010001
0.0100021
0.010002
0.0100026
0.0100023
0.0100018
0.010002
0.00999936
0.0100016
0.0100024
)
;

boundaryField
{
    inlet
    {
        type            fixedValue;
        value           uniform 0.2;
    }
    outlet
    {
        type            zeroGradient;
    }
    yzfaces
    {
        type            empty;
    }
}


// ************************************************************************* //
