/*--------------------------------*- C++ -*----------------------------------*\
| =========                 |                                                 |
| \\      /  F ield         | foam-extend: Open Source CFD                    |
|  \\    /   O peration     | Version:     5.0                                |
|   \\  /    A nd           | Web:         http://www.foam-extend.org         |
|    \\/     M anipulation  |                                                 |
\*---------------------------------------------------------------------------*/
FoamFile
{
    version     2.0;
    format      ascii;
    class       volScalarField;
    location    "1";
    object      Cl.water;
}
// * * * * * * * * * * * * * * * * * * * * * * * * * * * * * * * * * * * * * //

dimensions      [0 0 0 0 0 0 0];

internalField   nonuniform List<scalar> 
100
(
0.00968414
0.0118172
0.0130543
0.0139438
0.0146536
0.0152387
0.0157333
0.0161691
0.0165697
0.0169364
0.0172771
0.0176236
0.0180488
0.0188743
0.021592
0.0340752
0.035056
0.0356953
0.036362
0.0369736
0.037596
0.0382375
0.0387452
0.039184
0.0395132
0.0397328
0.0398664
0.0399203
0.0399607
0.0399919
0.0399822
0.0399486
0.0399868
0.0399634
0.0400096
0.039986
0.0399808
0.0400075
0.039997
0.0399667
0.0400032
0.0400041
0.0400102
0.0400103
0.0399974
0.0399947
0.0399907
0.0400074
0.0399932
0.039999
0.040033
0.040037
0.0399922
0.0400066
0.0400155
0.0400245
0.0400208
0.0400133
0.0400229
0.0400041
0.0400651
0.0400268
0.0399935
0.0400089
0.0400143
0.0399984
0.0400124
0.040009
0.0399639
0.0399872
0.0400242
0.0399989
0.0400288
0.0400361
0.0400405
0.0400619
0.040021
0.039993
0.0400004
0.0400016
0.0399917
0.0400039
0.0400205
0.0400087
0.0400174
0.040009
0.0399855
0.0400173
0.0399973
0.0400335
0.0400328
0.0400154
0.040016
0.0399959
0.0400108
0.0399835
0.0400235
0.0400146
0.0400137
0.0400298
)
;

boundaryField
{
    inlet
    {
        type            fixedValue;
        value           uniform 0;
    }
    outlet
    {
        type            zeroGradient;
    }
    yzfaces
    {
        type            empty;
    }
}


// ************************************************************************* //
