/*--------------------------------*- C++ -*----------------------------------*\
| =========                 |                                                 |
| \\      /  F ield         | foam-extend: Open Source CFD                    |
|  \\    /   O peration     | Version:     5.0                                |
|   \\  /    A nd           | Web:         http://www.foam-extend.org         |
|    \\/     M anipulation  |                                                 |
\*---------------------------------------------------------------------------*/
FoamFile
{
    version     2.0;
    format      ascii;
    class       volScalarField;
    location    "1";
    object      Cl.water;
}
// * * * * * * * * * * * * * * * * * * * * * * * * * * * * * * * * * * * * * //

dimensions      [0 0 0 0 0 0 0];

internalField   nonuniform List<scalar> 
100
(
0.00968601
0.0117826
0.0130611
0.0139502
0.0146536
0.0152292
0.0157194
0.0161622
0.0165616
0.0169261
0.0172718
0.0176018
0.0179223
0.0182309
0.0185413
0.0188571
0.0191785
0.0195037
0.0198418
0.0201826
0.0205235
0.0208489
0.0211466
0.0213743
0.0215542
0.0216686
0.0217366
0.0217719
0.0217973
0.0218141
0.021819
0.0218236
0.0218211
0.0218199
0.0218176
0.0218173
0.0218125
0.021807
0.0218087
0.0218084
0.0218164
0.0218118
0.0218167
0.0218194
0.0218191
0.0218226
0.0218246
0.0218245
0.0218271
0.021824
0.0218182
0.0218177
0.021825
0.0218248
0.0218198
0.021823
0.0218213
0.0218156
0.0218163
0.0218205
0.0218224
0.0218192
0.0218224
0.0218172
0.0218235
0.0218208
0.0218169
0.0218148
0.021819
0.0218191
0.021821
0.0218212
0.0218166
0.0218184
0.0218192
0.0218178
0.0218187
0.0218207
0.0218166
0.0218045
0.0218086
0.02181
0.0218072
0.0218048
0.0218069
0.021809
0.0218147
0.0218165
0.0218151
0.0218186
0.0218227
0.0218304
0.0218294
0.0218243
0.0218164
0.0218202
0.0218244
0.0218118
0.0218144
0.0218113
)
;

boundaryField
{
    inlet
    {
        type            fixedValue;
        value           uniform 0;
    }
    outlet
    {
        type            zeroGradient;
    }
    yzfaces
    {
        type            empty;
    }
}


// ************************************************************************* //
