/*--------------------------------*- C++ -*----------------------------------*\
| =========                 |                                                 |
| \\      /  F ield         | foam-extend: Open Source CFD                    |
|  \\    /   O peration     | Version:     5.0                                |
|   \\  /    A nd           | Web:         http://www.foam-extend.org         |
|    \\/     M anipulation  |                                                 |
\*---------------------------------------------------------------------------*/
FoamFile
{
    version     2.0;
    format      ascii;
    class       volScalarField;
    location    "1";
    object      CO2.gas;
}
// * * * * * * * * * * * * * * * * * * * * * * * * * * * * * * * * * * * * * //

dimensions      [0 0 0 0 0 0 0];

internalField   nonuniform List<scalar> 
100
(
0.115428
0.0972656
0.0859935
0.0783426
0.0722185
0.0672408
0.0628972
0.0590977
0.0556666
0.0525061
0.0495289
0.0466327
0.0438788
0.0411488
0.0384362
0.0356771
0.0329012
0.0300491
0.0271267
0.0241505
0.0211898
0.0183683
0.0158546
0.0138039
0.0123043
0.011313
0.0107107
0.0103696
0.0101825
0.0100851
0.0100344
0.0100075
0.00999556
0.00998908
0.00998624
0.00998355
0.00998214
0.00998134
0.00998036
0.00998127
0.00998097
0.00998202
0.00998313
0.00998244
0.00998149
0.00998136
0.00998087
0.0099839
0.00998278
0.00998027
0.00998126
0.00998122
0.00998171
0.00997929
0.00997879
0.00997871
0.00997771
0.00997917
0.00997983
0.00998157
0.00998137
0.00998238
0.0099805
0.00998043
0.00997883
0.00998064
0.00997968
0.00998174
0.00998171
0.00998202
0.00998168
0.00998003
0.00998052
0.00998177
0.00998262
0.00998283
0.00998286
0.00998184
0.00998083
0.00998077
0.00998179
0.00997787
0.0099784
0.00997806
0.00997647
0.00997789
0.00997771
0.00997847
0.00997915
0.00997797
0.00997568
0.00997784
0.00997776
0.00997808
0.00997785
0.00997734
0.00997449
0.00997683
0.00997609
0.00997779
)
;

boundaryField
{
    inlet
    {
        type            fixedValue;
        value           uniform 0.2;
    }
    outlet
    {
        type            zeroGradient;
    }
    yzfaces
    {
        type            empty;
    }
}


// ************************************************************************* //
