/*--------------------------------*- C++ -*----------------------------------*\
| =========                 |                                                 |
| \\      /  F ield         | foam-extend: Open Source CFD                    |
|  \\    /   O peration     | Version:     5.0                                |
|   \\  /    A nd           | Web:         http://www.foam-extend.org         |
|    \\/     M anipulation  |                                                 |
\*---------------------------------------------------------------------------*/
FoamFile
{
    version     2.0;
    format      ascii;
    class       volScalarField;
    location    "1";
    object      CO2.water;
}
// * * * * * * * * * * * * * * * * * * * * * * * * * * * * * * * * * * * * * //

dimensions      [0 0 0 0 0 0 0];

internalField   nonuniform List<scalar> 
100
(
0.00221414
0.00270379
0.0029853
0.00318893
0.00335228
0.00348737
0.00359852
0.00369852
0.00379045
0.00387457
0.00395218
0.00402683
0.00409894
0.00416946
0.00424093
0.000155746
3.33387e-05
7.76463e-06
1.96788e-06
5.18614e-07
1.2558e-07
2.63157e-08
4.72506e-09
1.41437e-09
7.37046e-10
3.86401e-10
2.05081e-10
1.10784e-10
6.11449e-11
3.45416e-11
1.98163e-11
1.14903e-11
6.70829e-12
3.91342e-12
2.25771e-12
1.31002e-12
7.58007e-13
4.15006e-13
2.18442e-13
1.12639e-13
5.71137e-14
2.8739e-14
1.44436e-14
7.2638e-15
3.65659e-15
1.83998e-15
9.28292e-16
4.6974e-16
2.3842e-16
1.211e-16
6.10354e-17
3.07008e-17
1.53123e-17
7.60167e-18
3.73946e-18
1.82742e-18
8.86231e-19
4.2732e-19
2.04644e-19
9.78125e-20
4.65096e-20
2.20922e-20
1.04488e-20
4.92028e-21
2.31458e-21
1.0908e-21
5.10019e-22
2.40079e-22
1.12487e-22
5.24064e-23
2.41746e-23
1.11543e-23
5.11518e-24
2.34102e-24
1.06604e-24
4.84899e-25
2.19995e-25
9.92973e-26
4.47979e-26
2.01353e-26
9.03337e-27
4.05223e-27
1.81084e-27
8.06092e-28
3.58559e-28
1.59199e-28
7.04083e-29
3.11564e-29
1.37661e-29
6.06788e-30
2.66678e-30
1.17436e-30
5.15375e-31
2.26429e-31
9.89518e-32
4.33615e-32
1.89393e-32
8.27144e-33
3.60994e-33
2.00832e-33
)
;

boundaryField
{
    inlet
    {
        type            fixedValue;
        value           uniform 0;
    }
    outlet
    {
        type            zeroGradient;
    }
    yzfaces
    {
        type            empty;
    }
}


// ************************************************************************* //
