/*--------------------------------*- C++ -*----------------------------------*\
| =========                 |                                                 |
| \\      /  F ield         | foam-extend: Open Source CFD                    |
|  \\    /   O peration     | Version:     5.0                                |
|   \\  /    A nd           | Web:         http://www.foam-extend.org         |
|    \\/     M anipulation  |                                                 |
\*---------------------------------------------------------------------------*/
FoamFile
{
    version     2.0;
    format      ascii;
    class       volScalarField;
    location    "1";
    object      CO2.water;
}
// * * * * * * * * * * * * * * * * * * * * * * * * * * * * * * * * * * * * * //

dimensions      [0 0 0 0 0 0 0];

internalField   nonuniform List<scalar> 
100
(
0.00221532
0.00269329
0.00298992
0.00319126
0.00335242
0.00348341
0.00359772
0.0036977
0.003788
0.00387117
0.00394952
0.00402573
0.0040982
0.00417005
0.00424143
0.00431404
0.00438709
0.00446214
0.00453905
0.00461737
0.00469528
0.00476953
0.00483568
0.00488965
0.00492911
0.0049552
0.00497105
0.00498002
0.00498495
0.00498751
0.00498885
0.00498955
0.00498987
0.00499004
0.00499011
0.00499018
0.00499022
0.00499024
0.00499027
0.00499024
0.00499025
0.00499022
0.00499019
0.00499021
0.00499024
0.00499024
0.00499025
0.00499017
0.0049902
0.00499027
0.00499024
0.00499024
0.00499023
0.0049903
0.00499031
0.00499031
0.00499034
0.0049903
0.00499028
0.00499024
0.00499024
0.00499021
0.00499026
0.00499027
0.00499031
0.00499026
0.00499028
0.00499023
0.00499023
0.00499022
0.00499023
0.00499028
0.00499026
0.00499023
0.00499021
0.0049902
0.0049902
0.00499023
0.00499025
0.00499026
0.00499023
0.00499033
0.00499032
0.00499033
0.00499037
0.00499033
0.00499034
0.00499032
0.0049903
0.00499033
0.00499039
0.00499033
0.00499034
0.00499033
0.00499033
0.00499035
0.00499042
0.00499036
0.00499038
0.00499033
)
;

boundaryField
{
    inlet
    {
        type            fixedValue;
        value           uniform 0;
    }
    outlet
    {
        type            zeroGradient;
    }
    yzfaces
    {
        type            empty;
    }
}


// ************************************************************************* //
