/*--------------------------------*- C++ -*----------------------------------*\
| =========                 |                                                 |
| \\      /  F ield         | foam-extend: Open Source CFD                    |
|  \\    /   O peration     | Version:     5.0                                |
|   \\  /    A nd           | Web:         http://www.foam-extend.org         |
|    \\/     M anipulation  |                                                 |
\*---------------------------------------------------------------------------*/
FoamFile
{
    version     2.0;
    format      ascii;
    class       volScalarField;
    location    "1";
    object      H2O.gas;
}
// * * * * * * * * * * * * * * * * * * * * * * * * * * * * * * * * * * * * * //

dimensions      [0 0 0 0 0 0 0];

internalField   nonuniform List<scalar> 
100
(
0.00022532
0.000189013
0.000168139
0.00015304
0.000140928
0.000130912
0.00012267
0.000115255
0.000108439
0.000102202
9.64467e-05
9.09117e-05
8.55647e-05
8.03359e-05
7.50361e-05
0.00826132
0.0114649
0.0139421
0.0156628
0.0165042
0.0165084
0.0158241
0.0146402
0.0133284
0.0121686
0.0113042
0.0107389
0.0103986
0.0102141
0.0101119
0.0100538
0.0100191
0.0100121
0.0100003
0.0100066
0.0100009
0.0100015
0.0100077
0.0100026
0.00999794
0.0100023
0.0099998
0.010002
0.0100011
0.00999776
0.0099993
0.00999724
0.0100013
0.00999931
0.0099995
0.010008
0.010009
0.0099981
0.0100007
0.0100039
0.0100044
0.0100038
0.0100032
0.0100052
0.010002
0.0100132
0.0100055
0.00999884
0.00999987
0.0100024
0.0100015
0.00999927
0.00999916
0.00999301
0.0100014
0.0100066
0.009999
0.0100058
0.010007
0.0100056
0.0100089
0.00999951
0.00999811
0.00999834
0.0100026
0.0100017
0.0100045
0.0100082
0.0100047
0.0100059
0.010003
0.0099984
0.0100018
0.00999663
0.0100056
0.0100004
0.00999935
0.0100011
0.00999867
0.0100032
0.00999554
0.0100058
0.0100026
0.0100054
0.0100093
)
;

boundaryField
{
    inlet
    {
        type            fixedValue;
        value           uniform 0;
    }
    outlet
    {
        type            zeroGradient;
    }
    yzfaces
    {
        type            empty;
    }
}


// ************************************************************************* //
