/*--------------------------------*- C++ -*----------------------------------*\
| =========                 |                                                 |
| \\      /  F ield         | foam-extend: Open Source CFD                    |
|  \\    /   O peration     | Version:     5.0                                |
|   \\  /    A nd           | Web:         http://www.foam-extend.org         |
|    \\/     M anipulation  |                                                 |
\*---------------------------------------------------------------------------*/
FoamFile
{
    version     2.0;
    format      ascii;
    class       volScalarField;
    location    "1";
    object      Na.water;
}
// * * * * * * * * * * * * * * * * * * * * * * * * * * * * * * * * * * * * * //

dimensions      [0 0 0 0 0 0 0];

internalField   nonuniform List<scalar> 
100
(
0.00968147
0.0117842
0.0130644
0.0139585
0.0146625
0.0152366
0.0157362
0.016171
0.0165619
0.0169307
0.0172696
0.0175999
0.0179198
0.018234
0.0185492
0.0188623
0.0191858
0.0195134
0.0198475
0.0201963
0.0205334
0.0208565
0.0211399
0.0213725
0.0215438
0.0216567
0.0217255
0.0217704
0.0217887
0.0217989
0.0218022
0.0218086
0.0218112
0.0218159
0.0218136
0.0218202
0.0218222
0.0218261
0.0218256
0.0218272
0.0218247
0.0218235
0.0218144
0.0218154
0.0218158
0.0218144
0.0218107
0.0218072
0.0218072
0.0218129
0.0218149
0.0218112
0.0218124
0.0218119
0.0218161
0.0218181
0.0218166
0.0218217
0.0218161
0.0218173
0.0218144
0.0218129
0.021817
0.0218146
0.0218149
0.0218161
0.0218209
0.0218176
0.0218163
0.0218163
0.0218168
0.0218155
0.0218166
0.0218158
0.0218163
0.0218138
0.0218127
0.0218156
0.0218203
0.0218281
0.0218268
0.0218327
0.0218293
0.0218307
0.0218331
0.0218268
0.0218269
0.0218219
0.0218204
0.0218165
0.0218141
0.0218095
0.0218103
0.0218141
0.0218146
0.0218209
0.0218203
0.0218239
0.0218277
0.0218254
)
;

boundaryField
{
    inlet
    {
        type            fixedValue;
        value           uniform 0;
    }
    outlet
    {
        type            zeroGradient;
    }
    yzfaces
    {
        type            empty;
    }
}


// ************************************************************************* //
