/*--------------------------------*- C++ -*----------------------------------*\
| =========                 |                                                 |
| \\      /  F ield         | foam-extend: Open Source CFD                    |
|  \\    /   O peration     | Version:     5.0                                |
|   \\  /    A nd           | Web:         http://www.foam-extend.org         |
|    \\/     M anipulation  |                                                 |
\*---------------------------------------------------------------------------*/
FoamFile
{
    version     2.0;
    format      ascii;
    class       volScalarField;
    location    "1";
    object      Na.water;
}
// * * * * * * * * * * * * * * * * * * * * * * * * * * * * * * * * * * * * * //

dimensions      [0 0 0 0 0 0 0];

internalField   nonuniform List<scalar> 
100
(
0.00968007
0.0118127
0.0130566
0.0139532
0.0146646
0.0152561
0.0157427
0.0161772
0.0165731
0.0169417
0.0172953
0.0176434
0.0180619
0.0188798
0.0215902
0.0340635
0.0350565
0.0357024
0.0363801
0.0369986
0.0376086
0.0382441
0.0387396
0.0391622
0.0394973
0.0397148
0.0398517
0.0399183
0.0399655
0.0399838
0.0399779
0.0399478
0.0399864
0.0399578
0.039989
0.0399745
0.0399891
0.0400208
0.0400151
0.0399994
0.0400157
0.0400225
0.0400296
0.0400233
0.0400005
0.0400108
0.0399987
0.0400225
0.0400034
0.0400157
0.0400569
0.0400621
0.0400162
0.0400137
0.0400433
0.0400343
0.0400338
0.0400144
0.0400156
0.039996
0.0400539
0.0400119
0.0399882
0.0399906
0.0400004
0.0399963
0.0399992
0.0399816
0.0399556
0.0399964
0.0400306
0.0399954
0.040013
0.0400167
0.0400259
0.0400405
0.040014
0.0400059
0.0400032
0.0400173
0.0400152
0.0400192
0.0400298
0.0400311
0.0400332
0.0400109
0.0399875
0.0400152
0.0400065
0.0400388
0.0399977
0.0399886
0.040003
0.0399899
0.0400027
0.0399657
0.0400062
0.0400073
0.0400198
0.0400093
)
;

boundaryField
{
    inlet
    {
        type            fixedValue;
        value           uniform 0;
    }
    outlet
    {
        type            zeroGradient;
    }
    yzfaces
    {
        type            empty;
    }
}


// ************************************************************************* //
