/*--------------------------------*- C++ -*----------------------------------*\
| =========                 |                                                 |
| \\      /  F ield         | foam-extend: Open Source CFD                    |
|  \\    /   O peration     | Version:     5.0                                |
|   \\  /    A nd           | Web:         http://www.foam-extend.org         |
|    \\/     M anipulation  |                                                 |
\*---------------------------------------------------------------------------*/
FoamFile
{
    version     2.0;
    format      ascii;
    class       surfaceScalarField;
    location    "1";
    object      phi;
}
// * * * * * * * * * * * * * * * * * * * * * * * * * * * * * * * * * * * * * //

dimensions      [0 3 -1 0 0 0 0];

internalField   nonuniform List<scalar> 
99
(
1.22433e-06
1.22407e-06
1.22672e-06
1.23002e-06
1.22865e-06
1.22929e-06
1.22809e-06
1.22883e-06
1.22755e-06
1.22537e-06
1.22182e-06
1.22085e-06
1.219e-06
1.21836e-06
1.21677e-06
1.2178e-06
1.21638e-06
1.21617e-06
1.21726e-06
1.21611e-06
1.2165e-06
1.21623e-06
1.21506e-06
1.21788e-06
1.21899e-06
1.21978e-06
1.22156e-06
1.22284e-06
1.22391e-06
1.22408e-06
1.22426e-06
1.22331e-06
1.22389e-06
1.22337e-06
1.2243e-06
1.22354e-06
1.22356e-06
1.22336e-06
1.22411e-06
1.22464e-06
1.22325e-06
1.2228e-06
1.2234e-06
1.22383e-06
1.22383e-06
1.22305e-06
1.22298e-06
1.22466e-06
1.22414e-06
1.2241e-06
1.22545e-06
1.22709e-06
1.22653e-06
1.2262e-06
1.2258e-06
1.22428e-06
1.22377e-06
1.22252e-06
1.22281e-06
1.22286e-06
1.22321e-06
1.22306e-06
1.22275e-06
1.22333e-06
1.2236e-06
1.22316e-06
1.22258e-06
1.22442e-06
1.22535e-06
1.22561e-06
1.22401e-06
1.22466e-06
1.22619e-06
1.22624e-06
1.2263e-06
1.22716e-06
1.22958e-06
1.2291e-06
1.22907e-06
1.23009e-06
1.23043e-06
1.22871e-06
1.22894e-06
1.22929e-06
1.22803e-06
1.22838e-06
1.2268e-06
1.22643e-06
1.22727e-06
1.22887e-06
1.22909e-06
1.22821e-06
1.2278e-06
1.22837e-06
1.23e-06
1.22946e-06
1.22713e-06
1.22797e-06
1.22708e-06
)
;

boundaryField
{
    inlet
    {
        type            calculated;
        value           uniform -1.225e-06;
    }
    outlet
    {
        type            calculated;
        value           uniform 1.22734e-06;
    }
    yzfaces
    {
        type            empty;
    }
}


// ************************************************************************* //
