/*--------------------------------*- C++ -*----------------------------------*\
| =========                 |                                                 |
| \\      /  F ield         | foam-extend: Open Source CFD                    |
|  \\    /   O peration     | Version:     5.0                                |
|   \\  /    A nd           | Web:         http://www.foam-extend.org         |
|    \\/     M anipulation  |                                                 |
\*---------------------------------------------------------------------------*/
FoamFile
{
    version     2.0;
    format      ascii;
    class       surfaceScalarField;
    location    "1";
    object      phi;
}
// * * * * * * * * * * * * * * * * * * * * * * * * * * * * * * * * * * * * * //

dimensions      [0 3 -1 0 0 0 0];

internalField   nonuniform List<scalar> 
99
(
1.22269e-06
1.22608e-06
1.22358e-06
1.21935e-06
1.21831e-06
1.2164e-06
1.21295e-06
1.21111e-06
1.21248e-06
1.21397e-06
1.21244e-06
1.21166e-06
1.21445e-06
1.21355e-06
1.21506e-06
1.21443e-06
1.21478e-06
1.2165e-06
1.21718e-06
1.21686e-06
1.21634e-06
1.21449e-06
1.21542e-06
1.21716e-06
1.21682e-06
1.21794e-06
1.21818e-06
1.21832e-06
1.21785e-06
1.21561e-06
1.21476e-06
1.21537e-06
1.21623e-06
1.21847e-06
1.21836e-06
1.22084e-06
1.22165e-06
1.22126e-06
1.2222e-06
1.22466e-06
1.22513e-06
1.22598e-06
1.22581e-06
1.22481e-06
1.22422e-06
1.22334e-06
1.22284e-06
1.2232e-06
1.2233e-06
1.22607e-06
1.22725e-06
1.22605e-06
1.2252e-06
1.22617e-06
1.22556e-06
1.22662e-06
1.22472e-06
1.22573e-06
1.22642e-06
1.22762e-06
1.22796e-06
1.22738e-06
1.22615e-06
1.22557e-06
1.22511e-06
1.22605e-06
1.22557e-06
1.22659e-06
1.22836e-06
1.22891e-06
1.22683e-06
1.22829e-06
1.22625e-06
1.22544e-06
1.22473e-06
1.22451e-06
1.22335e-06
1.22308e-06
1.22348e-06
1.22332e-06
1.22288e-06
1.22387e-06
1.22488e-06
1.22238e-06
1.22163e-06
1.22095e-06
1.21976e-06
1.21983e-06
1.21906e-06
1.21796e-06
1.21706e-06
1.21803e-06
1.21839e-06
1.21783e-06
1.21683e-06
1.21672e-06
1.217e-06
1.21522e-06
1.21388e-06
)
;

boundaryField
{
    inlet
    {
        type            calculated;
        value           uniform -1.225e-06;
    }
    outlet
    {
        type            calculated;
        value           uniform 1.21374e-06;
    }
    yzfaces
    {
        type            empty;
    }
}


// ************************************************************************* //
