/*--------------------------------*- C++ -*----------------------------------*\
| =========                 |                                                 |
| \\      /  F ield         | foam-extend: Open Source CFD                    |
|  \\    /   O peration     | Version:     5.0                                |
|   \\  /    A nd           | Web:         http://www.foam-extend.org         |
|    \\/     M anipulation  |                                                 |
\*---------------------------------------------------------------------------*/
FoamFile
{
    version     2.0;
    format      ascii;
    class       surfaceScalarField;
    location    "1";
    object      phi.water;
}
// * * * * * * * * * * * * * * * * * * * * * * * * * * * * * * * * * * * * * //

dimensions      [0 3 -1 0 0 0 0];

internalField   nonuniform List<scalar> 
99
(
3.84554e-07
6.69035e-07
9.4148e-07
1.18245e-06
1.41859e-06
1.64421e-06
1.87309e-06
2.09761e-06
2.31809e-06
2.53769e-06
2.75821e-06
2.99329e-06
3.22864e-06
3.47826e-06
3.73407e-06
4.01004e-06
4.28371e-06
4.5711e-06
4.86468e-06
5.14311e-06
5.40837e-06
5.63213e-06
5.80429e-06
5.94175e-06
6.02259e-06
6.07207e-06
6.10517e-06
6.124e-06
6.13539e-06
6.13946e-06
6.14213e-06
6.13869e-06
6.14195e-06
6.13995e-06
6.14436e-06
6.13972e-06
6.14079e-06
6.14018e-06
6.1441e-06
6.14482e-06
6.13724e-06
6.13723e-06
6.14092e-06
6.14235e-06
6.14158e-06
6.1376e-06
6.13863e-06
6.14714e-06
6.14309e-06
6.14365e-06
6.15271e-06
6.15955e-06
6.15457e-06
6.15319e-06
6.14978e-06
6.1415e-06
6.14027e-06
6.13555e-06
6.13731e-06
6.13656e-06
6.13942e-06
6.13744e-06
6.13599e-06
6.1393e-06
6.13975e-06
6.13781e-06
6.13656e-06
6.14682e-06
6.15016e-06
6.15006e-06
6.14169e-06
6.14668e-06
6.15507e-06
6.15443e-06
6.15544e-06
6.16078e-06
6.17194e-06
6.16857e-06
6.16956e-06
6.17461e-06
6.17366e-06
6.16507e-06
6.16769e-06
6.16845e-06
6.16223e-06
6.16393e-06
6.15554e-06
6.15561e-06
6.16081e-06
6.16846e-06
6.16769e-06
6.16284e-06
6.16162e-06
6.16624e-06
6.17354e-06
6.16768e-06
6.15741e-06
6.16214e-06
6.15766e-06
)
;

boundaryField
{
    inlet
    {
        type            fixedValue;
        value           uniform 0;
    }
    outlet
    {
        type            calculated;
        value           uniform 6.15989e-06;
    }
    yzfaces
    {
        type            empty;
    }
}


// ************************************************************************* //
