/*--------------------------------*- C++ -*----------------------------------*\
| =========                 |                                                 |
| \\      /  F ield         | foam-extend: Open Source CFD                    |
|  \\    /   O peration     | Version:     5.0                                |
|   \\  /    A nd           | Web:         http://www.foam-extend.org         |
|    \\/     M anipulation  |                                                 |
\*---------------------------------------------------------------------------*/
FoamFile
{
    version     2.0;
    format      ascii;
    class       surfaceScalarField;
    location    "1";
    object      phi.water;
}
// * * * * * * * * * * * * * * * * * * * * * * * * * * * * * * * * * * * * * //

dimensions      [0 3 -1 0 0 0 0];

internalField   nonuniform List<scalar> 
99
(
3.82931e-07
6.80351e-07
9.32599e-07
1.16788e-06
1.4045e-06
1.6352e-06
1.84811e-06
2.06555e-06
2.29712e-06
2.52438e-06
2.74622e-06
2.9773e-06
3.22068e-06
3.46423e-06
3.72983e-06
3.99344e-06
4.27284e-06
4.56501e-06
4.85441e-06
5.13824e-06
5.39655e-06
5.61262e-06
5.79628e-06
5.92856e-06
6.00423e-06
6.05531e-06
6.08346e-06
6.09831e-06
6.10165e-06
6.09541e-06
6.09785e-06
6.10237e-06
6.10666e-06
6.11681e-06
6.1149e-06
6.12866e-06
6.12979e-06
6.12709e-06
6.13479e-06
6.14684e-06
6.14765e-06
6.15119e-06
6.1498e-06
6.14558e-06
6.14299e-06
6.1389e-06
6.1357e-06
6.13744e-06
6.13885e-06
6.14955e-06
6.15207e-06
6.14938e-06
6.14811e-06
6.15131e-06
6.14698e-06
6.15213e-06
6.14395e-06
6.1495e-06
6.15357e-06
6.15634e-06
6.15647e-06
6.1584e-06
6.1537e-06
6.14965e-06
6.147e-06
6.15218e-06
6.15121e-06
6.15943e-06
6.16762e-06
6.16504e-06
6.15521e-06
6.16279e-06
6.15004e-06
6.14578e-06
6.14116e-06
6.14173e-06
6.13943e-06
6.13822e-06
6.13857e-06
6.13736e-06
6.13502e-06
6.13804e-06
6.14274e-06
6.1307e-06
6.12768e-06
6.12701e-06
6.12114e-06
6.12221e-06
6.11711e-06
6.11063e-06
6.1088e-06
6.11368e-06
6.11588e-06
6.1125e-06
6.10823e-06
6.10673e-06
6.10517e-06
6.09641e-06
6.08857e-06
)
;

boundaryField
{
    inlet
    {
        type            fixedValue;
        value           uniform 0;
    }
    outlet
    {
        type            calculated;
        value           uniform 6.08721e-06;
    }
    yzfaces
    {
        type            empty;
    }
}


// ************************************************************************* //
