/*--------------------------------*- C++ -*----------------------------------*\
| =========                 |                                                 |
| \\      /  F ield         | foam-extend: Open Source CFD                    |
|  \\    /   O peration     | Version:     5.0                                |
|   \\  /    A nd           | Web:         http://www.foam-extend.org         |
|    \\/     M anipulation  |                                                 |
\*---------------------------------------------------------------------------*/
FoamFile
{
    version     2.0;
    format      ascii;
    class       volScalarField;
    location    "1";
    object      S.gas;
}
// * * * * * * * * * * * * * * * * * * * * * * * * * * * * * * * * * * * * * //

dimensions      [0 0 0 0 0 0 0];

internalField   nonuniform List<scalar> 
100
(
0.578267
0.487277
0.430806
0.392477
0.361797
0.33686
0.3151
0.296065
0.278876
0.263043
0.248128
0.233618
0.219822
0.206145
0.192556
0.178734
0.164827
0.150539
0.135898
0.120988
0.106156
0.0920206
0.0794277
0.0691542
0.0616418
0.0566755
0.0536577
0.0519492
0.051012
0.0505237
0.0502698
0.0501353
0.0500753
0.0500429
0.0500286
0.0500152
0.0500081
0.0500041
0.0499992
0.0500037
0.0500022
0.0500075
0.0500131
0.0500096
0.0500048
0.0500042
0.0500017
0.0500169
0.0500113
0.0499987
0.0500037
0.0500035
0.0500059
0.0499938
0.0499913
0.0499909
0.0499859
0.0499932
0.0499965
0.0500052
0.0500042
0.0500093
0.0499999
0.0499995
0.0499915
0.0500006
0.0499958
0.0500061
0.0500059
0.0500075
0.0500058
0.0499975
0.05
0.0500062
0.0500105
0.0500116
0.0500117
0.0500066
0.0500015
0.0500012
0.0500063
0.0499867
0.0499893
0.0499877
0.0499797
0.0499868
0.0499859
0.0499897
0.0499931
0.0499872
0.0499757
0.0499866
0.0499862
0.0499878
0.0499866
0.049984
0.0499697
0.0499815
0.0499778
0.0499863
)
;

boundaryField
{
    inlet
    {
        type            calculated;
        value           uniform 1;
    }
    outlet
    {
        type            calculated;
        value           uniform 0.0499863;
    }
    yzfaces
    {
        type            empty;
    }
}


// ************************************************************************* //
