/*--------------------------------*- C++ -*----------------------------------*\
| =========                 |                                                 |
| \\      /  F ield         | foam-extend: Open Source CFD                    |
|  \\    /   O peration     | Version:     5.0                                |
|   \\  /    A nd           | Web:         http://www.foam-extend.org         |
|    \\/     M anipulation  |                                                 |
\*---------------------------------------------------------------------------*/
FoamFile
{
    version     2.0;
    format      ascii;
    class       volScalarField;
    location    "1";
    object      S.gas;
}
// * * * * * * * * * * * * * * * * * * * * * * * * * * * * * * * * * * * * * //

dimensions      [0 0 0 0 0 0 0];

internalField   nonuniform List<scalar> 
100
(
0.578493
0.485278
0.431686
0.392921
0.361824
0.336107
0.314948
0.29591
0.278409
0.262396
0.24762
0.23341
0.219681
0.206257
0.19265
0.178999
0.165147
0.150895
0.136328
0.121491
0.106724
0.0926279
0.0799701
0.0696208
0.0619779
0.0568876
0.053791
0.0520264
0.051063
0.0505381
0.050272
0.05015
0.0500752
0.0500445
0.0500264
0.0500238
0.0500201
0.0500112
0.0500126
0.0500099
0.0500067
0.0499938
0.0499921
0.0499911
0.049985
0.0499864
0.0499877
0.0499867
0.0499953
0.0499934
0.0499867
0.0499859
0.0499897
0.049995
0.0499916
0.0499923
0.0499884
0.0500058
0.0500065
0.0500091
0.0499961
0.05
0.0500023
0.0499961
0.0500007
0.05
0.0499932
0.0500086
0.0500155
0.0500076
0.0499989
0.0500022
0.0499996
0.0500011
0.0499956
0.0499935
0.049992
0.0499963
0.0499877
0.0499922
0.049998
0.0500006
0.0499988
0.0499946
0.0499959
0.0499982
0.0500023
0.0499956
0.0500035
0.049998
0.050005
0.0500103
0.05001
0.0500129
0.0500115
0.0500091
0.0500098
0.0499968
0.0500079
0.0500122
)
;

boundaryField
{
    inlet
    {
        type            calculated;
        value           uniform 1;
    }
    outlet
    {
        type            calculated;
        value           uniform 0.0500122;
    }
    yzfaces
    {
        type            empty;
    }
}


// ************************************************************************* //
