/*--------------------------------*- C++ -*----------------------------------*\
| =========                 |                                                 |
| \\      /  F ield         | foam-extend: Open Source CFD                    |
|  \\    /   O peration     | Version:     5.0                                |
|   \\  /    A nd           | Web:         http://www.foam-extend.org         |
|    \\/     M anipulation  |                                                 |
\*---------------------------------------------------------------------------*/
FoamFile
{
    version     2.0;
    format      ascii;
    class       volVectorField;
    location    "1";
    object      U.gas;
}
// * * * * * * * * * * * * * * * * * * * * * * * * * * * * * * * * * * * * * //

dimensions      [0 1 -1 0 0 0 0];

internalField   nonuniform List<vector> 
100
(
(0.00850861 0 0)
(0.00983774 0 0)
(0.0107139 0 0)
(0.0113624 0 0)
(0.011896 0 0)
(0.0123319 0 0)
(0.0126462 0 0)
(0.0129139 0 0)
(0.0131491 0 0)
(0.0133398 0 0)
(0.0134595 0 0)
(0.0135211 0 0)
(0.013551 0 0)
(0.0135216 0 0)
(0.0134241 0 0)
(0.0132427 0 0)
(0.0129602 0 0)
(0.0125781 0 0)
(0.0120608 0 0)
(0.0113812 0 0)
(0.0105302 0 0)
(0.00952791 0 0)
(0.00844352 0 0)
(0.00738171 0 0)
(0.00645389 0 0)
(0.00574403 0 0)
(0.00526816 0 0)
(0.00497773 0 0)
(0.00481205 0 0)
(0.00471684 0 0)
(0.00466141 0 0)
(0.00463648 0 0)
(0.0046278 0 0)
(0.00462636 0 0)
(0.00462828 0 0)
(0.0046305 0 0)
(0.00463604 0 0)
(0.00463742 0 0)
(0.00463736 0 0)
(0.00464359 0 0)
(0.00464899 0 0)
(0.00465111 0 0)
(0.00465128 0 0)
(0.00464928 0 0)
(0.00464624 0 0)
(0.00464245 0 0)
(0.00464031 0 0)
(0.00464041 0 0)
(0.00464041 0 0)
(0.00464618 0 0)
(0.00465418 0 0)
(0.00465358 0 0)
(0.00464996 0 0)
(0.00465103 0 0)
(0.00465174 0 0)
(0.00465189 0 0)
(0.00464967 0 0)
(0.00464758 0 0)
(0.00465251 0 0)
(0.00465642 0 0)
(0.00466069 0 0)
(0.00465924 0 0)
(0.00465533 0 0)
(0.00465199 0 0)
(0.00465007 0 0)
(0.00465172 0 0)
(0.00465197 0 0)
(0.00465249 0 0)
(0.0046589 0 0)
(0.00466411 0 0)
(0.00466086 0 0)
(0.00465808 0 0)
(0.00465732 0 0)
(0.00465158 0 0)
(0.00464936 0 0)
(0.00464749 0 0)
(0.00464422 0 0)
(0.00464058 0 0)
(0.00464145 0 0)
(0.00464178 0 0)
(0.00464103 0 0)
(0.0046424 0 0)
(0.00464586 0 0)
(0.00464291 0 0)
(0.00463679 0 0)
(0.00463384 0 0)
(0.00463037 0 0)
(0.00462866 0 0)
(0.0046275 0 0)
(0.00462565 0 0)
(0.00462071 0 0)
(0.00462111 0 0)
(0.00462417 0 0)
(0.00462381 0 0)
(0.00462098 0 0)
(0.00461888 0 0)
(0.00461923 0 0)
(0.00461631 0 0)
(0.00460893 0 0)
(0.00460456 0 0)
)
;

boundaryField
{
    inlet
    {
        type            fixedValue;
        value           uniform (0.005 0 0);
    }
    outlet
    {
        type            zeroGradient;
    }
    yzfaces
    {
        type            empty;
    }
}


// ************************************************************************* //
