/*--------------------------------*- C++ -*----------------------------------*\
| =========                 |                                                 |
| \\      /  F ield         | foam-extend: Open Source CFD                    |
|  \\    /   O peration     | Version:     5.0                                |
|   \\  /    A nd           | Web:         http://www.foam-extend.org         |
|    \\/     M anipulation  |                                                 |
\*---------------------------------------------------------------------------*/
FoamFile
{
    version     2.0;
    format      ascii;
    class       volVectorField;
    location    "1";
    object      U.gas;
}
// * * * * * * * * * * * * * * * * * * * * * * * * * * * * * * * * * * * * * //

dimensions      [0 1 -1 0 0 0 0];

internalField   nonuniform List<vector> 
100
(
(0.00851722 0 0)
(0.00980063 0 0)
(0.0107426 0 0)
(0.0114329 0 0)
(0.0119958 0 0)
(0.012429 0 0)
(0.0127955 0 0)
(0.0130828 0 0)
(0.013314 0 0)
(0.0134746 0 0)
(0.0135736 0 0)
(0.0136345 0 0)
(0.0136328 0 0)
(0.0135818 0 0)
(0.013459 0 0)
(0.0132699 0 0)
(0.012979 0 0)
(0.0125761 0 0)
(0.0120472 0 0)
(0.0113584 0 0)
(0.0104977 0 0)
(0.00949487 0 0)
(0.00840181 0 0)
(0.00733752 0 0)
(0.00641991 0 0)
(0.00572278 0 0)
(0.00525912 0 0)
(0.00498063 0 0)
(0.00482512 0 0)
(0.00473977 0 0)
(0.00469404 0 0)
(0.00466932 0 0)
(0.00465666 0 0)
(0.00465039 0 0)
(0.00464773 0 0)
(0.00464719 0 0)
(0.00464425 0 0)
(0.00464355 0 0)
(0.00464415 0 0)
(0.00464597 0 0)
(0.00464515 0 0)
(0.00464155 0 0)
(0.00464261 0 0)
(0.00464534 0 0)
(0.00464554 0 0)
(0.00464318 0 0)
(0.00464164 0 0)
(0.00464398 0 0)
(0.00464734 0 0)
(0.00464637 0 0)
(0.0046474 0 0)
(0.00465324 0 0)
(0.00465558 0 0)
(0.00465419 0 0)
(0.00465172 0 0)
(0.00464834 0 0)
(0.00464447 0 0)
(0.0046403 0 0)
(0.00463937 0 0)
(0.0046406 0 0)
(0.00464204 0 0)
(0.00464239 0 0)
(0.00464213 0 0)
(0.00464109 0 0)
(0.00464278 0 0)
(0.0046426 0 0)
(0.00464099 0 0)
(0.00464231 0 0)
(0.00464895 0 0)
(0.00465106 0 0)
(0.00464862 0 0)
(0.00464665 0 0)
(0.00464957 0 0)
(0.0046536 0 0)
(0.00465501 0 0)
(0.00465678 0 0)
(0.00466266 0 0)
(0.00466614 0 0)
(0.00466471 0 0)
(0.00466587 0 0)
(0.00466909 0 0)
(0.00466719 0 0)
(0.00466216 0 0)
(0.00466371 0 0)
(0.00466187 0 0)
(0.00465888 0 0)
(0.00465767 0 0)
(0.00465429 0 0)
(0.00465537 0 0)
(0.00465989 0 0)
(0.00466248 0 0)
(0.00466047 0 0)
(0.00465866 0 0)
(0.0046587 0 0)
(0.0046633 0 0)
(0.00466534 0 0)
(0.00465969 0 0)
(0.00465568 0 0)
(0.00465691 0 0)
(0.00465715 0 0)
)
;

boundaryField
{
    inlet
    {
        type            fixedValue;
        value           uniform (0.005 0 0);
    }
    outlet
    {
        type            zeroGradient;
    }
    yzfaces
    {
        type            empty;
    }
}


// ************************************************************************* //
