/*--------------------------------*- C++ -*----------------------------------*\
| =========                 |                                                 |
| \\      /  F ield         | foam-extend: Open Source CFD                    |
|  \\    /   O peration     | Version:     5.0                                |
|   \\  /    A nd           | Web:         http://www.foam-extend.org         |
|    \\/     M anipulation  |                                                 |
\*---------------------------------------------------------------------------*/
FoamFile
{
    version     2.0;
    format      ascii;
    class       volVectorField;
    location    "1";
    object      U.water;
}
// * * * * * * * * * * * * * * * * * * * * * * * * * * * * * * * * * * * * * //

dimensions      [0 1 -1 0 0 0 0];

internalField   nonuniform List<vector> 
100
(
(0.000173457 0 0)
(0.000434114 0 0)
(0.000658579 0 0)
(0.000858281 0 0)
(0.00105073 0 0)
(0.0012411 0 0)
(0.00142318 0 0)
(0.00159882 0 0)
(0.00178119 0 0)
(0.00196806 0 0)
(0.00215187 0 0)
(0.00233657 0 0)
(0.0025302 0 0)
(0.00272908 0 0)
(0.00293579 0 0)
(0.0031519 0 0)
(0.00337454 0 0)
(0.00360831 0 0)
(0.00384691 0 0)
(0.00408047 0 0)
(0.00430091 0 0)
(0.00449466 0 0)
(0.00465613 0 0)
(0.00478358 0 0)
(0.00486909 0 0)
(0.00492214 0 0)
(0.00495481 0 0)
(0.00497215 0 0)
(0.00498036 0 0)
(0.00497952 0 0)
(0.00497575 0 0)
(0.0049765 0 0)
(0.00498009 0 0)
(0.00498682 0 0)
(0.0049913 0 0)
(0.00499627 0 0)
(0.00500304 0 0)
(0.00500386 0 0)
(0.00500504 0 0)
(0.00501202 0 0)
(0.00501803 0 0)
(0.00502075 0 0)
(0.0050222 0 0)
(0.00501979 0 0)
(0.00501653 0 0)
(0.00501358 0 0)
(0.00501072 0 0)
(0.00501042 0 0)
(0.00501141 0 0)
(0.00501725 0 0)
(0.00502532 0 0)
(0.00502533 0 0)
(0.00502112 0 0)
(0.00502131 0 0)
(0.00502205 0 0)
(0.00502301 0 0)
(0.00502131 0 0)
(0.00501951 0 0)
(0.00502291 0 0)
(0.00502676 0 0)
(0.00502984 0 0)
(0.00502941 0 0)
(0.00502573 0 0)
(0.005022 0 0)
(0.00501988 0 0)
(0.00502081 0 0)
(0.00502178 0 0)
(0.00502293 0 0)
(0.00502859 0 0)
(0.00503329 0 0)
(0.00503018 0 0)
(0.00502901 0 0)
(0.00502779 0 0)
(0.00502196 0 0)
(0.00501881 0 0)
(0.00501692 0 0)
(0.00501412 0 0)
(0.00501125 0 0)
(0.00501148 0 0)
(0.00501197 0 0)
(0.00501073 0 0)
(0.00501184 0 0)
(0.00501596 0 0)
(0.0050129 0 0)
(0.00500625 0 0)
(0.00500334 0 0)
(0.0049995 0 0)
(0.00499717 0 0)
(0.00499573 0 0)
(0.00499182 0 0)
(0.0049878 0 0)
(0.00498791 0 0)
(0.00499059 0 0)
(0.0049902 0 0)
(0.00498701 0 0)
(0.00498472 0 0)
(0.00498506 0 0)
(0.00498198 0 0)
(0.00497569 0 0)
(0.00497274 0 0)
)
;

boundaryField
{
    inlet
    {
        type            fixedValue;
        value           uniform (0 0 0);
    }
    outlet
    {
        type            zeroGradient;
    }
    yzfaces
    {
        type            empty;
    }
}


// ************************************************************************* //
