/*--------------------------------*- C++ -*----------------------------------*\
| =========                 |                                                 |
| \\      /  F ield         | foam-extend: Open Source CFD                    |
|  \\    /   O peration     | Version:     5.0                                |
|   \\  /    A nd           | Web:         http://www.foam-extend.org         |
|    \\/     M anipulation  |                                                 |
\*---------------------------------------------------------------------------*/
FoamFile
{
    version     2.0;
    format      ascii;
    class       volVectorField;
    location    "1";
    object      U.water;
}
// * * * * * * * * * * * * * * * * * * * * * * * * * * * * * * * * * * * * * //

dimensions      [0 1 -1 0 0 0 0];

internalField   nonuniform List<vector> 
100
(
(0.000174039 0 0)
(0.000431241 0 0)
(0.0006564 0 0)
(0.000866803 0 0)
(0.00106176 0 0)
(0.00125064 0 0)
(0.00143551 0 0)
(0.00162055 0 0)
(0.00180282 0 0)
(0.00198324 0 0)
(0.00216299 0 0)
(0.0023484 0 0)
(0.00254107 0 0)
(0.00273901 0 0)
(0.00294516 0 0)
(0.00316186 0 0)
(0.00338662 0 0)
(0.00361547 0 0)
(0.00385256 0 0)
(0.00408621 0 0)
(0.00430737 0 0)
(0.00450566 0 0)
(0.00466502 0 0)
(0.00478894 0 0)
(0.00487817 0 0)
(0.00493227 0 0)
(0.00496662 0 0)
(0.004989 0 0)
(0.0050024 0 0)
(0.00500952 0 0)
(0.00501262 0 0)
(0.00501223 0 0)
(0.00501209 0 0)
(0.00501253 0 0)
(0.00501355 0 0)
(0.00501395 0 0)
(0.00501249 0 0)
(0.00501214 0 0)
(0.00501329 0 0)
(0.00501594 0 0)
(0.00501413 0 0)
(0.00501038 0 0)
(0.00501065 0 0)
(0.00501273 0 0)
(0.00501363 0 0)
(0.00501207 0 0)
(0.00501033 0 0)
(0.00501368 0 0)
(0.00501598 0 0)
(0.00501483 0 0)
(0.00501761 0 0)
(0.00502372 0 0)
(0.0050259 0 0)
(0.00502407 0 0)
(0.00502263 0 0)
(0.00501867 0 0)
(0.00501451 0 0)
(0.00501095 0 0)
(0.00500894 0 0)
(0.00500962 0 0)
(0.00501041 0 0)
(0.00501082 0 0)
(0.00500983 0 0)
(0.00501045 0 0)
(0.0050122 0 0)
(0.00501186 0 0)
(0.00500975 0 0)
(0.00501238 0 0)
(0.00501797 0 0)
(0.00502042 0 0)
(0.00501767 0 0)
(0.00501572 0 0)
(0.00502026 0 0)
(0.00502346 0 0)
(0.00502362 0 0)
(0.00502551 0 0)
(0.00503224 0 0)
(0.00503621 0 0)
(0.0050352 0 0)
(0.00503727 0 0)
(0.00504001 0 0)
(0.00503715 0 0)
(0.00503423 0 0)
(0.00503539 0 0)
(0.00503352 0 0)
(0.00503173 0 0)
(0.00502914 0 0)
(0.00502513 0 0)
(0.0050261 0 0)
(0.0050311 0 0)
(0.00503485 0 0)
(0.00503354 0 0)
(0.00503088 0 0)
(0.00503123 0 0)
(0.00503571 0 0)
(0.00503793 0 0)
(0.00503206 0 0)
(0.00502908 0 0)
(0.0050289 0 0)
(0.00502753 0 0)
)
;

boundaryField
{
    inlet
    {
        type            fixedValue;
        value           uniform (0 0 0);
    }
    outlet
    {
        type            zeroGradient;
    }
    yzfaces
    {
        type            empty;
    }
}


// ************************************************************************* //
