/*--------------------------------*- C++ -*----------------------------------*\
| =========                 |                                                 |
| \\      /  F ield         | foam-extend: Open Source CFD                    |
|  \\    /   O peration     | Version:     5.0                                |
|   \\  /    A nd           | Web:         http://www.foam-extend.org         |
|    \\/     M anipulation  |                                                 |
\*---------------------------------------------------------------------------*/
FoamFile
{
    version     2.0;
    format      ascii;
    class       volScalarField;
    location    "7";
    object      alpha.gas;
}
// * * * * * * * * * * * * * * * * * * * * * * * * * * * * * * * * * * * * * //

dimensions      [0 0 0 0 0 0 0];

internalField   nonuniform List<scalar> 
100
(
0.164231
0.151605
0.142333
0.136096
0.130734
0.125558
0.120494
0.116058
0.112269
0.109314
0.106945
0.104679
0.101892
0.0996583
0.0975527
0.095822
0.0936034
0.0921664
0.0906514
0.088908
0.0873256
0.0861107
0.0849585
0.0838514
0.0830294
0.0821677
0.0808637
0.0797168
0.0788017
0.0777102
0.0766485
0.0757337
0.0749305
0.0740794
0.0732053
0.0725461
0.071714
0.0708742
0.0700539
0.0692692
0.068312
0.0674537
0.0667087
0.0660147
0.0653821
0.0646805
0.0638269
0.0629858
0.0622394
0.0614966
0.0606484
0.0596253
0.0587286
0.0578017
0.0567566
0.0557274
0.0545019
0.053285
0.0516736
0.0495939
0.0469371
0.0429956
0.0360251
0.0207981
0.0234839
0.0239604
0.0240313
0.0240371
0.0240383
0.0240508
0.0240719
0.0241018
0.0241432
0.0242091
0.0242866
0.0243924
0.0245108
0.024629
0.0247535
0.024879
0.0250036
0.0251233
0.025232
0.0253246
0.0254175
0.0255058
0.0256007
0.0256828
0.0257556
0.0258245
0.0258647
0.0258978
0.0259246
0.0259417
0.0259376
0.0259022
0.0258463
0.0257645
0.0256382
0.0254759
)
;

boundaryField
{
    inlet
    {
        type            fixedValue;
        value           uniform 0.2;
    }
    outlet
    {
        type            zeroGradient;
    }
    yzfaces
    {
        type            empty;
    }
}


// ************************************************************************* //
