/*--------------------------------*- C++ -*----------------------------------*\
| =========                 |                                                 |
| \\      /  F ield         | foam-extend: Open Source CFD                    |
|  \\    /   O peration     | Version:     5.0                                |
|   \\  /    A nd           | Web:         http://www.foam-extend.org         |
|    \\/     M anipulation  |                                                 |
\*---------------------------------------------------------------------------*/
FoamFile
{
    version     2.0;
    format      ascii;
    class       volScalarField;
    location    "7";
    object      CO2.gas;
}
// * * * * * * * * * * * * * * * * * * * * * * * * * * * * * * * * * * * * * //

dimensions      [0 0 0 0 0 0 0];

internalField   nonuniform List<scalar> 
100
(
0.163591
0.150848
0.140894
0.13426
0.12908
0.124059
0.118672
0.114058
0.111003
0.108589
0.106511
0.104475
0.101632
0.0990708
0.0969458
0.0954579
0.0928663
0.0917238
0.0898652
0.0879312
0.0866906
0.0856347
0.0845029
0.0836881
0.0828307
0.0818875
0.080519
0.0795615
0.0785064
0.077482
0.0763843
0.0755129
0.0747035
0.0737947
0.0728637
0.0722711
0.0713537
0.0705308
0.0697773
0.0689376
0.0680152
0.0672714
0.0665046
0.0658217
0.0651847
0.0644531
0.0635832
0.0628632
0.0620859
0.0613768
0.0604282
0.0594525
0.0585468
0.0576892
0.0566461
0.0556188
0.0543958
0.0531813
0.0515315
0.0494973
0.0468457
0.0429119
0.0359549
0.0207576
0.0229849
0.0230741
0.0226944
0.022191
0.0216376
0.0210415
0.0204076
0.0197365
0.0190142
0.0182988
0.0175442
0.0167797
0.0159882
0.0151835
0.0143638
0.0135239
0.0126704
0.011819
0.0109543
0.010097
0.00926408
0.00844662
0.00766021
0.00689296
0.00616349
0.00548618
0.00483903
0.00423865
0.00368792
0.00318128
0.00271943
0.00230333
0.00193102
0.00160138
0.00131332
0.00106141
)
;

boundaryField
{
    inlet
    {
        type            fixedValue;
        value           uniform 0.2;
    }
    outlet
    {
        type            zeroGradient;
    }
    yzfaces
    {
        type            empty;
    }
}


// ************************************************************************* //
