/*--------------------------------*- C++ -*----------------------------------*\
| =========                 |                                                 |
| \\      /  F ield         | foam-extend: Open Source CFD                    |
|  \\    /   O peration     | Version:     5.0                                |
|   \\  /    A nd           | Web:         http://www.foam-extend.org         |
|    \\/     M anipulation  |                                                 |
\*---------------------------------------------------------------------------*/
FoamFile
{
    version     2.0;
    format      ascii;
    class       volScalarField;
    location    "7";
    object      Na.water;
}
// * * * * * * * * * * * * * * * * * * * * * * * * * * * * * * * * * * * * * //

dimensions      [0 0 0 0 0 0 0];

internalField   nonuniform List<scalar> 
100
(
0.00409128
0.00553241
0.00656013
0.00724562
0.00786232
0.00845295
0.00899665
0.00947976
0.00996897
0.0103562
0.0106596
0.0109389
0.0112558
0.0114734
0.011715
0.0119424
0.0121447
0.0123492
0.0124697
0.0126371
0.0128658
0.0130313
0.0131677
0.0133419
0.0134275
0.013511
0.0136515
0.013809
0.0138896
0.0140271
0.0141449
0.0142579
0.0143469
0.0144362
0.0145223
0.0146098
0.014687
0.0147877
0.0149025
0.014974
0.0150869
0.0152096
0.0152881
0.0153707
0.015445
0.0155154
0.0156121
0.0157351
0.0158129
0.0159029
0.0159756
0.0161054
0.0162057
0.016329
0.0164429
0.0165614
0.0167037
0.0168445
0.0170147
0.0172669
0.0175744
0.018015
0.018798
0.0205053
0.020951
0.0211552
0.0212422
0.0212719
0.0212942
0.0212987
0.0213019
0.0212994
0.0212792
0.0212857
0.0212728
0.0212565
0.0212296
0.0212146
0.0212048
0.0211945
0.0211692
0.0211619
0.0211472
0.0211291
0.021141
0.021138
0.0211296
0.0210993
0.021069
0.0210741
0.0210593
0.0210541
0.0210589
0.0210586
0.021065
0.0210758
0.0210798
0.0210938
0.0211334
0.0211569
)
;

boundaryField
{
    inlet
    {
        type            fixedValue;
        value           uniform 0;
    }
    outlet
    {
        type            zeroGradient;
    }
    yzfaces
    {
        type            empty;
    }
}


// ************************************************************************* //
