/*--------------------------------*- C++ -*----------------------------------*\
| =========                 |                                                 |
| \\      /  F ield         | foam-extend: Open Source CFD                    |
|  \\    /   O peration     | Version:     5.0                                |
|   \\  /    A nd           | Web:         http://www.foam-extend.org         |
|    \\/     M anipulation  |                                                 |
\*---------------------------------------------------------------------------*/
FoamFile
{
    version     2.0;
    format      ascii;
    class       volScalarField;
    location    "7";
    object      Ns;
}
// * * * * * * * * * * * * * * * * * * * * * * * * * * * * * * * * * * * * * //

dimensions      [0 -3 0 0 1 0 0];

internalField   nonuniform List<scalar> 
100
(
0.357603
0.869953
2.36076
1.67026
1.013
1.19261
1.5683
3.31708
0.804504
0.290411
0.581472
1.56254
0.00533943
1.90995
1.58604
0.471096
0.315026
1.90478
3.68023
1.72272
0.72905
0.48626
0.0541448
0.555032
0.422791
0.664913
0.521253
0.503577
0.236346
0.34805
0.101588
0.187749
0.207652
0.300581
0.119287
1.76838
0.231452
0.121766
0.72507
0.244711
1.13117
0.316293
0.773168
0.898334
0.138585
0.915065
1.26024
0.902299
0.741432
0.360535
0.303628
0.327273
1.58517
0.717275
1.29693
0.547906
0.437643
0.253277
0.678851
1.27108
0.429316
3.86197
9.60679
21.8719
2
2
2
2
2
2
2
2
2
2
2
2
2
2
2
2
2
2
2
2
2
2
2
2
2
2
2
2
2
2
2
2
2
2
2
2
)
;

boundaryField
{
    inlet
    {
        type            fixedValue;
        value           uniform 0;
    }
    outlet
    {
        type            zeroGradient;
    }
    yzfaces
    {
        type            empty;
    }
}


// ************************************************************************* //
