/*--------------------------------*- C++ -*----------------------------------*\
| =========                 |                                                 |
| \\      /  F ield         | foam-extend: Open Source CFD                    |
|  \\    /   O peration     | Version:     5.0                                |
|   \\  /    A nd           | Web:         http://www.foam-extend.org         |
|    \\/     M anipulation  |                                                 |
\*---------------------------------------------------------------------------*/
FoamFile
{
    version     2.0;
    format      ascii;
    class       volVectorField;
    location    "7";
    object      U.gas;
}
// * * * * * * * * * * * * * * * * * * * * * * * * * * * * * * * * * * * * * //

dimensions      [0 1 -1 0 0 0 0];

internalField   nonuniform List<vector> 
100
(
(0.00607447 0 0)
(0.00654899 0 0)
(0.00700851 0 0)
(0.00735419 0 0)
(0.00762784 0 0)
(0.00792141 0 0)
(0.00817999 0 0)
(0.0084556 0 0)
(0.00873684 0 0)
(0.00893537 0 0)
(0.00912389 0 0)
(0.00929671 0 0)
(0.00952455 0 0)
(0.00968898 0 0)
(0.00987911 0 0)
(0.01 0 0)
(0.010164 0 0)
(0.0102459 0 0)
(0.0103358 0 0)
(0.0105046 0 0)
(0.01064 0 0)
(0.0107131 0 0)
(0.0108244 0 0)
(0.0109353 0 0)
(0.0110189 0 0)
(0.0111052 0 0)
(0.0112379 0 0)
(0.011334 0 0)
(0.0114255 0 0)
(0.0114976 0 0)
(0.0115769 0 0)
(0.0116555 0 0)
(0.0117234 0 0)
(0.0117932 0 0)
(0.0118861 0 0)
(0.0119527 0 0)
(0.0120214 0 0)
(0.012079 0 0)
(0.0121523 0 0)
(0.0122323 0 0)
(0.0123133 0 0)
(0.0123916 0 0)
(0.012436 0 0)
(0.0124608 0 0)
(0.0125139 0 0)
(0.0125561 0 0)
(0.0126161 0 0)
(0.0126769 0 0)
(0.0127091 0 0)
(0.0127164 0 0)
(0.0127734 0 0)
(0.012878 0 0)
(0.0129538 0 0)
(0.0129964 0 0)
(0.0130606 0 0)
(0.0131191 0 0)
(0.0132088 0 0)
(0.0132899 0 0)
(0.0134211 0 0)
(0.0135596 0 0)
(0.0137352 0 0)
(0.0139593 0 0)
(0.0143415 0 0)
(0.0156314 0 0)
(0.00937695 0 0)
(0.0101723 0 0)
(0.0103549 0 0)
(0.0103853 0 0)
(0.0103952 0 0)
(0.0104088 0 0)
(0.0104159 0 0)
(0.0104124 0 0)
(0.0104141 0 0)
(0.0104297 0 0)
(0.0104584 0 0)
(0.010483 0 0)
(0.0105103 0 0)
(0.0105425 0 0)
(0.0105762 0 0)
(0.0106149 0 0)
(0.0106559 0 0)
(0.0106849 0 0)
(0.0107136 0 0)
(0.0107527 0 0)
(0.0107865 0 0)
(0.0108186 0 0)
(0.0108416 0 0)
(0.0108618 0 0)
(0.0108848 0 0)
(0.0108986 0 0)
(0.0109135 0 0)
(0.0109247 0 0)
(0.0109324 0 0)
(0.010937 0 0)
(0.0109287 0 0)
(0.0109276 0 0)
(0.0109234 0 0)
(0.0109055 0 0)
(0.0108794 0 0)
(0.0108301 0 0)
)
;

boundaryField
{
    inlet
    {
        type            fixedValue;
        value           uniform (0.005 0 0);
    }
    outlet
    {
        type            zeroGradient;
    }
    yzfaces
    {
        type            empty;
    }
}


// ************************************************************************* //
