/*--------------------------------*- C++ -*----------------------------------*\
| =========                 |                                                 |
| \\      /  F ield         | foam-extend: Open Source CFD                    |
|  \\    /   O peration     | Version:     5.0                                |
|   \\  /    A nd           | Web:         http://www.foam-extend.org         |
|    \\/     M anipulation  |                                                 |
\*---------------------------------------------------------------------------*/
FoamFile
{
    version     2.0;
    format      ascii;
    class       regIOobject;
    location    "9/uniform";
    object      profilingInfo;
}
// * * * * * * * * * * * * * * * * * * * * * * * * * * * * * * * * * * * * * //

profilingInfo
(

    {
        id              4;
        parentId        3;
        description     "Foam::Time::writeObject - outputTime";
        calls           9;
        totalTime       0.635067;
        childTime       0;
        onStack         1;
    }

    {
        id              3;
        parentId        1;
        description     "Foam::Time::writeObject";
        calls           163;
        totalTime       0.63635;
        childTime       0.635067;
        onStack         1;
    }

    {
        id              1;
        description     "application::main";
        calls           1;
        totalTime       9.89985;
        childTime       0.636369;
        onStack         1;
    }

    {
        id              2;
        parentId        1;
        description     "functionObjectList::read";
        calls           1;
        totalTime       1.9e-05;
        childTime       0;
        onStack         0;
    }
);


// ************************************************************************* //
