/*--------------------------------*- C++ -*----------------------------------*\
| =========                 |                                                 |
| \\      /  F ield         | foam-extend: Open Source CFD                    |
|  \\    /   O peration     | Version:     5.0                                |
|   \\  /    A nd           | Web:         http://www.foam-extend.org         |
|    \\/     M anipulation  |                                                 |
\*---------------------------------------------------------------------------*/
FoamFile
{
    version     2.0;
    format      ascii;
    class       volScalarField;
    location    "0.913081";
    object      alpha.gas;
}
// * * * * * * * * * * * * * * * * * * * * * * * * * * * * * * * * * * * * * //

dimensions      [0 0 0 0 0 0 0];

internalField   nonuniform List<scalar> 
100
(
0.110331
0.0920822
0.0814904
0.0726877
0.0656747
0.0600947
0.0524161
0.0466924
0.0426662
0.0399047
0.037826
0.036037
0.0342749
0.0323926
0.0303233
0.0280417
0.0256062
0.0230229
0.0203959
0.0178578
0.0155762
0.0136948
0.012291
0.0113399
0.0107563
0.0104123
0.0102231
0.0101179
0.0100628
0.0100353
0.0100176
0.0100064
0.0100046
0.0100012
0.0100018
0.0100016
0.00999961
0.00999758
0.00999673
0.00999686
0.00999852
0.00999988
0.01
0.00999989
0.00999886
0.00999976
0.0099995
0.0100018
0.0100017
0.010001
0.00999972
0.010001
0.0100002
0.00999956
0.0100004
0.01
0.0100002
0.0100003
0.00999938
0.0100003
0.010002
0.0100008
0.0099991
0.00999929
0.01
0.0099995
0.0100003
0.0100003
0.0100007
0.0100027
0.0100009
0.0100007
0.0100001
0.00999941
0.00999846
0.00999757
0.01
0.010001
0.00999958
0.0100021
0.0100023
0.0100026
0.0100037
0.0100014
0.0100033
0.0100016
0.0100016
0.0100015
0.00999976
0.0100002
0.0099994
0.00999857
0.00999798
0.00999737
0.00999878
0.00999935
0.00999996
0.00999899
0.00999652
0.0099925
)
;

boundaryField
{
    inlet
    {
        type            fixedValue;
        value           uniform 0.2;
    }
    outlet
    {
        type            zeroGradient;
    }
    yzfaces
    {
        type            empty;
    }
}


// ************************************************************************* //
