/*--------------------------------*- C++ -*----------------------------------*\
| =========                 |                                                 |
| \\      /  F ield         | foam-extend: Open Source CFD                    |
|  \\    /   O peration     | Version:     5.0                                |
|   \\  /    A nd           | Web:         http://www.foam-extend.org         |
|    \\/     M anipulation  |                                                 |
\*---------------------------------------------------------------------------*/
FoamFile
{
    version     2.0;
    format      ascii;
    class       volScalarField;
    location    "0.913081";
    object      Cl.water;
}
// * * * * * * * * * * * * * * * * * * * * * * * * * * * * * * * * * * * * * //

dimensions      [0 0 0 0 0 0 0];

internalField   nonuniform List<scalar> 
100
(
0
0.00696377
0.0113677
0.00552352
0.00864889
0.0127822
0.00480041
0.0108158
0.0156823
0.0181543
0.0192278
0.0197274
0.0200115
0.0202829
0.0205442
0.0208248
0.0211142
0.021415
0.0217493
0.0220414
0.0223326
0.0225558
0.0227272
0.0228188
0.02288
0.0229317
0.0229597
0.022964
0.0229707
0.0229952
0.0229818
0.0229973
0.0230008
0.0230064
0.022997
0.0229873
0.0230103
0.0230042
0.0230079
0.0229991
0.0229821
0.0229894
0.0230091
0.02296
0.0229842
0.0229793
0.0229863
0.0229567
0.0230012
0.0229918
0.0230047
0.0229982
0.0230228
0.0230078
0.0230154
0.0229943
0.0230018
0.0229902
0.0229818
0.0229917
0.0229847
0.0230143
0.0230078
0.0229993
0.0229843
0.0229778
0.0229898
0.0229904
0.0230191
0.0230054
0.0230173
0.0230083
0.0229938
0.0230074
0.0230044
0.0230126
0.0230052
0.0230174
0.0230103
0.0230144
0.0229982
0.0229874
0.0229963
0.0229948
0.0229954
0.0230057
0.0229985
0.0229951
0.0230119
0.022983
0.0229908
0.0229734
0.0229788
0.0229724
0.0229775
0.0229914
0.0229978
0.0230071
0.0230114
0.0230015
)
;

boundaryField
{
    inlet
    {
        type            fixedValue;
        value           uniform 0;
    }
    outlet
    {
        type            zeroGradient;
    }
    yzfaces
    {
        type            empty;
    }
}


// ************************************************************************* //
