/*--------------------------------*- C++ -*----------------------------------*\
| =========                 |                                                 |
| \\      /  F ield         | foam-extend: Open Source CFD                    |
|  \\    /   O peration     | Version:     5.0                                |
|   \\  /    A nd           | Web:         http://www.foam-extend.org         |
|    \\/     M anipulation  |                                                 |
\*---------------------------------------------------------------------------*/
FoamFile
{
    version     2.0;
    format      ascii;
    class       volScalarField;
    location    "0.913081";
    object      CO2.water;
}
// * * * * * * * * * * * * * * * * * * * * * * * * * * * * * * * * * * * * * //

dimensions      [0 0 0 0 0 0 0];

internalField   nonuniform List<scalar> 
100
(
0.00235432
0.00131736
0.000648101
0.00213444
0.00163974
0.000894075
0.00282348
0.00167712
0.000720094
0.000265433
8.89707e-05
2.8194e-05
8.69312e-06
2.66892e-06
8.25144e-07
2.60129e-07
8.27095e-08
2.59983e-08
8.10287e-09
2.68992e-09
1.08574e-09
5.90078e-10
3.28806e-10
1.86317e-10
1.05753e-10
5.90901e-11
3.2344e-11
1.70693e-11
8.68979e-12
4.19337e-12
1.92952e-12
8.34438e-13
3.48234e-13
1.45553e-13
6.08301e-14
2.53693e-14
1.05983e-14
4.41852e-15
1.84674e-15
7.7119e-16
3.21576e-16
1.34441e-16
5.595e-17
2.34714e-17
9.78012e-18
4.07518e-18
1.69579e-18
7.08978e-19
2.95055e-19
1.23046e-19
5.13878e-20
2.14129e-20
8.93534e-21
3.73073e-21
1.55576e-21
6.50283e-22
2.71455e-22
1.13376e-22
4.74519e-23
1.98268e-23
8.28995e-24
3.47148e-24
1.45134e-24
6.07976e-25
2.54769e-25
1.06798e-25
4.45791e-26
1.869e-26
7.80862e-27
3.27843e-27
1.37027e-27
5.74068e-28
2.41458e-28
1.00878e-28
4.23458e-29
1.77874e-29
7.46108e-30
3.12684e-30
1.31196e-30
5.50841e-31
2.31026e-31
9.67142e-32
4.05244e-32
1.70126e-32
7.13529e-33
2.99379e-33
1.25572e-33
5.27286e-34
2.20873e-34
9.30245e-35
3.90593e-35
1.63594e-35
6.87357e-36
2.88894e-36
1.21406e-36
5.09317e-37
2.13821e-37
8.96353e-38
3.76041e-38
2.00258e-38
)
;

boundaryField
{
    inlet
    {
        type            fixedValue;
        value           uniform 0;
    }
    outlet
    {
        type            zeroGradient;
    }
    yzfaces
    {
        type            empty;
    }
}


// ************************************************************************* //
