/*--------------------------------*- C++ -*----------------------------------*\
| =========                 |                                                 |
| \\      /  F ield         | foam-extend: Open Source CFD                    |
|  \\    /   O peration     | Version:     5.0                                |
|   \\  /    A nd           | Web:         http://www.foam-extend.org         |
|    \\/     M anipulation  |                                                 |
\*---------------------------------------------------------------------------*/
FoamFile
{
    version     2.0;
    format      ascii;
    class       volScalarField;
    location    "0.913081";
    object      H2O.gas;
}
// * * * * * * * * * * * * * * * * * * * * * * * * * * * * * * * * * * * * * //

dimensions      [0 0 0 0 0 0 0];

internalField   nonuniform List<scalar> 
100
(
3.90564e-08
7.01021e-06
3.66683e-05
8.55681e-05
0.000183457
0.000393531
0.000521138
0.000992614
0.00193389
0.00334875
0.00513697
0.00718526
0.00934832
0.011505
0.013464
0.0150595
0.0161384
0.0165751
0.0163756
0.0155726
0.0144305
0.0131858
0.012095
0.0112646
0.010724
0.0104006
0.0102204
0.0101113
0.0100544
0.0100365
0.0100133
0.0100084
0.0100055
0.0100043
0.0100021
0.00999902
0.010005
0.00999932
0.0100009
0.00999628
0.00999049
0.0099945
0.010002
0.0099828
0.00999337
0.00999101
0.00999464
0.00997981
0.00999751
0.00999295
0.00999751
0.00999702
0.0100048
0.0099999
0.0100033
0.00999501
0.00999998
0.00999477
0.00999028
0.00999824
0.00999873
0.010008
0.0100038
0.0100011
0.00999679
0.009994
0.0100001
0.0100014
0.0100111
0.0100071
0.0100081
0.0100051
0.00999606
0.0100026
0.0100026
0.0100041
0.0100032
0.0100092
0.0100049
0.0100076
0.0100014
0.00999413
0.0099967
0.00999759
0.00999554
0.0100004
0.00999618
0.00999678
0.0100048
0.00999356
0.00999667
0.00998769
0.00999196
0.00998765
0.00999197
0.00999643
0.00999993
0.0100022
0.00999939
0.00999137
)
;

boundaryField
{
    inlet
    {
        type            fixedValue;
        value           uniform 0;
    }
    outlet
    {
        type            zeroGradient;
    }
    yzfaces
    {
        type            empty;
    }
}


// ************************************************************************* //
