/*--------------------------------*- C++ -*----------------------------------*\
| =========                 |                                                 |
| \\      /  F ield         | foam-extend: Open Source CFD                    |
|  \\    /   O peration     | Version:     5.0                                |
|   \\  /    A nd           | Web:         http://www.foam-extend.org         |
|    \\/     M anipulation  |                                                 |
\*---------------------------------------------------------------------------*/
FoamFile
{
    version     2.0;
    format      ascii;
    class       volScalarField;
    location    "0.913081";
    object      Na.water;
}
// * * * * * * * * * * * * * * * * * * * * * * * * * * * * * * * * * * * * * //

dimensions      [0 0 0 0 0 0 0];

internalField   nonuniform List<scalar> 
100
(
0
0.00696531
0.0113708
0.00552442
0.00865444
0.0127905
0.00480362
0.0108117
0.0156813
0.0181491
0.0192227
0.0197208
0.0200114
0.0202809
0.0205434
0.0208285
0.0211221
0.0214199
0.0217532
0.0220347
0.0223244
0.0225536
0.0227301
0.0228312
0.0228954
0.0229429
0.0229772
0.0229695
0.0229702
0.022999
0.0229847
0.0229986
0.0230017
0.0230066
0.0229963
0.0229892
0.0229993
0.022991
0.0230032
0.022991
0.0229693
0.0229734
0.0229933
0.0229502
0.0229767
0.0229703
0.0229814
0.0229428
0.022993
0.0229933
0.0230043
0.0229985
0.0230168
0.0230035
0.0230072
0.0229888
0.0229984
0.0229896
0.0229784
0.0229954
0.0229932
0.0230109
0.0230034
0.0229992
0.0229931
0.0229854
0.0229956
0.0229949
0.0230089
0.0229998
0.0230093
0.023003
0.0229839
0.0230012
0.0230035
0.0230163
0.0230077
0.023017
0.0230114
0.0230308
0.0230187
0.0230033
0.0230036
0.0230028
0.0229883
0.022997
0.0229869
0.0229902
0.023011
0.0229877
0.0229906
0.022972
0.0229872
0.0229779
0.0229844
0.0229892
0.0230044
0.023016
0.0230142
0.0230066
)
;

boundaryField
{
    inlet
    {
        type            fixedValue;
        value           uniform 0;
    }
    outlet
    {
        type            zeroGradient;
    }
    yzfaces
    {
        type            empty;
    }
}


// ************************************************************************* //
