/*--------------------------------*- C++ -*----------------------------------*\
| =========                 |                                                 |
| \\      /  F ield         | foam-extend: Open Source CFD                    |
|  \\    /   O peration     | Version:     5.0                                |
|   \\  /    A nd           | Web:         http://www.foam-extend.org         |
|    \\/     M anipulation  |                                                 |
\*---------------------------------------------------------------------------*/
FoamFile
{
    version     2.0;
    format      ascii;
    class       surfaceScalarField;
    location    "0.913081";
    object      phi;
}
// * * * * * * * * * * * * * * * * * * * * * * * * * * * * * * * * * * * * * //

dimensions      [0 3 -1 0 0 0 0];

internalField   nonuniform List<scalar> 
99
(
1.22416e-06
1.2247e-06
1.21879e-06
1.2203e-06
1.22055e-06
1.22492e-06
1.22706e-06
1.22643e-06
1.23068e-06
1.23087e-06
1.23083e-06
1.23245e-06
1.23099e-06
1.22926e-06
1.22772e-06
1.22971e-06
1.22976e-06
1.23114e-06
1.23015e-06
1.23009e-06
1.22912e-06
1.22797e-06
1.22668e-06
1.22673e-06
1.22687e-06
1.22641e-06
1.22481e-06
1.22251e-06
1.22539e-06
1.2229e-06
1.2239e-06
1.22556e-06
1.22646e-06
1.22619e-06
1.22652e-06
1.2276e-06
1.22818e-06
1.22759e-06
1.22768e-06
1.22754e-06
1.2284e-06
1.2283e-06
1.2273e-06
1.23017e-06
1.22868e-06
1.22984e-06
1.22616e-06
1.22868e-06
1.22644e-06
1.2265e-06
1.22544e-06
1.22673e-06
1.22598e-06
1.22539e-06
1.22493e-06
1.22531e-06
1.22599e-06
1.2257e-06
1.22769e-06
1.22837e-06
1.22786e-06
1.22614e-06
1.22472e-06
1.22424e-06
1.22255e-06
1.22421e-06
1.2234e-06
1.22437e-06
1.22305e-06
1.22243e-06
1.22095e-06
1.22223e-06
1.22272e-06
1.22169e-06
1.22245e-06
1.22336e-06
1.22337e-06
1.22475e-06
1.22657e-06
1.22526e-06
1.22489e-06
1.22413e-06
1.22389e-06
1.22379e-06
1.22509e-06
1.22445e-06
1.22487e-06
1.22622e-06
1.2262e-06
1.22689e-06
1.22635e-06
1.22758e-06
1.22781e-06
1.22945e-06
1.22817e-06
1.22867e-06
1.229e-06
1.22912e-06
1.2305e-06
)
;

boundaryField
{
    inlet
    {
        type            calculated;
        value           uniform -1.225e-06;
    }
    outlet
    {
        type            calculated;
        value           uniform 1.23228e-06;
    }
    yzfaces
    {
        type            empty;
    }
}


// ************************************************************************* //
