/*--------------------------------*- C++ -*----------------------------------*\
| =========                 |                                                 |
| \\      /  F ield         | foam-extend: Open Source CFD                    |
|  \\    /   O peration     | Version:     5.0                                |
|   \\  /    A nd           | Web:         http://www.foam-extend.org         |
|    \\/     M anipulation  |                                                 |
\*---------------------------------------------------------------------------*/
FoamFile
{
    version     2.0;
    format      ascii;
    class       surfaceScalarField;
    location    "0.913081";
    object      phi.water;
}
// * * * * * * * * * * * * * * * * * * * * * * * * * * * * * * * * * * * * * //

dimensions      [0 3 -1 0 0 0 0];

internalField   nonuniform List<scalar> 
99
(
4.48368e-07
7.83907e-07
1.06471e-06
1.38868e-06
1.71368e-06
2.01144e-06
2.53717e-06
3.00286e-06
3.3817e-06
3.64745e-06
3.85373e-06
4.03968e-06
4.21292e-06
4.39496e-06
4.59867e-06
4.83544e-06
5.07534e-06
5.32125e-06
5.54393e-06
5.74148e-06
5.88987e-06
5.99378e-06
6.06027e-06
6.10756e-06
6.13254e-06
6.14151e-06
6.14085e-06
6.13539e-06
6.14953e-06
6.13686e-06
6.14217e-06
6.14933e-06
6.15351e-06
6.15256e-06
6.15596e-06
6.15979e-06
6.16136e-06
6.15887e-06
6.16003e-06
6.16319e-06
6.16901e-06
6.16525e-06
6.16381e-06
6.18052e-06
6.17057e-06
6.1762e-06
6.16178e-06
6.17408e-06
6.1586e-06
6.1583e-06
6.15183e-06
6.15606e-06
6.15103e-06
6.14855e-06
6.14795e-06
6.15086e-06
6.15435e-06
6.15558e-06
6.16457e-06
6.16621e-06
6.16073e-06
6.14963e-06
6.14432e-06
6.14418e-06
6.13803e-06
6.14549e-06
6.13931e-06
6.14099e-06
6.13328e-06
6.13103e-06
6.12377e-06
6.13362e-06
6.13644e-06
6.1288e-06
6.13163e-06
6.1366e-06
6.13591e-06
6.14212e-06
6.15226e-06
6.14743e-06
6.14992e-06
6.14798e-06
6.14531e-06
6.14512e-06
6.15088e-06
6.14698e-06
6.15004e-06
6.15361e-06
6.15414e-06
6.15999e-06
6.15857e-06
6.16582e-06
6.16664e-06
6.17519e-06
6.16655e-06
6.16702e-06
6.16669e-06
6.16641e-06
6.17473e-06
)
;

boundaryField
{
    inlet
    {
        type            fixedValue;
        value           uniform 0;
    }
    outlet
    {
        type            calculated;
        value           uniform 6.18499e-06;
    }
    yzfaces
    {
        type            empty;
    }
}


// ************************************************************************* //
