/*--------------------------------*- C++ -*----------------------------------*\
| =========                 |                                                 |
| \\      /  F ield         | foam-extend: Open Source CFD                    |
|  \\    /   O peration     | Version:     5.0                                |
|   \\  /    A nd           | Web:         http://www.foam-extend.org         |
|    \\/     M anipulation  |                                                 |
\*---------------------------------------------------------------------------*/
FoamFile
{
    version     2.0;
    format      ascii;
    class       volScalarField;
    location    "0.913081";
    object      S.gas;
}
// * * * * * * * * * * * * * * * * * * * * * * * * * * * * * * * * * * * * * //

dimensions      [0 0 0 0 0 0 0];

internalField   nonuniform List<scalar> 
100
(
0.551655
0.460411
0.407452
0.363439
0.328373
0.300474
0.26208
0.233462
0.213331
0.199524
0.18913
0.180185
0.171374
0.161963
0.151616
0.140208
0.128031
0.115114
0.101979
0.0892888
0.0778809
0.0684742
0.061455
0.0566996
0.0537817
0.0520613
0.0511156
0.0505893
0.0503138
0.0501767
0.0500881
0.0500319
0.0500231
0.050006
0.0500089
0.0500079
0.0499981
0.0499879
0.0499837
0.0499843
0.0499926
0.0499994
0.0500002
0.0499994
0.0499943
0.0499988
0.0499975
0.050009
0.0500083
0.0500051
0.0499986
0.050005
0.0500009
0.0499978
0.0500019
0.0500001
0.0500009
0.0500014
0.0499969
0.0500014
0.05001
0.0500039
0.0499955
0.0499964
0.05
0.0499975
0.0500017
0.0500016
0.0500033
0.0500135
0.0500045
0.0500034
0.0500006
0.0499971
0.0499923
0.0499879
0.0500002
0.050005
0.0499979
0.0500106
0.0500117
0.0500129
0.0500186
0.050007
0.0500167
0.0500082
0.050008
0.0500075
0.0499988
0.050001
0.049997
0.0499929
0.0499899
0.0499868
0.0499939
0.0499968
0.0499998
0.0499949
0.0499826
0.0499625
)
;

boundaryField
{
    inlet
    {
        type            calculated;
        value           uniform 1;
    }
    outlet
    {
        type            calculated;
        value           uniform 0.0499625;
    }
    yzfaces
    {
        type            empty;
    }
}


// ************************************************************************* //
