/*--------------------------------*- C++ -*----------------------------------*\
| =========                 |                                                 |
| \\      /  F ield         | foam-extend: Open Source CFD                    |
|  \\    /   O peration     | Version:     5.0                                |
|   \\  /    A nd           | Web:         http://www.foam-extend.org         |
|    \\/     M anipulation  |                                                 |
\*---------------------------------------------------------------------------*/
FoamFile
{
    version     2.0;
    format      ascii;
    class       volVectorField;
    location    "0.913081";
    object      U.gas;
}
// * * * * * * * * * * * * * * * * * * * * * * * * * * * * * * * * * * * * * //

dimensions      [0 1 -1 0 0 0 0];

internalField   nonuniform List<vector> 
100
(
(0.00889691 0 0)
(0.0102656 0 0)
(0.01114 0 0)
(0.0119457 0 0)
(0.0125875 0 0)
(0.0130579 0 0)
(0.0138796 0 0)
(0.0140448 0 0)
(0.0139198 0 0)
(0.0136785 0 0)
(0.013433 0 0)
(0.0132333 0 0)
(0.0130412 0 0)
(0.0128073 0 0)
(0.012511 0 0)
(0.0121376 0 0)
(0.0116426 0 0)
(0.0110064 0 0)
(0.0102068 0 0)
(0.00926753 0 0)
(0.00825579 0 0)
(0.00726413 0 0)
(0.00639943 0 0)
(0.00573826 0 0)
(0.00528863 0 0)
(0.0050111 0 0)
(0.00484401 0 0)
(0.00474806 0 0)
(0.00469992 0 0)
(0.00467465 0 0)
(0.0046583 0 0)
(0.00465553 0 0)
(0.00465617 0 0)
(0.00465651 0 0)
(0.0046542 0 0)
(0.00465654 0 0)
(0.00465999 0 0)
(0.00465953 0 0)
(0.0046577 0 0)
(0.00465718 0 0)
(0.00465778 0 0)
(0.00466031 0 0)
(0.00465962 0 0)
(0.00466313 0 0)
(0.00466563 0 0)
(0.00466406 0 0)
(0.00465957 0 0)
(0.00465805 0 0)
(0.00465967 0 0)
(0.00465515 0 0)
(0.00465287 0 0)
(0.00465286 0 0)
(0.0046548 0 0)
(0.00465211 0 0)
(0.00464951 0 0)
(0.00464896 0 0)
(0.00465111 0 0)
(0.00465275 0 0)
(0.00465614 0 0)
(0.00466028 0 0)
(0.00466049 0 0)
(0.00465709 0 0)
(0.00465057 0 0)
(0.00464689 0 0)
(0.00464293 0 0)
(0.00464249 0 0)
(0.0046445 0 0)
(0.00464469 0 0)
(0.00464376 0 0)
(0.00464116 0 0)
(0.00463772 0 0)
(0.00463585 0 0)
(0.00463956 0 0)
(0.00463837 0 0)
(0.00463716 0 0)
(0.00463945 0 0)
(0.00464139 0 0)
(0.004646 0 0)
(0.00465187 0 0)
(0.00465246 0 0)
(0.00465067 0 0)
(0.0046481 0 0)
(0.00464599 0 0)
(0.00464604 0 0)
(0.00464679 0 0)
(0.00464804 0 0)
(0.00464783 0 0)
(0.0046518 0 0)
(0.00465441 0 0)
(0.0046549 0 0)
(0.00465547 0 0)
(0.0046564 0 0)
(0.00465849 0 0)
(0.00466144 0 0)
(0.00466188 0 0)
(0.00466119 0 0)
(0.00466315 0 0)
(0.0046647 0 0)
(0.00466681 0 0)
(0.00467217 0 0)
)
;

boundaryField
{
    inlet
    {
        type            fixedValue;
        value           uniform (0.005 0 0);
    }
    outlet
    {
        type            zeroGradient;
    }
    yzfaces
    {
        type            empty;
    }
}


// ************************************************************************* //
