/*--------------------------------*- C++ -*----------------------------------*\
| =========                 |                                                 |
| \\      /  F ield         | foam-extend: Open Source CFD                    |
|  \\    /   O peration     | Version:     5.0                                |
|   \\  /    A nd           | Web:         http://www.foam-extend.org         |
|    \\/     M anipulation  |                                                 |
\*---------------------------------------------------------------------------*/
FoamFile
{
    version     2.0;
    format      ascii;
    class       volVectorField;
    location    "0.913081";
    object      U.water;
}
// * * * * * * * * * * * * * * * * * * * * * * * * * * * * * * * * * * * * * //

dimensions      [0 1 -1 0 0 0 0];

internalField   nonuniform List<vector> 
100
(
(0.000201338 0 0)
(0.000502712 0 0)
(0.000755514 0 0)
(0.000999457 0 0)
(0.00126247 0 0)
(0.00152559 0 0)
(0.00185176 0 0)
(0.00225452 0 0)
(0.00259954 0 0)
(0.00286627 0 0)
(0.00306251 0 0)
(0.00322349 0 0)
(0.00337003 0 0)
(0.00351611 0 0)
(0.00367449 0 0)
(0.00385367 0 0)
(0.00404682 0 0)
(0.00424376 0 0)
(0.00443438 0 0)
(0.00460456 0 0)
(0.00474541 0 0)
(0.0048491 0 0)
(0.00491848 0 0)
(0.00496302 0 0)
(0.00499136 0 0)
(0.00500644 0 0)
(0.00501102 0 0)
(0.00500766 0 0)
(0.00501138 0 0)
(0.00501352 0 0)
(0.00501115 0 0)
(0.00501697 0 0)
(0.00502245 0 0)
(0.00502379 0 0)
(0.00502404 0 0)
(0.00502692 0 0)
(0.0050303 0 0)
(0.0050303 0 0)
(0.00502932 0 0)
(0.00502924 0 0)
(0.00503078 0 0)
(0.00503228 0 0)
(0.00502994 0 0)
(0.00503376 0 0)
(0.00503661 0 0)
(0.005036 0 0)
(0.0050308 0 0)
(0.00502839 0 0)
(0.00502892 0 0)
(0.00502448 0 0)
(0.00502246 0 0)
(0.00502294 0 0)
(0.00502399 0 0)
(0.00502125 0 0)
(0.00501913 0 0)
(0.005019 0 0)
(0.00502116 0 0)
(0.00502191 0 0)
(0.00502538 0 0)
(0.0050309 0 0)
(0.00503126 0 0)
(0.00502664 0 0)
(0.00502025 0 0)
(0.00501635 0 0)
(0.00501188 0 0)
(0.00501185 0 0)
(0.00501358 0 0)
(0.0050139 0 0)
(0.00501319 0 0)
(0.00500918 0 0)
(0.00500485 0 0)
(0.00500451 0 0)
(0.00500813 0 0)
(0.00500704 0 0)
(0.00500651 0 0)
(0.00500997 0 0)
(0.00501184 0 0)
(0.00501458 0 0)
(0.00502114 0 0)
(0.00502223 0 0)
(0.00501871 0 0)
(0.00501642 0 0)
(0.00501439 0 0)
(0.00501366 0 0)
(0.00501621 0 0)
(0.00501755 0 0)
(0.00501709 0 0)
(0.00502068 0 0)
(0.00502339 0 0)
(0.0050248 0 0)
(0.0050251 0 0)
(0.00502652 0 0)
(0.00502955 0 0)
(0.00503341 0 0)
(0.00503414 0 0)
(0.00503251 0 0)
(0.0050342 0 0)
(0.00503508 0 0)
(0.00503819 0 0)
(0.00504469 0 0)
)
;

boundaryField
{
    inlet
    {
        type            fixedValue;
        value           uniform (0 0 0);
    }
    outlet
    {
        type            zeroGradient;
    }
    yzfaces
    {
        type            empty;
    }
}


// ************************************************************************* //
