/*--------------------------------*- C++ -*----------------------------------*\
| =========                 |                                                 |
| \\      /  F ield         | foam-extend: Open Source CFD                    |
|  \\    /   O peration     | Version:     5.0                                |
|   \\  /    A nd           | Web:         http://www.foam-extend.org         |
|    \\/     M anipulation  |                                                 |
\*---------------------------------------------------------------------------*/
FoamFile
{
    version     2.0;
    format      ascii;
    class       volScalarField;
    location    "4";
    object      alpha.gas;
}
// * * * * * * * * * * * * * * * * * * * * * * * * * * * * * * * * * * * * * //

dimensions      [0 0 0 0 0 0 0];

internalField   nonuniform List<scalar> 
100
(
0.151851
0.138759
0.127519
0.118704
0.112548
0.10677
0.10245
0.0984019
0.0949313
0.0917028
0.0885692
0.0861784
0.0840598
0.0823915
0.0804548
0.0780894
0.0762854
0.0747345
0.0729091
0.0713307
0.0697263
0.0680427
0.0662652
0.0644794
0.0627421
0.0609687
0.0587954
0.0568369
0.0542124
0.0512508
0.0469086
0.0403795
0.0285314
0.0317843
0.0325554
0.0329369
0.0331003
0.033181
0.0332013
0.0332254
0.0332763
0.0333551
0.0334299
0.0335703
0.0337252
0.033878
0.0340261
0.0341594
0.0342707
0.0343518
0.0343767
0.0343674
0.034281
0.034129
0.0339021
0.0336247
0.0332937
0.0328798
0.0323915
0.0317918
0.0311248
0.0303486
0.0294732
0.0284688
0.0273155
0.026037
0.0245943
0.022995
0.0212598
0.019415
0.0175352
0.0157371
0.0141384
0.0128217
0.0118356
0.0111469
0.0106959
0.0104176
0.0102514
0.0101496
0.0100833
0.0100482
0.0100328
0.0100219
0.010014
0.0100071
0.010008
0.0100055
0.0100062
0.010007
0.0100063
0.0100079
0.0100109
0.0100105
0.0100099
0.0100065
0.0100056
0.00999778
0.00999839
0.00999655
)
;

boundaryField
{
    inlet
    {
        type            fixedValue;
        value           uniform 0.2;
    }
    outlet
    {
        type            zeroGradient;
    }
    yzfaces
    {
        type            empty;
    }
}


// ************************************************************************* //
