/*--------------------------------*- C++ -*----------------------------------*\
| =========                 |                                                 |
| \\      /  F ield         | foam-extend: Open Source CFD                    |
|  \\    /   O peration     | Version:     5.0                                |
|   \\  /    A nd           | Web:         http://www.foam-extend.org         |
|    \\/     M anipulation  |                                                 |
\*---------------------------------------------------------------------------*/
FoamFile
{
    version     2.0;
    format      ascii;
    class       volScalarField;
    location    "4";
    object      Cl.water;
}
// * * * * * * * * * * * * * * * * * * * * * * * * * * * * * * * * * * * * * //

dimensions      [0 0 0 0 0 0 0];

internalField   nonuniform List<scalar> 
100
(
0.00551018
0.00701426
0.00830541
0.00932641
0.010022
0.0106801
0.0111966
0.0115934
0.0120342
0.0123745
0.012689
0.0130305
0.0132974
0.0134956
0.0137118
0.0139466
0.0141842
0.0143821
0.014574
0.0147721
0.0149412
0.0151568
0.0153517
0.0155379
0.0157348
0.0159581
0.0162121
0.0164364
0.0167292
0.0170509
0.0175142
0.0182091
0.0194249
0.0193678
0.0192364
0.0191846
0.0191741
0.0191553
0.0191541
0.0191493
0.019141
0.0191306
0.0191245
0.0191024
0.019088
0.0190734
0.0190619
0.0190456
0.0190297
0.0190162
0.0190211
0.0190122
0.0190268
0.0190491
0.0190837
0.0191218
0.0191449
0.0191929
0.0192527
0.0193239
0.0193951
0.0194836
0.019579
0.0196944
0.019829
0.0199764
0.0201352
0.0203166
0.0205169
0.0207341
0.0209462
0.021151
0.021338
0.0214862
0.0216017
0.0216856
0.021738
0.021767
0.0217818
0.0218129
0.0218206
0.0218232
0.0218182
0.0218163
0.0218219
0.0218152
0.0218141
0.0218211
0.0218099
0.0218174
0.0218134
0.0218227
0.021817
0.0218009
0.02181
0.0218195
0.0218193
0.0218267
0.0218289
0.0218298
)
;

boundaryField
{
    inlet
    {
        type            fixedValue;
        value           uniform 0;
    }
    outlet
    {
        type            zeroGradient;
    }
    yzfaces
    {
        type            empty;
    }
}


// ************************************************************************* //
