/*--------------------------------*- C++ -*----------------------------------*\
| =========                 |                                                 |
| \\      /  F ield         | foam-extend: Open Source CFD                    |
|  \\    /   O peration     | Version:     5.0                                |
|   \\  /    A nd           | Web:         http://www.foam-extend.org         |
|    \\/     M anipulation  |                                                 |
\*---------------------------------------------------------------------------*/
FoamFile
{
    version     2.0;
    format      ascii;
    class       volScalarField;
    location    "4";
    object      CO2.water;
}
// * * * * * * * * * * * * * * * * * * * * * * * * * * * * * * * * * * * * * //

dimensions      [0 0 0 0 0 0 0];

internalField   nonuniform List<scalar> 
100
(
0.00126
0.00160474
0.00190011
0.00213308
0.00229279
0.00244367
0.00256091
0.00265282
0.0027521
0.00283057
0.00290208
0.00297961
0.00303992
0.00308621
0.0031352
0.0031895
0.00324361
0.00328805
0.00333282
0.00337921
0.00341745
0.00346567
0.00351066
0.00355315
0.00359919
0.00365037
0.00370816
0.00375896
0.00382544
0.00389885
0.00400609
0.0041649
0.00444285
0.00136044
0.00043579
0.000144099
4.86735e-05
1.6666e-05
5.73697e-06
1.97392e-06
6.7444e-07
2.27867e-07
7.58916e-08
2.49014e-08
8.03327e-09
2.54651e-09
7.9297e-10
2.42703e-10
7.30032e-11
2.15841e-11
6.27148e-12
1.78387e-12
4.94864e-13
1.38255e-13
3.97892e-14
1.46904e-14
8.97313e-15
6.93729e-15
5.49474e-15
4.21702e-15
3.12264e-15
2.2404e-15
1.56799e-15
1.07589e-15
7.25733e-16
4.82089e-16
3.1589e-16
2.0411e-16
1.30102e-16
8.17465e-17
5.05628e-17
3.07352e-17
1.83402e-17
1.07277e-17
6.14627e-18
3.44942e-18
1.89889e-18
1.02584e-18
5.44699e-19
2.84691e-19
1.46677e-19
7.45315e-20
3.73683e-20
1.84944e-20
9.0393e-21
4.36479e-21
2.08079e-21
9.80019e-22
4.55956e-22
2.09648e-22
9.53666e-23
4.28628e-23
1.90521e-23
8.36992e-24
3.63992e-24
1.56392e-24
6.64155e-25
2.78816e-25
1.1587e-25
4.8652e-26
)
;

boundaryField
{
    inlet
    {
        type            fixedValue;
        value           uniform 0;
    }
    outlet
    {
        type            zeroGradient;
    }
    yzfaces
    {
        type            empty;
    }
}


// ************************************************************************* //
