/*--------------------------------*- C++ -*----------------------------------*\
| =========                 |                                                 |
| \\      /  F ield         | foam-extend: Open Source CFD                    |
|  \\    /   O peration     | Version:     5.0                                |
|   \\  /    A nd           | Web:         http://www.foam-extend.org         |
|    \\/     M anipulation  |                                                 |
\*---------------------------------------------------------------------------*/
FoamFile
{
    version     2.0;
    format      ascii;
    class       volScalarField;
    location    "4";
    object      CO2.gas;
}
// * * * * * * * * * * * * * * * * * * * * * * * * * * * * * * * * * * * * * //

dimensions      [0 0 0 0 0 0 0];

internalField   nonuniform List<scalar> 
100
(
0.151292
0.138489
0.12727
0.118473
0.112329
0.106351
0.10225
0.09767
0.0945104
0.0910895
0.0876924
0.0857805
0.0837707
0.0822311
0.0802071
0.0776727
0.0760274
0.0745606
0.0726587
0.0711918
0.0695035
0.0679102
0.0660884
0.0642424
0.0625198
0.06085
0.0586809
0.0567262
0.0541068
0.051151
0.0468172
0.0403009
0.0284759
0.0315347
0.0322889
0.0325494
0.032517
0.032372
0.0320748
0.0317348
0.0313252
0.0308525
0.0302761
0.0296814
0.0289914
0.0281952
0.0272857
0.0262698
0.0251405
0.0238998
0.0225355
0.021102
0.0195519
0.0179468
0.0162948
0.0146388
0.0130155
0.01142
0.00987588
0.00840507
0.0070405
0.00578516
0.00466019
0.00366341
0.00279763
0.00206792
0.00147175
0.000999418
0.000641716
0.000385362
0.000213646
0.000108024
4.94584e-05
2.05135e-05
7.78951e-06
2.76576e-06
9.41555e-07
3.1456e-07
1.05123e-07
3.55388e-08
1.2202e-08
4.30122e-09
1.55545e-09
5.72542e-10
2.12052e-10
7.84027e-11
2.86393e-11
1.0352e-11
3.55159e-12
1.14298e-12
3.38762e-13
8.68753e-14
1.59332e-14
0
0
0
0
0
0
0
)
;

boundaryField
{
    inlet
    {
        type            fixedValue;
        value           uniform 0.2;
    }
    outlet
    {
        type            zeroGradient;
    }
    yzfaces
    {
        type            empty;
    }
}


// ************************************************************************* //
