/*--------------------------------*- C++ -*----------------------------------*\
| =========                 |                                                 |
| \\      /  F ield         | foam-extend: Open Source CFD                    |
|  \\    /   O peration     | Version:     5.0                                |
|   \\  /    A nd           | Web:         http://www.foam-extend.org         |
|    \\/     M anipulation  |                                                 |
\*---------------------------------------------------------------------------*/
FoamFile
{
    version     2.0;
    format      ascii;
    class       volScalarField;
    location    "4";
    object      H2O.gas;
}
// * * * * * * * * * * * * * * * * * * * * * * * * * * * * * * * * * * * * * //

dimensions      [0 0 0 0 0 0 0];

internalField   nonuniform List<scalar> 
100
(
1.39559e-05
0.00027023
0.000248339
0.000231173
0.000219184
0.000202158
0.000199518
0.000179972
0.000165627
0.000149785
0.00013424
0.000127884
0.000138832
0.000160455
0.000147427
0.000142804
0.000140034
0.000137832
0.000135698
0.000138914
0.000131675
0.000132511
0.000126996
0.000124157
0.000121341
0.000118735
0.000114502
0.000110688
0.000105577
9.98095e-05
9.1353e-05
7.86379e-05
5.55641e-05
0.000136599
0.000239729
0.000379755
0.000566057
0.000808496
0.0011144
0.00149474
0.00195609
0.0025049
0.00314535
0.00389112
0.00473684
0.00568432
0.00673352
0.00788311
0.00912657
0.0104511
0.011836
0.0132826
0.0147369
0.0161844
0.0175954
0.0189676
0.0202839
0.0214741
0.022519
0.0233787
0.024083
0.0245592
0.0248184
0.0248121
0.0245223
0.0239662
0.0231276
0.021999
0.0206165
0.0190263
0.0173211
0.0156276
0.0140868
0.0128022
0.011829
0.0111445
0.0106969
0.0104212
0.0102558
0.0101436
0.0100812
0.0100471
0.0100336
0.0100216
0.010011
0.0100098
0.0100077
0.0100029
0.0100085
0.0100031
0.0100062
0.0100034
0.0100109
0.0100058
0.0100103
0.010008
0.0100081
0.00999703
0.00999975
0.0100021
)
;

boundaryField
{
    inlet
    {
        type            fixedValue;
        value           uniform 0;
    }
    outlet
    {
        type            zeroGradient;
    }
    yzfaces
    {
        type            empty;
    }
}


// ************************************************************************* //
