/*--------------------------------*- C++ -*----------------------------------*\
| =========                 |                                                 |
| \\      /  F ield         | foam-extend: Open Source CFD                    |
|  \\    /   O peration     | Version:     5.0                                |
|   \\  /    A nd           | Web:         http://www.foam-extend.org         |
|    \\/     M anipulation  |                                                 |
\*---------------------------------------------------------------------------*/
FoamFile
{
    version     2.0;
    format      ascii;
    class       volScalarField;
    location    "4";
    object      Na.water;
}
// * * * * * * * * * * * * * * * * * * * * * * * * * * * * * * * * * * * * * //

dimensions      [0 0 0 0 0 0 0];

internalField   nonuniform List<scalar> 
100
(
0.0055084
0.00701821
0.00830988
0.00932609
0.010027
0.0106853
0.0111971
0.0115989
0.0120349
0.0123743
0.0126894
0.0130232
0.0132858
0.0134915
0.0137078
0.0139467
0.0141795
0.014376
0.0145766
0.0147771
0.014941
0.0151485
0.0153413
0.0155343
0.0157367
0.0159622
0.0162135
0.0164334
0.0167219
0.0170421
0.0175166
0.0182104
0.0194251
0.0193737
0.0192446
0.0191897
0.019173
0.0191572
0.0191637
0.0191516
0.0191439
0.0191407
0.0191391
0.019116
0.0190969
0.0190776
0.0190635
0.0190509
0.0190345
0.0190276
0.0190239
0.019014
0.0190267
0.0190426
0.0190767
0.019106
0.0191363
0.0191775
0.0192364
0.0193145
0.0193916
0.0194838
0.0195772
0.019694
0.0198296
0.0199816
0.0201453
0.0203311
0.0205333
0.0207436
0.0209614
0.0211723
0.0213562
0.021502
0.0216103
0.0216852
0.0217326
0.0217603
0.0217792
0.0218077
0.0218054
0.0218093
0.021807
0.0218156
0.0218218
0.0218136
0.0218207
0.021824
0.0218169
0.0218315
0.0218251
0.0218261
0.0218118
0.0217954
0.0218038
0.0218122
0.0218182
0.0218301
0.0218351
0.0218488
)
;

boundaryField
{
    inlet
    {
        type            fixedValue;
        value           uniform 0;
    }
    outlet
    {
        type            zeroGradient;
    }
    yzfaces
    {
        type            empty;
    }
}


// ************************************************************************* //
