/*--------------------------------*- C++ -*----------------------------------*\
| =========                 |                                                 |
| \\      /  F ield         | foam-extend: Open Source CFD                    |
|  \\    /   O peration     | Version:     5.0                                |
|   \\  /    A nd           | Web:         http://www.foam-extend.org         |
|    \\/     M anipulation  |                                                 |
\*---------------------------------------------------------------------------*/
FoamFile
{
    version     2.0;
    format      ascii;
    class       volScalarField;
    location    "4";
    object      Ns;
}
// * * * * * * * * * * * * * * * * * * * * * * * * * * * * * * * * * * * * * //

dimensions      [0 -3 0 0 1 0 0];

internalField   nonuniform List<scalar> 
100
(
1.95922
5.22897
5.04622
2.97669
5.76017
0.861181
1.68775
0.551699
1.82429
0.90121
2.21311
0.864066
0.519194
3.82672
0.770266
0.0460366
0.343879
0.26451
0.0019899
0.317266
2.13598
0.175102
0.00308018
0.634062
0.914359
1.72431
0.721754
1.63097
5.07502
11.2277
20.8147
38.6464
85.4167
171.284
173.016
174.558
172.964
176.042
170.96
175.411
160.76
177.707
173.713
163.269
181.871
174.976
176.823
170.806
172.133
174.697
176.95
176.424
175.756
172.466
173.437
176.444
166.835
175.858
176.146
171.508
175.308
172.991
173.783
172.45
171.313
174.463
173.932
175.376
170.938
175.15
166.765
176.499
174.073
174.35
177.542
170.624
175.27
176.446
175.239
171.559
172.146
174.133
172.241
172.492
169.563
174.019
170.881
172.138
172.779
172.705
170.71
177.287
171.506
177.178
176.185
173.613
177.285
172.56
172.612
170.146
)
;

boundaryField
{
    inlet
    {
        type            fixedValue;
        value           uniform 0;
    }
    outlet
    {
        type            zeroGradient;
    }
    yzfaces
    {
        type            empty;
    }
}


// ************************************************************************* //
