/*--------------------------------*- C++ -*----------------------------------*\
| =========                 |                                                 |
| \\      /  F ield         | foam-extend: Open Source CFD                    |
|  \\    /   O peration     | Version:     5.0                                |
|   \\  /    A nd           | Web:         http://www.foam-extend.org         |
|    \\/     M anipulation  |                                                 |
\*---------------------------------------------------------------------------*/
FoamFile
{
    version     2.0;
    format      ascii;
    class       surfaceScalarField;
    location    "4";
    object      phi;
}
// * * * * * * * * * * * * * * * * * * * * * * * * * * * * * * * * * * * * * //

dimensions      [0 3 -1 0 0 0 0];

internalField   nonuniform List<scalar> 
99
(
1.22862e-06
1.22744e-06
1.2338e-06
1.23343e-06
1.23727e-06
1.24076e-06
1.23512e-06
1.23415e-06
1.22686e-06
1.23637e-06
1.23342e-06
1.24141e-06
1.23397e-06
1.23621e-06
1.22875e-06
1.23091e-06
1.2361e-06
1.23321e-06
1.23415e-06
1.23074e-06
1.23078e-06
1.22919e-06
1.22674e-06
1.22966e-06
1.23551e-06
1.23227e-06
1.23391e-06
1.23469e-06
1.23429e-06
1.2302e-06
1.22391e-06
1.21718e-06
1.20501e-06
1.21885e-06
1.22279e-06
1.22435e-06
1.22554e-06
1.22625e-06
1.22788e-06
1.22693e-06
1.22634e-06
1.22544e-06
1.22661e-06
1.22605e-06
1.22611e-06
1.22561e-06
1.22598e-06
1.22672e-06
1.22666e-06
1.22749e-06
1.22765e-06
1.22541e-06
1.22426e-06
1.22416e-06
1.22598e-06
1.22756e-06
1.22749e-06
1.22491e-06
1.22527e-06
1.22617e-06
1.22648e-06
1.22689e-06
1.22527e-06
1.22494e-06
1.22347e-06
1.22357e-06
1.22261e-06
1.22239e-06
1.22332e-06
1.22376e-06
1.22408e-06
1.22477e-06
1.22539e-06
1.2252e-06
1.2245e-06
1.22413e-06
1.22427e-06
1.22236e-06
1.22123e-06
1.22357e-06
1.22409e-06
1.22471e-06
1.22512e-06
1.22455e-06
1.22568e-06
1.22392e-06
1.22433e-06
1.22506e-06
1.22465e-06
1.22608e-06
1.22492e-06
1.22712e-06
1.22697e-06
1.22928e-06
1.22876e-06
1.22886e-06
1.22772e-06
1.22773e-06
1.22757e-06
)
;

boundaryField
{
    inlet
    {
        type            calculated;
        value           uniform -1.225e-06;
    }
    outlet
    {
        type            calculated;
        value           uniform 1.22554e-06;
    }
    yzfaces
    {
        type            empty;
    }
}


// ************************************************************************* //
