/*--------------------------------*- C++ -*----------------------------------*\
| =========                 |                                                 |
| \\      /  F ield         | foam-extend: Open Source CFD                    |
|  \\    /   O peration     | Version:     5.0                                |
|   \\  /    A nd           | Web:         http://www.foam-extend.org         |
|    \\/     M anipulation  |                                                 |
\*---------------------------------------------------------------------------*/
FoamFile
{
    version     2.0;
    format      ascii;
    class       volVectorField;
    location    "4";
    object      U.gas;
}
// * * * * * * * * * * * * * * * * * * * * * * * * * * * * * * * * * * * * * //

dimensions      [0 1 -1 0 0 0 0];

internalField   nonuniform List<vector> 
100
(
(0.00657642 0 0)
(0.00716996 0 0)
(0.0077514 0 0)
(0.00829861 0 0)
(0.00867636 0 0)
(0.00912051 0 0)
(0.00941819 0 0)
(0.00969862 0 0)
(0.00993496 0 0)
(0.0102048 0 0)
(0.0104948 0 0)
(0.0107097 0 0)
(0.0108923 0 0)
(0.0109969 0 0)
(0.0111619 0 0)
(0.0113577 0 0)
(0.0115389 0 0)
(0.0116816 0 0)
(0.0118445 0 0)
(0.011959 0 0)
(0.012095 0 0)
(0.0122256 0 0)
(0.0123788 0 0)
(0.0125277 0 0)
(0.0127131 0 0)
(0.0128739 0 0)
(0.0130259 0 0)
(0.013201 0 0)
(0.013398 0 0)
(0.0135861 0 0)
(0.0138389 0 0)
(0.0141626 0 0)
(0.0147227 0 0)
(0.0115675 0 0)
(0.0120235 0 0)
(0.0122176 0 0)
(0.0123142 0 0)
(0.0123589 0 0)
(0.0123884 0 0)
(0.0123954 0 0)
(0.0123901 0 0)
(0.0123853 0 0)
(0.0123984 0 0)
(0.0124065 0 0)
(0.0124239 0 0)
(0.0124455 0 0)
(0.0124661 0 0)
(0.0124955 0 0)
(0.0125217 0 0)
(0.0125434 0 0)
(0.0125658 0 0)
(0.012562 0 0)
(0.0125527 0 0)
(0.0125415 0 0)
(0.012537 0 0)
(0.0125282 0 0)
(0.0125009 0 0)
(0.0124455 0 0)
(0.0123782 0 0)
(0.0123172 0 0)
(0.0122254 0 0)
(0.0121166 0 0)
(0.0119681 0 0)
(0.0117866 0 0)
(0.0115644 0 0)
(0.0112868 0 0)
(0.010957 0 0)
(0.010547 0 0)
(0.0100558 0 0)
(0.00947465 0 0)
(0.00879995 0 0)
(0.00805559 0 0)
(0.00729399 0 0)
(0.0065804 0 0)
(0.00597128 0 0)
(0.0055087 0 0)
(0.00518411 0 0)
(0.00496803 0 0)
(0.0048314 0 0)
(0.00475528 0 0)
(0.00471395 0 0)
(0.00468568 0 0)
(0.00467073 0 0)
(0.00466345 0 0)
(0.00465978 0 0)
(0.00465462 0 0)
(0.00464874 0 0)
(0.00465137 0 0)
(0.00465119 0 0)
(0.00465283 0 0)
(0.00465286 0 0)
(0.00465517 0 0)
(0.00466053 0 0)
(0.00466593 0 0)
(0.00466891 0 0)
(0.00466751 0 0)
(0.00466396 0 0)
(0.00466223 0 0)
(0.00465804 0 0)
(0.00465341 0 0)
)
;

boundaryField
{
    inlet
    {
        type            fixedValue;
        value           uniform (0.005 0 0);
    }
    outlet
    {
        type            zeroGradient;
    }
    yzfaces
    {
        type            empty;
    }
}


// ************************************************************************* //
