/*--------------------------------*- C++ -*----------------------------------*\
| =========                 |                                                 |
| \\      /  F ield         | foam-extend: Open Source CFD                    |
|  \\    /   O peration     | Version:     5.0                                |
|   \\  /    A nd           | Web:         http://www.foam-extend.org         |
|    \\/     M anipulation  |                                                 |
\*---------------------------------------------------------------------------*/
FoamFile
{
    version     2.0;
    format      ascii;
    class       volVectorField;
    location    "4";
    object      U.water;
}
// * * * * * * * * * * * * * * * * * * * * * * * * * * * * * * * * * * * * * //

dimensions      [0 1 -1 0 0 0 0];

internalField   nonuniform List<vector> 
100
(
(5.90319e-05 0 0)
(0.00013615 0 0)
(0.000200822 0 0)
(0.000271684 0 0)
(0.000340474 0 0)
(0.00040375 0 0)
(0.000469013 0 0)
(0.000526593 0 0)
(0.000583948 0 0)
(0.000642634 0 0)
(0.00070502 0 0)
(0.000765967 0 0)
(0.000817268 0 0)
(0.000861681 0 0)
(0.000904038 0 0)
(0.000959932 0 0)
(0.00102407 0 0)
(0.0010766 0 0)
(0.00112922 0 0)
(0.00118531 0 0)
(0.00123861 0 0)
(0.00129796 0 0)
(0.00136193 0 0)
(0.00143766 0 0)
(0.00151936 0 0)
(0.00160033 0 0)
(0.00168858 0 0)
(0.00179432 0 0)
(0.00191823 0 0)
(0.00206975 0 0)
(0.0022771 0 0)
(0.00260804 0 0)
(0.0032057 0 0)
(0.00369564 0 0)
(0.0036141 0 0)
(0.00357005 0 0)
(0.00354913 0 0)
(0.00354067 0 0)
(0.00353944 0 0)
(0.00353844 0 0)
(0.00353303 0 0)
(0.00352614 0 0)
(0.00352019 0 0)
(0.00351258 0 0)
(0.00349953 0 0)
(0.00348583 0 0)
(0.00347331 0 0)
(0.00346276 0 0)
(0.00345293 0 0)
(0.00344588 0 0)
(0.00344232 0 0)
(0.0034385 0 0)
(0.00343683 0 0)
(0.0034444 0 0)
(0.00346198 0 0)
(0.00348721 0 0)
(0.00351432 0 0)
(0.00354101 0 0)
(0.00357456 0 0)
(0.00362052 0 0)
(0.00367472 0 0)
(0.00373504 0 0)
(0.00380083 0 0)
(0.00387414 0 0)
(0.0039579 0 0)
(0.00405212 0 0)
(0.00415587 0 0)
(0.00426784 0 0)
(0.00438885 0 0)
(0.00451232 0 0)
(0.00462998 0 0)
(0.00473649 0 0)
(0.00482587 0 0)
(0.00489305 0 0)
(0.00493827 0 0)
(0.00496702 0 0)
(0.00498614 0 0)
(0.00499449 0 0)
(0.00499531 0 0)
(0.0050019 0 0)
(0.00501015 0 0)
(0.00501405 0 0)
(0.00501703 0 0)
(0.00501704 0 0)
(0.00501842 0 0)
(0.00501734 0 0)
(0.00501475 0 0)
(0.00501705 0 0)
(0.00501775 0 0)
(0.00501987 0 0)
(0.00502044 0 0)
(0.00502254 0 0)
(0.00502667 0 0)
(0.00503102 0 0)
(0.00503471 0 0)
(0.00503388 0 0)
(0.00503184 0 0)
(0.00502949 0 0)
(0.00502938 0 0)
(0.00502492 0 0)
)
;

boundaryField
{
    inlet
    {
        type            fixedValue;
        value           uniform (0 0 0);
    }
    outlet
    {
        type            zeroGradient;
    }
    yzfaces
    {
        type            empty;
    }
}


// ************************************************************************* //
