/*--------------------------------*- C++ -*----------------------------------*\
| =========                 |                                                 |
| \\      /  F ield         | foam-extend: Open Source CFD                    |
|  \\    /   O peration     | Version:     5.0                                |
|   \\  /    A nd           | Web:         http://www.foam-extend.org         |
|    \\/     M anipulation  |                                                 |
\*---------------------------------------------------------------------------*/
FoamFile
{
    version     2.0;
    format      ascii;
    class       surfaceScalarField;
    location    "4";
    object      phi.gas;
}
// * * * * * * * * * * * * * * * * * * * * * * * * * * * * * * * * * * * * * //

dimensions      [0 3 -1 0 0 0 0];

internalField   nonuniform List<scalar> 
99
(
0.000631414
0.000639623
0.000647056
0.000653872
0.000660513
0.000666981
0.000673138
0.000678997
0.000684904
0.000690423
0.000695897
0.000701036
0.000706256
0.000711333
0.000716196
0.000720965
0.000725612
0.000730005
0.000734582
0.000738981
0.000743125
0.000747276
0.000751457
0.00075556
0.000759542
0.000763543
0.000767562
0.000771335
0.000775003
0.000778703
0.000782317
0.000785923
0.000789551
0.000793039
0.000796504
0.000800026
0.000803492
0.0008068
0.000809939
0.000813188
0.000816442
0.000819549
0.000822733
0.000825852
0.00082894
0.000832036
0.000835177
0.000838205
0.00084106
0.000843892
0.000846786
0.000849443
0.000852219
0.000854979
0.000857611
0.00086031
0.000862987
0.000865677
0.000868197
0.000870866
0.000873295
0.00087598
0.000878565
0.000881204
0.000883848
0.000886401
0.000888801
0.000891324
0.000893773
0.000896148
0.000898571
0.000901139
0.000903493
0.000905844
0.000908229
0.000910444
0.000912848
0.00091516
0.00091752
0.000919652
0.000921967
0.00092427
0.000926439
0.000928644
0.000930904
0.000933116
0.000935229
0.00093737
0.000939478
0.000941597
0.000943795
0.000945794
0.000947871
0.000949915
0.000951863
0.00095411
0.000956056
0.000957915
0.00095998
)
;

boundaryField
{
    inlet
    {
        type            fixedValue;
        value           uniform -0.0006125;
    }
    outlet
    {
        type            calculated;
        value           uniform 0.000960902;
    }
    yzfaces
    {
        type            empty;
    }
}


// ************************************************************************* //
