/*--------------------------------*- C++ -*----------------------------------*\
| =========                 |                                                 |
| \\      /  F ield         | foam-extend: Open Source CFD                    |
|  \\    /   O peration     | Version:     5.0                                |
|   \\  /    A nd           | Web:         http://www.foam-extend.org         |
|    \\/     M anipulation  |                                                 |
\*---------------------------------------------------------------------------*/
FoamFile
{
    version     2.0;
    format      ascii;
    class       volScalarField;
    location    "6";
    object      alpha.gas;
}
// * * * * * * * * * * * * * * * * * * * * * * * * * * * * * * * * * * * * * //

dimensions      [0 0 0 0 0 0 0];

internalField   nonuniform List<scalar> 
100
(
0.160356
0.146383
0.138959
0.131571
0.126078
0.121099
0.116343
0.112528
0.10904
0.105907
0.102676
0.0997966
0.0968613
0.094733
0.0928853
0.09093
0.0890587
0.0877571
0.0867215
0.0856771
0.0845979
0.0832338
0.0819738
0.0806024
0.0794191
0.0781994
0.0770738
0.0761092
0.0751893
0.07418
0.0731992
0.0721558
0.0712529
0.0705191
0.0697724
0.069006
0.0681973
0.0674134
0.066635
0.0660109
0.0653939
0.064713
0.0640068
0.0633335
0.0627135
0.0621882
0.0615698
0.0609335
0.0603609
0.059804
0.0592653
0.0586595
0.0580878
0.0574732
0.0569408
0.056335
0.0557474
0.0552708
0.0547973
0.0543171
0.0538788
0.053316
0.0529052
0.0524272
0.0519875
0.0515399
0.0510739
0.0506169
0.050141
0.0496482
0.0491808
0.0485995
0.0480714
0.0475239
0.0469514
0.046374
0.0458011
0.0452058
0.0446101
0.044042
0.0434585
0.0428919
0.0423214
0.0417342
0.0411448
0.0404752
0.0398618
0.0392126
0.038549
0.0378633
0.0371443
0.0363749
0.0355737
0.0347298
0.0338382
0.0329002
0.0318845
0.0307962
0.0296012
0.0282768
)
;

boundaryField
{
    inlet
    {
        type            fixedValue;
        value           uniform 0.2;
    }
    outlet
    {
        type            zeroGradient;
    }
    yzfaces
    {
        type            empty;
    }
}


// ************************************************************************* //
