/*--------------------------------*- C++ -*----------------------------------*\
| =========                 |                                                 |
| \\      /  F ield         | foam-extend: Open Source CFD                    |
|  \\    /   O peration     | Version:     5.0                                |
|   \\  /    A nd           | Web:         http://www.foam-extend.org         |
|    \\/     M anipulation  |                                                 |
\*---------------------------------------------------------------------------*/
FoamFile
{
    version     2.0;
    format      ascii;
    class       volScalarField;
    location    "6";
    object      CO2.water;
}
// * * * * * * * * * * * * * * * * * * * * * * * * * * * * * * * * * * * * * //

dimensions      [0 0 0 0 0 0 0];

internalField   nonuniform List<scalar> 
100
(
0.00104124
0.00140824
0.00160321
0.00179726
0.00194152
0.00207229
0.00219722
0.00229741
0.00238902
0.0024713
0.00255617
0.0026318
0.00270889
0.00276479
0.00281332
0.00286467
0.00291382
0.00294801
0.00297521
0.00300264
0.00303098
0.00306681
0.0030999
0.00313592
0.003167
0.00319904
0.0032286
0.00325394
0.0032781
0.00330461
0.00333037
0.00335777
0.00338148
0.00340076
0.00342037
0.0034405
0.00346174
0.00348233
0.00350277
0.00351916
0.00353537
0.00355325
0.0035718
0.00358948
0.00360577
0.00361956
0.00363581
0.00365252
0.00366756
0.00368218
0.00369633
0.00371224
0.00372726
0.0037434
0.00375738
0.00377329
0.00378873
0.00380125
0.00381368
0.00382629
0.00383781
0.00385259
0.00386338
0.00387593
0.00388748
0.00389924
0.00391148
0.00392348
0.00393598
0.00394892
0.0039612
0.00397646
0.00399033
0.00400471
0.00401975
0.00403492
0.00404996
0.0040656
0.00408124
0.00409617
0.00411149
0.00412637
0.00414136
0.00415678
0.00417226
0.00418984
0.000143739
2.17033e-05
3.16118e-06
4.59981e-07
6.98387e-08
1.18264e-08
2.32854e-09
5.07049e-10
1.17203e-10
2.78417e-11
6.67782e-12
1.60659e-12
3.84923e-13
9.51185e-14
)
;

boundaryField
{
    inlet
    {
        type            fixedValue;
        value           uniform 0;
    }
    outlet
    {
        type            zeroGradient;
    }
    yzfaces
    {
        type            empty;
    }
}


// ************************************************************************* //
