/*--------------------------------*- C++ -*----------------------------------*\
| =========                 |                                                 |
| \\      /  F ield         | foam-extend: Open Source CFD                    |
|  \\    /   O peration     | Version:     5.0                                |
|   \\  /    A nd           | Web:         http://www.foam-extend.org         |
|    \\/     M anipulation  |                                                 |
\*---------------------------------------------------------------------------*/
FoamFile
{
    version     2.0;
    format      ascii;
    class       volScalarField;
    location    "6";
    object      CO2.gas;
}
// * * * * * * * * * * * * * * * * * * * * * * * * * * * * * * * * * * * * * //

dimensions      [0 0 0 0 0 0 0];

internalField   nonuniform List<scalar> 
100
(
0.160043
0.146098
0.138689
0.131315
0.125833
0.120863
0.116116
0.112309
0.108828
0.105701
0.102476
0.0996023
0.0966727
0.0945485
0.0927044
0.0907529
0.0888853
0.0875862
0.0865526
0.0855103
0.0844331
0.0830717
0.0818141
0.0804454
0.0792644
0.0780472
0.0769237
0.075961
0.0750428
0.0740355
0.0730566
0.0720153
0.0711142
0.0703818
0.0696365
0.0688716
0.0680645
0.0672821
0.0665052
0.0658824
0.0652666
0.064587
0.0638822
0.0632102
0.0625914
0.0620671
0.0614499
0.0608149
0.0602434
0.0596876
0.0591499
0.0585452
0.0579746
0.0573613
0.0568299
0.0562253
0.0556388
0.0551631
0.0546906
0.0542113
0.0537738
0.0532121
0.0528022
0.0523251
0.0518863
0.0514395
0.0509745
0.0505183
0.0500434
0.0495515
0.049085
0.0485048
0.0479778
0.0474314
0.04686
0.0462837
0.0457119
0.0451178
0.0445232
0.0439562
0.0433739
0.0428084
0.0422389
0.041653
0.0410647
0.0403964
0.031221
0.0268032
0.0230399
0.0197727
0.0169009
0.0143488
0.0120925
0.0100905
0.00832394
0.00677594
0.00542391
0.00426139
0.00327095
0.00243713
)
;

boundaryField
{
    inlet
    {
        type            fixedValue;
        value           uniform 0.2;
    }
    outlet
    {
        type            zeroGradient;
    }
    yzfaces
    {
        type            empty;
    }
}


// ************************************************************************* //
