/*--------------------------------*- C++ -*----------------------------------*\
| =========                 |                                                 |
| \\      /  F ield         | foam-extend: Open Source CFD                    |
|  \\    /   O peration     | Version:     5.0                                |
|   \\  /    A nd           | Web:         http://www.foam-extend.org         |
|    \\/     M anipulation  |                                                 |
\*---------------------------------------------------------------------------*/
FoamFile
{
    version     2.0;
    format      ascii;
    class       volScalarField;
    location    "6";
    object      H2O.gas;
}
// * * * * * * * * * * * * * * * * * * * * * * * * * * * * * * * * * * * * * //

dimensions      [0 0 0 0 0 0 0];

internalField   nonuniform List<scalar> 
100
(
0.000312288
0.000285076
0.000270619
0.000256231
0.000245534
0.000235837
0.000226574
0.000219145
0.000212352
0.000206251
0.000199958
0.000194351
0.000188635
0.00018449
0.000180891
0.000177083
0.000173439
0.000170904
0.000168888
0.000166854
0.000164752
0.000162095
0.000159642
0.000156971
0.000154666
0.000152291
0.000150099
0.00014822
0.000146429
0.000144463
0.000142553
0.000140521
0.000138763
0.000137334
0.00013588
0.000134387
0.000132812
0.000131286
0.00012977
0.000128554
0.000127353
0.000126027
0.000124651
0.00012334
0.000122133
0.00012111
0.000119905
0.000118666
0.000117551
0.000116467
0.000115417
0.000114238
0.000113124
0.000111927
0.000110891
0.000109711
0.000108566
0.000107638
0.000106716
0.000105781
0.000104927
0.000103831
0.000103031
0.0001021
0.000101244
0.000100372
9.9465e-05
9.85749e-05
9.76482e-05
9.66885e-05
9.57782e-05
9.46461e-05
9.36177e-05
9.25515e-05
9.14366e-05
9.0312e-05
8.91963e-05
8.80371e-05
8.68768e-05
8.57705e-05
8.46342e-05
8.35308e-05
8.24196e-05
8.12762e-05
8.01283e-05
7.88243e-05
0.00868133
0.0124337
0.0155487
0.0181175
0.0202528
0.0220216
0.0234826
0.0246214
0.0255051
0.0261236
0.0264645
0.026557
0.026338
0.0258289
)
;

boundaryField
{
    inlet
    {
        type            fixedValue;
        value           uniform 0;
    }
    outlet
    {
        type            zeroGradient;
    }
    yzfaces
    {
        type            empty;
    }
}


// ************************************************************************* //
