/*--------------------------------*- C++ -*----------------------------------*\
| =========                 |                                                 |
| \\      /  F ield         | foam-extend: Open Source CFD                    |
|  \\    /   O peration     | Version:     5.0                                |
|   \\  /    A nd           | Web:         http://www.foam-extend.org         |
|    \\/     M anipulation  |                                                 |
\*---------------------------------------------------------------------------*/
FoamFile
{
    version     2.0;
    format      ascii;
    class       surfaceScalarField;
    location    "6";
    object      phi;
}
// * * * * * * * * * * * * * * * * * * * * * * * * * * * * * * * * * * * * * //

dimensions      [0 3 -1 0 0 0 0];

internalField   nonuniform List<scalar> 
99
(
1.22588e-06
1.2289e-06
1.21579e-06
1.21355e-06
1.20776e-06
1.19876e-06
1.19805e-06
1.19595e-06
1.1906e-06
1.18408e-06
1.1837e-06
1.18339e-06
1.18479e-06
1.18849e-06
1.18893e-06
1.19312e-06
1.19238e-06
1.19431e-06
1.19408e-06
1.19532e-06
1.19798e-06
1.1917e-06
1.19714e-06
1.19667e-06
1.1986e-06
1.19804e-06
1.19928e-06
1.20161e-06
1.19774e-06
1.19548e-06
1.19534e-06
1.19526e-06
1.1967e-06
1.19412e-06
1.19306e-06
1.19233e-06
1.19014e-06
1.19165e-06
1.19159e-06
1.19282e-06
1.1921e-06
1.19146e-06
1.19388e-06
1.19498e-06
1.19681e-06
1.19428e-06
1.19526e-06
1.19525e-06
1.19505e-06
1.19661e-06
1.19581e-06
1.19551e-06
1.19518e-06
1.19739e-06
1.19626e-06
1.1973e-06
1.19963e-06
1.19967e-06
1.2002e-06
1.19947e-06
1.19933e-06
1.1994e-06
1.20161e-06
1.20206e-06
1.20183e-06
1.20216e-06
1.20101e-06
1.19963e-06
1.19788e-06
1.19534e-06
1.19245e-06
1.19144e-06
1.1909e-06
1.18853e-06
1.1865e-06
1.18289e-06
1.18011e-06
1.17846e-06
1.1773e-06
1.176e-06
1.17657e-06
1.17656e-06
1.17468e-06
1.17615e-06
1.17594e-06
1.17715e-06
1.17771e-06
1.17646e-06
1.17734e-06
1.17634e-06
1.17479e-06
1.17503e-06
1.17518e-06
1.17528e-06
1.17627e-06
1.17664e-06
1.17712e-06
1.17784e-06
1.17688e-06
)
;

boundaryField
{
    inlet
    {
        type            calculated;
        value           uniform -1.225e-06;
    }
    outlet
    {
        type            calculated;
        value           uniform 1.17941e-06;
    }
    yzfaces
    {
        type            empty;
    }
}


// ************************************************************************* //
