/*--------------------------------*- C++ -*----------------------------------*\
| =========                 |                                                 |
| \\      /  F ield         | foam-extend: Open Source CFD                    |
|  \\    /   O peration     | Version:     5.0                                |
|   \\  /    A nd           | Web:         http://www.foam-extend.org         |
|    \\/     M anipulation  |                                                 |
\*---------------------------------------------------------------------------*/
FoamFile
{
    version     2.0;
    format      ascii;
    class       surfaceScalarField;
    location    "6";
    object      phi.water;
}
// * * * * * * * * * * * * * * * * * * * * * * * * * * * * * * * * * * * * * //

dimensions      [0 3 -1 0 0 0 0];

internalField   nonuniform List<scalar> 
99
(
9.08253e-08
1.62557e-07
2.03285e-07
2.57643e-07
3.03415e-07
3.48657e-07
3.99014e-07
4.44624e-07
4.89362e-07
5.3092e-07
5.8213e-07
6.31137e-07
6.88977e-07
7.33502e-07
7.74138e-07
8.19266e-07
8.6588e-07
9.00332e-07
9.2734e-07
9.55624e-07
9.86803e-07
1.02217e-06
1.06218e-06
1.10571e-06
1.14587e-06
1.18526e-06
1.22637e-06
1.26374e-06
1.29193e-06
1.32898e-06
1.36719e-06
1.41037e-06
1.44939e-06
1.47713e-06
1.50951e-06
1.54137e-06
1.57674e-06
1.61496e-06
1.65331e-06
1.68427e-06
1.71368e-06
1.74828e-06
1.78755e-06
1.82493e-06
1.86362e-06
1.88637e-06
1.92283e-06
1.95832e-06
1.99112e-06
2.02654e-06
2.05775e-06
2.09236e-06
2.12851e-06
2.17299e-06
2.20356e-06
2.24613e-06
2.28843e-06
2.32022e-06
2.35338e-06
2.38458e-06
2.41366e-06
2.45684e-06
2.48889e-06
2.5255e-06
2.55743e-06
2.58949e-06
2.62127e-06
2.65375e-06
2.68628e-06
2.71829e-06
2.74674e-06
2.79089e-06
2.83118e-06
2.87051e-06
2.91263e-06
2.95044e-06
2.99109e-06
3.03728e-06
3.08516e-06
3.13093e-06
3.18276e-06
3.23239e-06
3.27872e-06
3.3362e-06
3.385e-06
3.45034e-06
3.50757e-06
3.56448e-06
3.62906e-06
3.69209e-06
3.75656e-06
3.83113e-06
3.90967e-06
3.99185e-06
4.08106e-06
4.17252e-06
4.27189e-06
4.37966e-06
4.49351e-06
)
;

boundaryField
{
    inlet
    {
        type            fixedValue;
        value           uniform 0;
    }
    outlet
    {
        type            calculated;
        value           uniform 4.65024e-06;
    }
    yzfaces
    {
        type            empty;
    }
}


// ************************************************************************* //
