/*--------------------------------*- C++ -*----------------------------------*\
| =========                 |                                                 |
| \\      /  F ield         | foam-extend: Open Source CFD                    |
|  \\    /   O peration     | Version:     5.0                                |
|   \\  /    A nd           | Web:         http://www.foam-extend.org         |
|    \\/     M anipulation  |                                                 |
\*---------------------------------------------------------------------------*/
FoamFile
{
    version     2.0;
    format      ascii;
    class       volVectorField;
    location    "6";
    object      U.gas;
}
// * * * * * * * * * * * * * * * * * * * * * * * * * * * * * * * * * * * * * //

dimensions      [0 1 -1 0 0 0 0];

internalField   nonuniform List<vector> 
100
(
(0.00622762 0 0)
(0.00680695 0 0)
(0.00711462 0 0)
(0.00743854 0 0)
(0.00770422 0 0)
(0.00793745 0 0)
(0.0081895 0 0)
(0.00841573 0 0)
(0.00861525 0 0)
(0.00878145 0 0)
(0.00898193 0 0)
(0.00918372 0 0)
(0.00940666 0 0)
(0.00958106 0 0)
(0.00973762 0 0)
(0.00991298 0 0)
(0.0100775 0 0)
(0.0101792 0 0)
(0.0102666 0 0)
(0.0103571 0 0)
(0.0104647 0 0)
(0.0105683 0 0)
(0.010669 0 0)
(0.0108117 0 0)
(0.0109145 0 0)
(0.0110273 0 0)
(0.011126 0 0)
(0.0112211 0 0)
(0.0112923 0 0)
(0.0113534 0 0)
(0.0114247 0 0)
(0.011515 0 0)
(0.0115933 0 0)
(0.0116437 0 0)
(0.0116882 0 0)
(0.0117441 0 0)
(0.011799 0 0)
(0.0118591 0 0)
(0.0119299 0 0)
(0.0119784 0 0)
(0.01203 0 0)
(0.0120794 0 0)
(0.0121457 0 0)
(0.012215 0 0)
(0.0122718 0 0)
(0.0123008 0 0)
(0.012345 0 0)
(0.0123981 0 0)
(0.012435 0 0)
(0.0124796 0 0)
(0.0125173 0 0)
(0.0125572 0 0)
(0.0125888 0 0)
(0.0126382 0 0)
(0.0126698 0 0)
(0.0127116 0 0)
(0.0127622 0 0)
(0.0127928 0 0)
(0.0128207 0 0)
(0.0128452 0 0)
(0.0128595 0 0)
(0.0128966 0 0)
(0.0129112 0 0)
(0.0129531 0 0)
(0.012967 0 0)
(0.012986 0 0)
(0.0130021 0 0)
(0.0130017 0 0)
(0.0129998 0 0)
(0.012992 0 0)
(0.012972 0 0)
(0.012978 0 0)
(0.0129732 0 0)
(0.0129665 0 0)
(0.0129493 0 0)
(0.0129232 0 0)
(0.0128892 0 0)
(0.0128662 0 0)
(0.0128474 0 0)
(0.012823 0 0)
(0.0128123 0 0)
(0.0128011 0 0)
(0.012774 0 0)
(0.0127522 0 0)
(0.0127374 0 0)
(0.0127268 0 0)
(0.0126932 0 0)
(0.0126584 0 0)
(0.0126143 0 0)
(0.012567 0 0)
(0.012501 0 0)
(0.0124349 0 0)
(0.0123627 0 0)
(0.0122798 0 0)
(0.0121872 0 0)
(0.0120785 0 0)
(0.011951 0 0)
(0.0117975 0 0)
(0.011611 0 0)
(0.0113951 0 0)
)
;

boundaryField
{
    inlet
    {
        type            fixedValue;
        value           uniform (0.005 0 0);
    }
    outlet
    {
        type            zeroGradient;
    }
    yzfaces
    {
        type            empty;
    }
}


// ************************************************************************* //
