/*--------------------------------*- C++ -*----------------------------------*\
| =========                 |                                                 |
| \\      /  F ield         | foam-extend: Open Source CFD                    |
|  \\    /   O peration     | Version:     5.0                                |
|   \\  /    A nd           | Web:         http://www.foam-extend.org         |
|    \\/     M anipulation  |                                                 |
\*---------------------------------------------------------------------------*/
FoamFile
{
    version     2.0;
    format      ascii;
    class       volVectorField;
    location    "6";
    object      U.water;
}
// * * * * * * * * * * * * * * * * * * * * * * * * * * * * * * * * * * * * * //

dimensions      [0 1 -1 0 0 0 0];

internalField   nonuniform List<vector> 
100
(
(4.35467e-05 0 0)
(0.000103179 0 0)
(0.00015053 0 0)
(0.000188102 0 0)
(0.000229388 0 0)
(0.000266593 0 0)
(0.000304838 0 0)
(0.000344543 0 0)
(0.000381452 0 0)
(0.000417021 0 0)
(0.000454283 0 0)
(0.000495546 0 0)
(0.000537745 0 0)
(0.000579887 0 0)
(0.000615159 0 0)
(0.000649827 0 0)
(0.000686657 0 0)
(0.000720417 0 0)
(0.00074609 0 0)
(0.000768828 0 0)
(0.000793485 0 0)
(0.000819971 0 0)
(0.000851151 0 0)
(0.000884595 0 0)
(0.000919203 0 0)
(0.000951466 0 0)
(0.000984084 0 0)
(0.00101646 0 0)
(0.0010437 0 0)
(0.00107004 0 0)
(0.00110068 0 0)
(0.0011333 0 0)
(0.00116707 0 0)
(0.00119507 0 0)
(0.00121973 0 0)
(0.00124596 0 0)
(0.00127293 0 0)
(0.00130251 0 0)
(0.00133323 0 0)
(0.00136224 0 0)
(0.00138736 0 0)
(0.00141317 0 0)
(0.00144273 0 0)
(0.00147383 0 0)
(0.00150515 0 0)
(0.00153104 0 0)
(0.00155489 0 0)
(0.00158384 0 0)
(0.00161164 0 0)
(0.00163952 0 0)
(0.00166737 0 0)
(0.00169416 0 0)
(0.00172315 0 0)
(0.00175549 0 0)
(0.00178647 0 0)
(0.00181572 0 0)
(0.00185007 0 0)
(0.00188104 0 0)
(0.00190768 0 0)
(0.00193396 0 0)
(0.00195901 0 0)
(0.00198715 0 0)
(0.00201867 0 0)
(0.00204641 0 0)
(0.00207453 0 0)
(0.00210105 0 0)
(0.00212738 0 0)
(0.00215386 0 0)
(0.00218042 0 0)
(0.00220678 0 0)
(0.00223205 0 0)
(0.00226082 0 0)
(0.00229543 0 0)
(0.00232809 0 0)
(0.00236142 0 0)
(0.00239412 0 0)
(0.00242643 0 0)
(0.0024617 0 0)
(0.00249958 0 0)
(0.00253772 0 0)
(0.00257712 0 0)
(0.00261853 0 0)
(0.00265778 0 0)
(0.00270001 0 0)
(0.00274439 0 0)
(0.00279159 0 0)
(0.00284253 0 0)
(0.00288903 0 0)
(0.00293878 0 0)
(0.00299045 0 0)
(0.00304138 0 0)
(0.00309727 0 0)
(0.00315934 0 0)
(0.00322441 0 0)
(0.00329452 0 0)
(0.00336916 0 0)
(0.00344802 0 0)
(0.00353356 0 0)
(0.00362332 0 0)
(0.00372423 0 0)
)
;

boundaryField
{
    inlet
    {
        type            fixedValue;
        value           uniform (0 0 0);
    }
    outlet
    {
        type            zeroGradient;
    }
    yzfaces
    {
        type            empty;
    }
}


// ************************************************************************* //
