/*--------------------------------*- C++ -*----------------------------------*\
| =========                 |                                                 |
| \\      /  F ield         | foam-extend: Open Source CFD                    |
|  \\    /   O peration     | Version:     5.0                                |
|   \\  /    A nd           | Web:         http://www.foam-extend.org         |
|    \\/     M anipulation  |                                                 |
\*---------------------------------------------------------------------------*/
FoamFile
{
    version     2.0;
    format      ascii;
    class       volScalarField;
    location    "7";
    object      alpha.water;
}
// * * * * * * * * * * * * * * * * * * * * * * * * * * * * * * * * * * * * * //

dimensions      [0 0 0 0 0 0 0];

internalField   nonuniform List<scalar> 
100
(
0.000961362
0.00157729
0.0021387
0.00261753
0.00314769
0.00367297
0.00419864
0.00454563
0.00486014
0.0052441
0.00570931
0.00620967
0.00670597
0.00714493
0.00757653
0.00787288
0.00820042
0.00861692
0.00906341
0.00949359
0.00986983
0.0101602
0.0105334
0.0109457
0.0113384
0.011658
0.011956
0.0123442
0.0127408
0.0130696
0.0133838
0.0137388
0.0141024
0.0144061
0.0147176
0.0150709
0.0154195
0.0157209
0.0160424
0.0164226
0.0167551
0.017102
0.0175027
0.0178982
0.018362
0.0188549
0.0193721
0.0198619
0.0202822
0.0207247
0.021129
0.0215096
0.0218876
0.0222362
0.0225768
0.0229024
0.0232165
0.0235248
0.0238154
0.0240956
0.0243603
0.0246209
0.0248613
0.0249746
0.0249733
0.0249731
0.0249658
0.0249755
0.024973
0.024967
0.0249747
0.0249736
0.0249675
0.0249832
0.0249719
0.0249804
0.0249716
0.0249782
0.0249723
0.0249775
0.0249766
0.0249879
0.0251094
0.025318
0.025495
0.0257341
0.0259805
0.0261735
0.026404
0.0266418
0.0269023
0.0271266
0.0273878
0.0276774
0.0279623
0.0282831
0.0285956
0.0289386
0.029328
0.0298155
)
;

boundaryField
{
    inlet
    {
        type            fixedValue;
        value           uniform 0;
    }
    outlet
    {
        type            zeroGradient;
    }
    yzfaces
    {
        type            empty;
    }
}


// ************************************************************************* //
