/*--------------------------------*- C++ -*----------------------------------*\
| =========                 |                                                 |
| \\      /  F ield         | foam-extend: Open Source CFD                    |
|  \\    /   O peration     | Version:     5.0                                |
|   \\  /    A nd           | Web:         http://www.foam-extend.org         |
|    \\/     M anipulation  |                                                 |
\*---------------------------------------------------------------------------*/
FoamFile
{
    version     2.0;
    format      ascii;
    class       volScalarField;
    location    "7";
    object      CO2.water;
}
// * * * * * * * * * * * * * * * * * * * * * * * * * * * * * * * * * * * * * //

dimensions      [0 0 0 0 0 0 0];

internalField   nonuniform List<scalar> 
100
(
2.52497e-05
4.14268e-05
5.61719e-05
6.87481e-05
8.26725e-05
9.6469e-05
0.000110275
0.000119389
0.000127649
0.000137734
0.000149953
0.000163094
0.000176129
0.000187658
0.000198994
0.000206778
0.00021538
0.000226319
0.000238046
0.000249345
0.000259227
0.000266852
0.000276656
0.000287484
0.000297799
0.000306191
0.000314019
0.000324214
0.000334632
0.000343268
0.00035152
0.000360845
0.000370394
0.00037837
0.000386552
0.00039583
0.000404987
0.000412902
0.000421345
0.000431331
0.000440065
0.000449176
0.0004597
0.000470089
0.000482268
0.000495216
0.000508799
0.000521663
0.000532703
0.000544324
0.000554943
0.00056494
0.000574868
0.000584023
0.000592969
0.00060152
0.000609772
0.000617869
0.000625501
0.000632859
0.000639811
0.000646657
0.000652972
0.000655947
0.000655913
0.000655907
0.000655716
0.000655969
0.000655904
0.000655747
0.00065595
0.000655921
0.00065576
0.000656172
0.000655876
0.0006561
0.000655869
0.00065604
0.000655885
0.000656022
0.000655998
0.000656297
0.000659486
0.000664965
0.000669616
0.000675894
0.000682365
0.000687435
0.00069349
0.000699734
0.000706576
0.000712468
0.000719328
0.000726935
0.000734418
0.000742844
0.000751049
0.000760059
0.000770286
0.000783091
)
;

boundaryField
{
    inlet
    {
        type            fixedValue;
        value           uniform 0;
    }
    outlet
    {
        type            zeroGradient;
    }
    yzfaces
    {
        type            empty;
    }
}


// ************************************************************************* //
