/*--------------------------------*- C++ -*----------------------------------*\
| =========                 |                                                 |
| \\      /  F ield         | foam-extend: Open Source CFD                    |
|  \\    /   O peration     | Version:     5.0                                |
|   \\  /    A nd           | Web:         http://www.foam-extend.org         |
|    \\/     M anipulation  |                                                 |
\*---------------------------------------------------------------------------*/
FoamFile
{
    version     2.0;
    format      ascii;
    class       volScalarField;
    location    "7";
    object      H2O.water;
}
// * * * * * * * * * * * * * * * * * * * * * * * * * * * * * * * * * * * * * //

dimensions      [0 0 0 0 0 0 0];

internalField   nonuniform List<scalar> 
100
(
0.000936112
0.00153587
0.00208253
0.00254878
0.00306501
0.00357651
0.00408836
0.00442624
0.00473249
0.00510637
0.00555936
0.00604658
0.00652984
0.00695727
0.00737754
0.0076661
0.00798504
0.0083906
0.00882537
0.00924424
0.00961061
0.00989333
0.0102568
0.0106582
0.0110406
0.0113518
0.011642
0.0120199
0.0124062
0.0127264
0.0130323
0.013378
0.013732
0.0140277
0.0143311
0.0146751
0.0150146
0.015308
0.015621
0.0159912
0.016315
0.0166528
0.017043
0.0174281
0.0178797
0.0183597
0.0188633
0.0193402
0.0197495
0.0201803
0.020574
0.0209447
0.0213127
0.0216522
0.0219838
0.0223009
0.0226068
0.022907
0.0231899
0.0234627
0.0237204
0.0239743
0.0242084
0.0243187
0.0243174
0.0243172
0.0243101
0.0243195
0.0243171
0.0243112
0.0243188
0.0243177
0.0243117
0.024327
0.024316
0.0243243
0.0243158
0.0243221
0.0243164
0.0243215
0.0243206
0.0243316
0.0244499
0.024653
0.0248254
0.0250582
0.0252981
0.0254861
0.0257105
0.025942
0.0261957
0.0264141
0.0266685
0.0269505
0.0272279
0.0275403
0.0278445
0.0281785
0.0285577
0.0290324
)
;

boundaryField
{
    inlet
    {
        type            fixedValue;
        value           uniform 0;
    }
    outlet
    {
        type            zeroGradient;
    }
    yzfaces
    {
        type            empty;
    }
}


// ************************************************************************* //
