/*--------------------------------*- C++ -*----------------------------------*\
| =========                 |                                                 |
| \\      /  F ield         | foam-extend: Open Source CFD                    |
|  \\    /   O peration     | Version:     5.0                                |
|   \\  /    A nd           | Web:         http://www.foam-extend.org         |
|    \\/     M anipulation  |                                                 |
\*---------------------------------------------------------------------------*/
FoamFile
{
    version     2.0;
    format      ascii;
    class       volScalarField;
    location    "7";
    object      H2O.gas;
}
// * * * * * * * * * * * * * * * * * * * * * * * * * * * * * * * * * * * * * //

dimensions      [0 0 0 0 0 0 0];

internalField   nonuniform List<scalar> 
100
(
0.000387622
0.000386422
0.000385329
0.000384397
0.000383364
0.000382341
0.000381317
0.000380642
0.000380029
0.000379281
0.000378375
0.000377401
0.000376435
0.00037558
0.000374739
0.000374162
0.000373524
0.000372713
0.000371843
0.000371006
0.000370273
0.000369708
0.000368981
0.000368178
0.000367413
0.000366791
0.00036621
0.000365454
0.000364682
0.000364041
0.00036343
0.000362738
0.00036203
0.000361439
0.000360832
0.000360144
0.000359465
0.000358878
0.000358252
0.000357512
0.000356864
0.000356189
0.000355408
0.000354638
0.000353735
0.000352775
0.000351768
0.000350814
0.000349995
0.000349133
0.000348346
0.000347605
0.000346869
0.00034619
0.000345527
0.000344892
0.000344281
0.00034368
0.000343114
0.000342569
0.000342053
0.000341546
0.000341077
0.000340857
0.000340859
0.00034086
0.000340874
0.000340855
0.00034086
0.000340872
0.000340857
0.000340859
0.000340871
0.00034084
0.000340862
0.000340845
0.000340863
0.00034085
0.000340861
0.000340851
0.000340853
0.000340831
0.000340594
0.000340188
0.000339843
0.000339378
0.000338898
0.000338522
0.000338073
0.00033761
0.000337103
0.000336666
0.000336157
0.000335593
0.000335038
0.000334414
0.000333805
0.000333137
0.000332379
0.000331429
)
;

boundaryField
{
    inlet
    {
        type            fixedValue;
        value           uniform 0;
    }
    outlet
    {
        type            zeroGradient;
    }
    yzfaces
    {
        type            empty;
    }
}


// ************************************************************************* //
