/*--------------------------------*- C++ -*----------------------------------*\
| =========                 |                                                 |
| \\      /  F ield         | foam-extend: Open Source CFD                    |
|  \\    /   O peration     | Version:     5.0                                |
|   \\  /    A nd           | Web:         http://www.foam-extend.org         |
|    \\/     M anipulation  |                                                 |
\*---------------------------------------------------------------------------*/
FoamFile
{
    version     2.0;
    format      ascii;
    class       surfaceScalarField;
    location    "7";
    object      phi;
}
// * * * * * * * * * * * * * * * * * * * * * * * * * * * * * * * * * * * * * //

dimensions      [0 3 -1 0 0 0 0];

internalField   nonuniform List<scalar> 
99
(
0.000122502
0.000122496
0.000122465
0.000122496
0.000122489
0.000122502
0.000122492
0.000122553
0.000122519
0.000122539
0.000122524
0.000122539
0.000122521
0.000122538
0.000122508
0.000122489
0.00012248
0.000122462
0.000122497
0.000122505
0.000122509
0.000122515
0.000122507
0.000122483
0.000122499
0.000122518
0.000122491
0.000122501
0.000122487
0.000122483
0.000122484
0.000122502
0.000122487
0.000122488
0.000122499
0.000122469
0.000122485
0.000122488
0.000122467
0.000122467
0.000122485
0.000122472
0.000122479
0.000122502
0.000122486
0.000122487
0.000122529
0.000122531
0.000122549
0.000122538
0.000122527
0.000122559
0.000122562
0.00012257
0.000122573
0.000122575
0.000122592
0.000122586
0.000122607
0.000122596
0.000122607
0.000122623
0.000122623
0.000122631
0.00012267
0.000122657
0.000122672
0.00012269
0.000122694
0.000122699
0.000122731
0.00012271
0.000122714
0.000122735
0.00012274
0.000122736
0.000122758
0.000122764
0.000122771
0.000122775
0.000122808
0.000122795
0.000122821
0.000122781
0.000122787
0.000122757
0.000122758
0.000122727
0.000122702
0.000122716
0.000122702
0.000122706
0.000122717
0.00012272
0.000122694
0.000122693
0.0001227
0.000122685
0.000122689
)
;

boundaryField
{
    inlet
    {
        type            calculated;
        value           uniform -0.0001225;
    }
    outlet
    {
        type            calculated;
        value           uniform 0.000122679;
    }
    yzfaces
    {
        type            empty;
    }
}


// ************************************************************************* //
