/*--------------------------------*- C++ -*----------------------------------*\
| =========                 |                                                 |
| \\      /  F ield         | foam-extend: Open Source CFD                    |
|  \\    /   O peration     | Version:     5.0                                |
|   \\  /    A nd           | Web:         http://www.foam-extend.org         |
|    \\/     M anipulation  |                                                 |
\*---------------------------------------------------------------------------*/
FoamFile
{
    version     2.0;
    format      ascii;
    class       surfaceScalarField;
    location    "7";
    object      phi.gas;
}
// * * * * * * * * * * * * * * * * * * * * * * * * * * * * * * * * * * * * * //

dimensions      [0 3 -1 0 0 0 0];

internalField   nonuniform List<scalar> 
99
(
0.000616419
0.000618171
0.000619655
0.000621433
0.000623069
0.000624808
0.00062619
0.000627541
0.000628434
0.000629931
0.000631406
0.000633082
0.000634536
0.000636032
0.000637057
0.000638024
0.000639187
0.000640567
0.000642258
0.000643632
0.000644756
0.00064589
0.000647154
0.000648404
0.000649734
0.000650859
0.000651889
0.000653305
0.000654488
0.000655585
0.000656749
0.000658124
0.000659225
0.000660321
0.000661514
0.000662619
0.000663883
0.000664968
0.000666132
0.000667441
0.000668749
0.000670043
0.000671549
0.00067323
0.000674865
0.000676777
0.000678879
0.000680562
0.000682278
0.000683776
0.000685228
0.000686831
0.000688193
0.000689553
0.000690849
0.000692108
0.000693407
0.000694544
0.000695767
0.000696751
0.000697867
0.000698903
0.00069956
0.000699892
0.00070009
0.00069995
0.000700086
0.000700212
0.000700192
0.000700242
0.000700421
0.00070025
0.000700349
0.000700492
0.000700463
0.000700468
0.000700596
0.000700614
0.000700666
0.000700691
0.00070089
0.000701074
0.000701851
0.000702369
0.000703227
0.000704006
0.000704894
0.000705564
0.000706394
0.000707459
0.000708344
0.000709354
0.000710517
0.000711669
0.000712757
0.000714063
0.000715431
0.000716867
0.000718689
)
;

boundaryField
{
    inlet
    {
        type            fixedValue;
        value           uniform -0.0006125;
    }
    outlet
    {
        type            calculated;
        value           uniform 0.000719585;
    }
    yzfaces
    {
        type            empty;
    }
}


// ************************************************************************* //
