/*--------------------------------*- C++ -*----------------------------------*\
| =========                 |                                                 |
| \\      /  F ield         | foam-extend: Open Source CFD                    |
|  \\    /   O peration     | Version:     5.0                                |
|   \\  /    A nd           | Web:         http://www.foam-extend.org         |
|    \\/     M anipulation  |                                                 |
\*---------------------------------------------------------------------------*/
FoamFile
{
    version     2.0;
    format      ascii;
    class       surfaceScalarField;
    location    "7";
    object      phi.water;
}
// * * * * * * * * * * * * * * * * * * * * * * * * * * * * * * * * * * * * * //

dimensions      [0 3 -1 0 0 0 0];

internalField   nonuniform List<scalar> 
99
(
1.27932e-07
2.36691e-07
3.41858e-07
4.2459e-07
5.21788e-07
6.1899e-07
7.31978e-07
8.00825e-07
8.54676e-07
9.21685e-07
1.00864e-06
1.10693e-06
1.20978e-06
1.29814e-06
1.39678e-06
1.45392e-06
1.51262e-06
1.59547e-06
1.69002e-06
1.78525e-06
1.87268e-06
1.92668e-06
2.00277e-06
2.09333e-06
2.18584e-06
2.25829e-06
2.31504e-06
2.40064e-06
2.4956e-06
2.57122e-06
2.63861e-06
2.71941e-06
2.80888e-06
2.87862e-06
2.94739e-06
3.03027e-06
3.11825e-06
3.1877e-06
3.25886e-06
3.35565e-06
3.43545e-06
3.5146e-06
3.61467e-06
3.70678e-06
3.81975e-06
3.9427e-06
4.07977e-06
4.21375e-06
4.3224e-06
4.44284e-06
4.55332e-06
4.65681e-06
4.76265e-06
4.85882e-06
4.95461e-06
5.04643e-06
5.13557e-06
5.22355e-06
5.30818e-06
5.38909e-06
5.46604e-06
5.54393e-06
5.62763e-06
5.67449e-06
5.67563e-06
5.6753e-06
5.6726e-06
5.67727e-06
5.67715e-06
5.67438e-06
5.67856e-06
5.67795e-06
5.67402e-06
5.68315e-06
5.67709e-06
5.68186e-06
5.67826e-06
5.68168e-06
5.67916e-06
5.6816e-06
5.6815e-06
5.67148e-06
5.69812e-06
5.7613e-06
5.80606e-06
5.8749e-06
5.95384e-06
6.00568e-06
6.07357e-06
6.14283e-06
6.22489e-06
6.2896e-06
6.36608e-06
6.45615e-06
6.53871e-06
6.63975e-06
6.7342e-06
6.83672e-06
6.94952e-06
)
;

boundaryField
{
    inlet
    {
        type            fixedValue;
        value           uniform 0;
    }
    outlet
    {
        type            calculated;
        value           uniform 7.16342e-06;
    }
    yzfaces
    {
        type            empty;
    }
}


// ************************************************************************* //
