/*--------------------------------*- C++ -*----------------------------------*\
| =========                 |                                                 |
| \\      /  F ield         | foam-extend: Open Source CFD                    |
|  \\    /   O peration     | Version:     5.0                                |
|   \\  /    A nd           | Web:         http://www.foam-extend.org         |
|    \\/     M anipulation  |                                                 |
\*---------------------------------------------------------------------------*/
FoamFile
{
    version     2.0;
    format      ascii;
    class       volVectorField;
    location    "7";
    object      U.water;
}
// * * * * * * * * * * * * * * * * * * * * * * * * * * * * * * * * * * * * * //

dimensions      [0 1 -1 0 0 0 0];

internalField   nonuniform List<vector> 
100
(
(6.89452e-05 0 0)
(0.000155834 0 0)
(0.000239097 0 0)
(0.000317629 0 0)
(0.000389449 0 0)
(0.000468465 0 0)
(0.000547909 0 0)
(0.000625492 0 0)
(0.000678908 0 0)
(0.00072896 0 0)
(0.000790591 0 0)
(0.000864978 0 0)
(0.000945049 0 0)
(0.00102449 0 0)
(0.00109607 0 0)
(0.0011652 0 0)
(0.00121469 0 0)
(0.00127056 0 0)
(0.00134127 0 0)
(0.00141719 0 0)
(0.00149032 0 0)
(0.00155426 0 0)
(0.00160595 0 0)
(0.00167186 0 0)
(0.00174438 0 0)
(0.0018135 0 0)
(0.00187059 0 0)
(0.00192573 0 0)
(0.00199642 0 0)
(0.00206794 0 0)
(0.0021285 0 0)
(0.00218776 0 0)
(0.00225447 0 0)
(0.00232201 0 0)
(0.00237999 0 0)
(0.00244012 0 0)
(0.00250802 0 0)
(0.00257498 0 0)
(0.00263404 0 0)
(0.00269823 0 0)
(0.00277272 0 0)
(0.00283927 0 0)
(0.00291002 0 0)
(0.00299148 0 0)
(0.00307381 0 0)
(0.00316992 0 0)
(0.00327382 0 0)
(0.00338258 0 0)
(0.0034854 0 0)
(0.0035764 0 0)
(0.00367116 0 0)
(0.00375931 0 0)
(0.0038437 0 0)
(0.00392713 0 0)
(0.00400513 0 0)
(0.00408177 0 0)
(0.00415578 0 0)
(0.00422747 0 0)
(0.00429819 0 0)
(0.00436554 0 0)
(0.00443042 0 0)
(0.00449289 0 0)
(0.00455409 0 0)
(0.00460769 0 0)
(0.00463245 0 0)
(0.00463263 0 0)
(0.00463253 0 0)
(0.00463181 0 0)
(0.00463411 0 0)
(0.00463376 0 0)
(0.00463329 0 0)
(0.0046351 0 0)
(0.00463442 0 0)
(0.00463404 0 0)
(0.0046376 0 0)
(0.00463544 0 0)
(0.00463731 0 0)
(0.00463597 0 0)
(0.00463743 0 0)
(0.00463658 0 0)
(0.00463846 0 0)
(0.00463891 0 0)
(0.00464477 0 0)
(0.00467613 0 0)
(0.00472452 0 0)
(0.00476846 0 0)
(0.00482596 0 0)
(0.00488347 0 0)
(0.00493082 0 0)
(0.00498744 0 0)
(0.0050465 0 0)
(0.00510979 0 0)
(0.00516706 0 0)
(0.00523364 0 0)
(0.00530609 0 0)
(0.00537887 0 0)
(0.00546045 0 0)
(0.00554159 0 0)
(0.00563198 0 0)
(0.00573722 0 0)
)
;

boundaryField
{
    inlet
    {
        type            fixedValue;
        value           uniform (0 0 0);
    }
    outlet
    {
        type            zeroGradient;
    }
    yzfaces
    {
        type            empty;
    }
}


// ************************************************************************* //
