/*--------------------------------*- C++ -*----------------------------------*\
| =========                 |                                                 |
| \\      /  F ield         | foam-extend: Open Source CFD                    |
|  \\    /   O peration     | Version:     5.0                                |
|   \\  /    A nd           | Web:         http://www.foam-extend.org         |
|    \\/     M anipulation  |                                                 |
\*---------------------------------------------------------------------------*/
FoamFile
{
    version     2.0;
    format      ascii;
    class       volScalarField;
    location    "6";
    object      alpha.gas;
}
// * * * * * * * * * * * * * * * * * * * * * * * * * * * * * * * * * * * * * //

dimensions      [0 0 0 0 0 0 0];

internalField   nonuniform List<scalar> 
100
(
0.160248
0.14652
0.137342
0.130035
0.123828
0.119388
0.115346
0.11162
0.10844
0.10562
0.102707
0.0998352
0.0972925
0.0948465
0.0925795
0.0906839
0.0890486
0.0874868
0.0859084
0.0841182
0.0826328
0.0818658
0.0808303
0.0799799
0.0791153
0.0784046
0.0774961
0.0765812
0.0755297
0.0745276
0.0735669
0.0727958
0.0721201
0.0713476
0.0705063
0.0696873
0.0688598
0.068002
0.0671688
0.0663691
0.0656834
0.0650525
0.0643539
0.0635926
0.0627993
0.0622038
0.0616144
0.0609999
0.0604501
0.0599608
0.0593674
0.058842
0.0582682
0.057684
0.0571503
0.0567062
0.0561914
0.0556688
0.055055
0.0544413
0.0537862
0.0532312
0.0526019
0.0521446
0.0515869
0.0510797
0.0505908
0.0501083
0.0496905
0.0492293
0.0487539
0.048252
0.0477339
0.0472846
0.0467734
0.046276
0.045762
0.0452808
0.0447349
0.0442033
0.0436762
0.0431469
0.0426168
0.0420699
0.0415058
0.0409092
0.0403239
0.039705
0.0390854
0.0384367
0.0377605
0.0370774
0.036349
0.0355495
0.0347109
0.0338307
0.0328923
0.0318881
0.0308048
0.0296014
)
;

boundaryField
{
    inlet
    {
        type            fixedValue;
        value           uniform 0.2;
    }
    outlet
    {
        type            zeroGradient;
    }
    yzfaces
    {
        type            empty;
    }
}


// ************************************************************************* //
