/*--------------------------------*- C++ -*----------------------------------*\
| =========                 |                                                 |
| \\      /  F ield         | foam-extend: Open Source CFD                    |
|  \\    /   O peration     | Version:     5.0                                |
|   \\  /    A nd           | Web:         http://www.foam-extend.org         |
|    \\/     M anipulation  |                                                 |
\*---------------------------------------------------------------------------*/
FoamFile
{
    version     2.0;
    format      ascii;
    class       volScalarField;
    location    "6";
    object      Cl.water;
}
// * * * * * * * * * * * * * * * * * * * * * * * * * * * * * * * * * * * * * //

dimensions      [0 0 0 0 0 0 0];

internalField   nonuniform List<scalar> 
100
(
0.00834781
0.0113283
0.0133049
0.0147994
0.0160533
0.0171388
0.0179445
0.018717
0.0193729
0.019918
0.0204941
0.0210434
0.0215268
0.0219754
0.0224768
0.0229016
0.023295
0.0235854
0.0239273
0.0242859
0.0246753
0.0248884
0.025126
0.0253395
0.025545
0.0256707
0.0258652
0.0260458
0.0262361
0.0264329
0.0266816
0.0268536
0.027004
0.0271477
0.0272913
0.0274906
0.0276597
0.0278585
0.0280278
0.0281913
0.0283386
0.0284649
0.0286126
0.0287065
0.0288879
0.0290357
0.0291779
0.0292977
0.0294035
0.0295067
0.0296058
0.0297074
0.0298446
0.0299597
0.0300502
0.0301475
0.0302174
0.0302894
0.03043
0.030588
0.0307377
0.030868
0.0310256
0.0311425
0.0312593
0.0313834
0.0315086
0.0316043
0.0317008
0.0317794
0.0318586
0.0319275
0.0320584
0.0321526
0.0322551
0.0323718
0.0324877
0.0325686
0.0326715
0.0327929
0.0328902
0.032999
0.0330935
0.0332247
0.0333189
0.0334274
0.0335515
0.0337081
0.0338551
0.0339827
0.0340967
0.0342334
0.0343757
0.0345472
0.0347641
0.0349699
0.0351717
0.0353713
0.0355877
0.0358496
)
;

boundaryField
{
    inlet
    {
        type            fixedValue;
        value           uniform 0;
    }
    outlet
    {
        type            zeroGradient;
    }
    yzfaces
    {
        type            empty;
    }
}


// ************************************************************************* //
