/*--------------------------------*- C++ -*----------------------------------*\
| =========                 |                                                 |
| \\      /  F ield         | foam-extend: Open Source CFD                    |
|  \\    /   O peration     | Version:     5.0                                |
|   \\  /    A nd           | Web:         http://www.foam-extend.org         |
|    \\/     M anipulation  |                                                 |
\*---------------------------------------------------------------------------*/
FoamFile
{
    version     2.0;
    format      ascii;
    class       volScalarField;
    location    "6";
    object      CO2.gas;
}
// * * * * * * * * * * * * * * * * * * * * * * * * * * * * * * * * * * * * * //

dimensions      [0 0 0 0 0 0 0];

internalField   nonuniform List<scalar> 
100
(
0.159847
0.147416
0.138562
0.130673
0.123924
0.120517
0.116114
0.112273
0.109072
0.105968
0.102826
0.0996283
0.096896
0.0941855
0.0920563
0.0902788
0.0888193
0.0871132
0.0855238
0.0836712
0.0824773
0.0818626
0.0809188
0.080157
0.079399
0.078621
0.0777369
0.0768138
0.0756828
0.0746448
0.0737901
0.0730254
0.0723808
0.0715604
0.0706364
0.0698545
0.0689932
0.0681835
0.0673325
0.0664942
0.065814
0.065149
0.0644355
0.0635583
0.062785
0.062234
0.0616617
0.0610343
0.0604585
0.0599403
0.0592545
0.0586786
0.0580963
0.057434
0.056801
0.0562911
0.055628
0.0549301
0.0541989
0.0534608
0.0526381
0.0518793
0.0510397
0.0503184
0.0494091
0.0485538
0.0476511
0.0466651
0.0456811
0.0445547
0.0433628
0.0420582
0.0407311
0.0393925
0.0379179
0.0364251
0.0348613
0.0332332
0.031517
0.0298004
0.0280426
0.0262745
0.0244897
0.0227188
0.0209373
0.0191711
0.0174416
0.0157703
0.0141518
0.0125872
0.0110927
0.00969646
0.0083874
0.00717268
0.00606537
0.00505423
0.00414618
0.00333878
0.00263758
0.00203201
)
;

boundaryField
{
    inlet
    {
        type            fixedValue;
        value           uniform 0.2;
    }
    outlet
    {
        type            zeroGradient;
    }
    yzfaces
    {
        type            empty;
    }
}


// ************************************************************************* //
