/*--------------------------------*- C++ -*----------------------------------*\
| =========                 |                                                 |
| \\      /  F ield         | foam-extend: Open Source CFD                    |
|  \\    /   O peration     | Version:     5.0                                |
|   \\  /    A nd           | Web:         http://www.foam-extend.org         |
|    \\/     M anipulation  |                                                 |
\*---------------------------------------------------------------------------*/
FoamFile
{
    version     2.0;
    format      ascii;
    class       volScalarField;
    location    "6";
    object      H2O.gas;
}
// * * * * * * * * * * * * * * * * * * * * * * * * * * * * * * * * * * * * * //

dimensions      [0 0 0 0 0 0 0];

internalField   nonuniform List<scalar> 
100
(
3.32519e-18
3.19075e-17
1.82286e-16
7.68818e-16
2.78395e-15
9.13348e-15
2.67251e-14
7.26356e-14
1.85233e-13
4.44131e-13
1.01409e-12
2.23007e-12
4.74579e-12
9.7729e-12
1.98441e-11
3.94033e-11
7.69865e-11
1.46428e-10
2.73075e-10
4.98877e-10
9.07468e-10
1.62672e-09
2.85277e-09
4.9135e-09
8.33968e-09
1.38574e-08
2.26295e-08
3.6272e-08
5.73081e-08
8.92844e-08
1.37915e-07
2.10829e-07
3.19068e-07
4.7616e-07
7.00979e-07
1.02475e-06
1.48045e-06
2.12441e-06
3.02212e-06
4.26234e-06
5.97536e-06
8.30532e-06
1.14456e-05
1.56144e-05
2.11889e-05
2.86221e-05
3.83474e-05
5.09209e-05
6.72046e-05
8.79557e-05
0.000114031
0.00014706
0.000188349
0.000239443
0.000302349
0.00038003
0.000473328
0.000585339
0.000719765
0.000878919
0.00106605
0.00128694
0.00154303
0.00184389
0.00218589
0.00258007
0.00302804
0.00353117
0.00410198
0.00472869
0.00541691
0.00616213
0.0069879
0.00788665
0.00883658
0.00985536
0.0109308
0.0120465
0.0131902
0.014386
0.0156088
0.0168453
0.0180754
0.0193276
0.020525
0.0216838
0.0228199
0.0239041
0.0249177
0.0258184
0.0266101
0.0273197
0.0278943
0.0283184
0.0286347
0.0287768
0.0287528
0.0285402
0.0281476
0.0275574
)
;

boundaryField
{
    inlet
    {
        type            fixedValue;
        value           uniform 0;
    }
    outlet
    {
        type            zeroGradient;
    }
    yzfaces
    {
        type            empty;
    }
}


// ************************************************************************* //
