/*--------------------------------*- C++ -*----------------------------------*\
| =========                 |                                                 |
| \\      /  F ield         | foam-extend: Open Source CFD                    |
|  \\    /   O peration     | Version:     5.0                                |
|   \\  /    A nd           | Web:         http://www.foam-extend.org         |
|    \\/     M anipulation  |                                                 |
\*---------------------------------------------------------------------------*/
FoamFile
{
    version     2.0;
    format      ascii;
    class       volScalarField;
    location    "6";
    object      H2O.water;
}
// * * * * * * * * * * * * * * * * * * * * * * * * * * * * * * * * * * * * * //

dimensions      [0 0 0 0 0 0 0];

internalField   nonuniform List<scalar> 
100
(
0.022957
0.0311512
0.036597
0.0407046
0.0441266
0.0471042
0.0493233
0.0514593
0.0533218
0.0548237
0.0563925
0.057867
0.0592309
0.0604707
0.0618662
0.0630246
0.0640755
0.0648526
0.0657342
0.0667139
0.0678121
0.068375
0.0690574
0.0696144
0.0702255
0.0705782
0.0711475
0.0716878
0.0722254
0.0727828
0.0734408
0.0738989
0.0743233
0.0747324
0.0751319
0.0756184
0.0760565
0.0766139
0.0770914
0.0775145
0.0779309
0.0782499
0.0786328
0.0789489
0.0794401
0.0798674
0.0802409
0.0806093
0.080904
0.081182
0.0814324
0.0817177
0.0820957
0.082401
0.0826643
0.0829314
0.0831401
0.0833457
0.0837134
0.084105
0.0845158
0.0848572
0.0852972
0.0856202
0.0859237
0.0863091
0.0866456
0.0869235
0.0871722
0.0873711
0.0876044
0.0878007
0.0881165
0.0884024
0.0886685
0.0890091
0.0893636
0.0895776
0.0898387
0.0901662
0.0904627
0.0907574
0.0910185
0.0914041
0.091693
0.0920148
0.0923192
0.0927445
0.0931385
0.0934723
0.0937957
0.0941841
0.0945959
0.0950813
0.0957073
0.0962356
0.0967982
0.0973221
0.0979092
0.0986307
)
;

boundaryField
{
    inlet
    {
        type            fixedValue;
        value           uniform 0;
    }
    outlet
    {
        type            zeroGradient;
    }
    yzfaces
    {
        type            empty;
    }
}


// ************************************************************************* //
