/*--------------------------------*- C++ -*----------------------------------*\
| =========                 |                                                 |
| \\      /  F ield         | foam-extend: Open Source CFD                    |
|  \\    /   O peration     | Version:     5.0                                |
|   \\  /    A nd           | Web:         http://www.foam-extend.org         |
|    \\/     M anipulation  |                                                 |
\*---------------------------------------------------------------------------*/
FoamFile
{
    version     2.0;
    format      ascii;
    class       volScalarField;
    location    "6";
    object      Na.water;
}
// * * * * * * * * * * * * * * * * * * * * * * * * * * * * * * * * * * * * * //

dimensions      [0 0 0 0 0 0 0];

internalField   nonuniform List<scalar> 
100
(
0.00834778
0.0113275
0.0133135
0.0148035
0.0160507
0.0171307
0.0179492
0.0187209
0.0193988
0.0199496
0.0205185
0.0210467
0.0215314
0.0219747
0.0224703
0.0229018
0.0232953
0.0235947
0.0239192
0.0242663
0.0246589
0.0248663
0.0251167
0.0253321
0.0255478
0.0256821
0.0258719
0.0260601
0.0262613
0.0264542
0.0266945
0.0268533
0.0270156
0.0271568
0.0273109
0.0275183
0.027681
0.0278821
0.0280418
0.0281854
0.0283264
0.02845
0.0285969
0.0287119
0.0288878
0.0290235
0.0291589
0.0292875
0.029417
0.0295083
0.029597
0.0296935
0.0298314
0.0299291
0.0300178
0.0301261
0.0302206
0.0302984
0.0304426
0.0305942
0.0307372
0.0308648
0.0310217
0.0311428
0.0312534
0.0313861
0.0315162
0.0316272
0.0317163
0.0317861
0.0318629
0.0319204
0.0320439
0.0321427
0.0322409
0.0323581
0.0324884
0.0325695
0.0326587
0.0327785
0.0328821
0.0329985
0.0330801
0.0332132
0.0333163
0.0334379
0.0335581
0.0337191
0.0338554
0.0339776
0.0340993
0.0342359
0.0343761
0.0345521
0.0347662
0.0349652
0.0351718
0.0353702
0.0355904
0.0358494
)
;

boundaryField
{
    inlet
    {
        type            fixedValue;
        value           uniform 0;
    }
    outlet
    {
        type            zeroGradient;
    }
    yzfaces
    {
        type            empty;
    }
}


// ************************************************************************* //
