/*--------------------------------*- C++ -*----------------------------------*\
| =========                 |                                                 |
| \\      /  F ield         | foam-extend: Open Source CFD                    |
|  \\    /   O peration     | Version:     5.0                                |
|   \\  /    A nd           | Web:         http://www.foam-extend.org         |
|    \\/     M anipulation  |                                                 |
\*---------------------------------------------------------------------------*/
FoamFile
{
    version     2.0;
    format      ascii;
    class       surfaceScalarField;
    location    "6";
    object      phi;
}
// * * * * * * * * * * * * * * * * * * * * * * * * * * * * * * * * * * * * * //

dimensions      [0 3 -1 0 0 0 0];

internalField   nonuniform List<scalar> 
99
(
1.22844e-06
1.22263e-06
1.22311e-06
1.22531e-06
1.22067e-06
1.23146e-06
1.23191e-06
1.23345e-06
1.22644e-06
1.22152e-06
1.21671e-06
1.21679e-06
1.21746e-06
1.22011e-06
1.21811e-06
1.232e-06
1.23378e-06
1.22517e-06
1.21645e-06
1.21766e-06
1.23081e-06
1.23272e-06
1.23316e-06
1.23244e-06
1.22878e-06
1.22574e-06
1.22478e-06
1.22265e-06
1.22144e-06
1.21965e-06
1.22325e-06
1.22365e-06
1.22169e-06
1.22475e-06
1.22358e-06
1.22036e-06
1.21998e-06
1.22185e-06
1.2193e-06
1.21348e-06
1.2138e-06
1.21249e-06
1.21049e-06
1.21023e-06
1.21109e-06
1.2143e-06
1.21361e-06
1.21529e-06
1.21765e-06
1.216e-06
1.21383e-06
1.21303e-06
1.21395e-06
1.2118e-06
1.21304e-06
1.209e-06
1.20859e-06
1.21203e-06
1.21376e-06
1.2153e-06
1.21572e-06
1.21479e-06
1.21786e-06
1.21662e-06
1.21518e-06
1.21523e-06
1.21435e-06
1.21598e-06
1.2138e-06
1.21567e-06
1.21306e-06
1.21548e-06
1.2181e-06
1.21413e-06
1.2127e-06
1.21195e-06
1.21613e-06
1.21114e-06
1.21207e-06
1.21106e-06
1.21234e-06
1.2112e-06
1.21199e-06
1.21101e-06
1.21149e-06
1.21313e-06
1.21196e-06
1.21421e-06
1.21241e-06
1.21272e-06
1.21259e-06
1.21362e-06
1.21394e-06
1.21502e-06
1.21575e-06
1.21488e-06
1.21379e-06
1.21325e-06
1.21154e-06
)
;

boundaryField
{
    inlet
    {
        type            calculated;
        value           uniform -1.225e-06;
    }
    outlet
    {
        type            calculated;
        value           uniform 1.21176e-06;
    }
    yzfaces
    {
        type            empty;
    }
}


// ************************************************************************* //
