/*--------------------------------*- C++ -*----------------------------------*\
| =========                 |                                                 |
| \\      /  F ield         | foam-extend: Open Source CFD                    |
|  \\    /   O peration     | Version:     5.0                                |
|   \\  /    A nd           | Web:         http://www.foam-extend.org         |
|    \\/     M anipulation  |                                                 |
\*---------------------------------------------------------------------------*/
FoamFile
{
    version     2.0;
    format      ascii;
    class       volVectorField;
    location    "6";
    object      U.gas;
}
// * * * * * * * * * * * * * * * * * * * * * * * * * * * * * * * * * * * * * //

dimensions      [0 1 -1 0 0 0 0];

internalField   nonuniform List<vector> 
100
(
(0.00623822 0 0)
(0.00679052 0 0)
(0.00719876 0 0)
(0.00757833 0 0)
(0.00791242 0 0)
(0.00818918 0 0)
(0.00847772 0 0)
(0.00872651 0 0)
(0.00891956 0 0)
(0.00907042 0 0)
(0.00924421 0 0)
(0.00943867 0 0)
(0.00963155 0 0)
(0.00983456 0 0)
(0.0100168 0 0)
(0.0102159 0 0)
(0.0104138 0 0)
(0.0105144 0 0)
(0.0105734 0 0)
(0.0106972 0 0)
(0.010883 0 0)
(0.0110013 0 0)
(0.0111081 0 0)
(0.0111768 0 0)
(0.0112339 0 0)
(0.0112609 0 0)
(0.0113278 0 0)
(0.011395 0 0)
(0.0114761 0 0)
(0.0115492 0 0)
(0.0116403 0 0)
(0.0117192 0 0)
(0.0117671 0 0)
(0.0118438 0 0)
(0.0119295 0 0)
(0.0119772 0 0)
(0.012031 0 0)
(0.0121134 0 0)
(0.0121794 0 0)
(0.0122022 0 0)
(0.0122238 0 0)
(0.012267 0 0)
(0.0123097 0 0)
(0.012361 0 0)
(0.012427 0 0)
(0.0124811 0 0)
(0.0125389 0 0)
(0.0125906 0 0)
(0.0126471 0 0)
(0.0126827 0 0)
(0.0127113 0 0)
(0.0127253 0 0)
(0.0127669 0 0)
(0.0127997 0 0)
(0.0128237 0 0)
(0.0128292 0 0)
(0.0128431 0 0)
(0.0128899 0 0)
(0.012958 0 0)
(0.0130079 0 0)
(0.0130564 0 0)
(0.0130715 0 0)
(0.0131186 0 0)
(0.0131296 0 0)
(0.0131472 0 0)
(0.0131512 0 0)
(0.0131609 0 0)
(0.0131782 0 0)
(0.0131811 0 0)
(0.0131964 0 0)
(0.0132044 0 0)
(0.0132169 0 0)
(0.013253 0 0)
(0.0132423 0 0)
(0.0132278 0 0)
(0.0132162 0 0)
(0.0132362 0 0)
(0.0132254 0 0)
(0.0132082 0 0)
(0.0131997 0 0)
(0.0131923 0 0)
(0.0131821 0 0)
(0.0131657 0 0)
(0.0131495 0 0)
(0.0131281 0 0)
(0.0131197 0 0)
(0.0130922 0 0)
(0.0130697 0 0)
(0.0130331 0 0)
(0.0129857 0 0)
(0.0129396 0 0)
(0.0128864 0 0)
(0.0128348 0 0)
(0.0127755 0 0)
(0.0126968 0 0)
(0.0125914 0 0)
(0.0124653 0 0)
(0.01232 0 0)
(0.0121469 0 0)
(0.0119587 0 0)
)
;

boundaryField
{
    inlet
    {
        type            fixedValue;
        value           uniform (0.005 0 0);
    }
    outlet
    {
        type            zeroGradient;
    }
    yzfaces
    {
        type            empty;
    }
}


// ************************************************************************* //
