/*--------------------------------*- C++ -*----------------------------------*\
| =========                 |                                                 |
| \\      /  F ield         | foam-extend: Open Source CFD                    |
|  \\    /   O peration     | Version:     5.0                                |
|   \\  /    A nd           | Web:         http://www.foam-extend.org         |
|    \\/     M anipulation  |                                                 |
\*---------------------------------------------------------------------------*/
FoamFile
{
    version     2.0;
    format      ascii;
    class       volVectorField;
    location    "6";
    object      U.water;
}
// * * * * * * * * * * * * * * * * * * * * * * * * * * * * * * * * * * * * * //

dimensions      [0 1 -1 0 0 0 0];

internalField   nonuniform List<vector> 
100
(
(4.38917e-05 0 0)
(0.000102701 0 0)
(0.000152813 0 0)
(0.000198749 0 0)
(0.000243906 0 0)
(0.000287504 0 0)
(0.000325838 0 0)
(0.000364537 0 0)
(0.000401928 0 0)
(0.000435999 0 0)
(0.000470211 0 0)
(0.000508682 0 0)
(0.000550018 0 0)
(0.000591052 0 0)
(0.000631516 0 0)
(0.000673502 0 0)
(0.000712962 0 0)
(0.000744647 0 0)
(0.000773345 0 0)
(0.000808411 0 0)
(0.000852736 0 0)
(0.000887955 0 0)
(0.000911389 0 0)
(0.000936924 0 0)
(0.000958 0 0)
(0.000978115 0 0)
(0.00099879 0 0)
(0.00102341 0 0)
(0.00105083 0 0)
(0.00108094 0 0)
(0.00111335 0 0)
(0.0011448 0 0)
(0.00116873 0 0)
(0.0011933 0 0)
(0.0012218 0 0)
(0.00124983 0 0)
(0.00127805 0 0)
(0.00131008 0 0)
(0.00134241 0 0)
(0.00137032 0 0)
(0.00139837 0 0)
(0.00142518 0 0)
(0.00145081 0 0)
(0.00148076 0 0)
(0.00151519 0 0)
(0.00154998 0 0)
(0.00157826 0 0)
(0.00160691 0 0)
(0.00163754 0 0)
(0.00166287 0 0)
(0.00168618 0 0)
(0.0017128 0 0)
(0.0017406 0 0)
(0.00176906 0 0)
(0.00179805 0 0)
(0.00182206 0 0)
(0.0018434 0 0)
(0.00187378 0 0)
(0.00190913 0 0)
(0.00194622 0 0)
(0.00198339 0 0)
(0.00201836 0 0)
(0.00205469 0 0)
(0.00209007 0 0)
(0.00211808 0 0)
(0.00215043 0 0)
(0.00218089 0 0)
(0.00221249 0 0)
(0.00224054 0 0)
(0.00226817 0 0)
(0.00229795 0 0)
(0.0023295 0 0)
(0.00236874 0 0)
(0.00240046 0 0)
(0.00242671 0 0)
(0.00245935 0 0)
(0.00249832 0 0)
(0.00253277 0 0)
(0.00256461 0 0)
(0.00260316 0 0)
(0.00264166 0 0)
(0.00268043 0 0)
(0.00271932 0 0)
(0.00275931 0 0)
(0.00280062 0 0)
(0.00284695 0 0)
(0.00289276 0 0)
(0.00294047 0 0)
(0.00298952 0 0)
(0.00303732 0 0)
(0.00308998 0 0)
(0.00314563 0 0)
(0.00320382 0 0)
(0.00326695 0 0)
(0.00333619 0 0)
(0.00340687 0 0)
(0.00347849 0 0)
(0.00355578 0 0)
(0.00363799 0 0)
(0.00372718 0 0)
)
;

boundaryField
{
    inlet
    {
        type            fixedValue;
        value           uniform (0 0 0);
    }
    outlet
    {
        type            zeroGradient;
    }
    yzfaces
    {
        type            empty;
    }
}


// ************************************************************************* //
