/*--------------------------------*- C++ -*----------------------------------*\
| =========                 |                                                 |
| \\      /  F ield         | foam-extend: Open Source CFD                    |
|  \\    /   O peration     | Version:     5.0                                |
|   \\  /    A nd           | Web:         http://www.foam-extend.org         |
|    \\/     M anipulation  |                                                 |
\*---------------------------------------------------------------------------*/
FoamFile
{
    version     2.0;
    format      ascii;
    class       volScalarField;
    location    "10";
    object      alpha.water;
}
// * * * * * * * * * * * * * * * * * * * * * * * * * * * * * * * * * * * * * //

dimensions      [0 0 0 0 0 0 0];

internalField   nonuniform List<scalar> 
100
(
-0.000534745
-2.25555e-05
0.0398047
0.0288944
0.0260219
0.033421
0.0284924
0.0307567
0.029892
0.0304028
0.033021
0.0343882
0.0319547
0.0338816
0.0347011
0.0333336
0.0384888
0.0383765
0.0374523
0.0426852
0.0461274
0.0465794
0.0480997
0.0475815
0.0454092
0.0451266
0.0476947
0.0489545
0.0488834
0.0501334
0.0518424
0.053511
0.0561199
0.0571963
0.0588331
0.0588064
0.0591382
0.0592572
0.0622118
0.0629103
0.0647224
0.0685085
0.0694226
0.0723971
0.0723638
0.0712629
0.0734743
0.0731052
0.074488
0.0750447
0.0767357
0.0790592
0.0803046
0.082063
0.0830301
0.0847398
0.0865926
0.0874347
0.0887656
0.0903254
0.091627
0.0917608
0.0936169
0.094636
0.095585
0.0967434
0.0973793
0.0996019
0.0994037
0.100572
0.10063
0.102517
0.103243
0.105625
0.106246
0.10772
0.108351
0.1096
0.111589
0.113093
0.114579
0.116239
0.117726
0.119219
0.121411
0.123099
0.125233
0.127221
0.129388
0.131827
0.13461
0.13786
0.141373
0.146027
0.15254
0.163433
0.188264
0.172299
0.173368
0.173808
)
;

boundaryField
{
    inlet
    {
        type            fixedValue;
        value           uniform 0;
    }
    outlet
    {
        type            zeroGradient;
    }
    yzfaces
    {
        type            empty;
    }
}


// ************************************************************************* //
