/*--------------------------------*- C++ -*----------------------------------*\
| =========                 |                                                 |
| \\      /  F ield         | foam-extend: Open Source CFD                    |
|  \\    /   O peration     | Version:     5.0                                |
|   \\  /    A nd           | Web:         http://www.foam-extend.org         |
|    \\/     M anipulation  |                                                 |
\*---------------------------------------------------------------------------*/
FoamFile
{
    version     2.0;
    format      ascii;
    class       volScalarField;
    location    "10";
    object      Cl.water;
}
// * * * * * * * * * * * * * * * * * * * * * * * * * * * * * * * * * * * * * //

dimensions      [0 0 0 0 0 0 0];

internalField   nonuniform List<scalar> 
100
(
0
-0
0.00594783
0.00514601
0.00495528
0.00629759
0.00556427
0.00599763
0.00602575
0.00619436
0.00666483
0.00692927
0.00663011
0.00698065
0.00714113
0.00701653
0.00793663
0.00804009
0.00794798
0.00886033
0.00951312
0.0097267
0.00999367
0.0100475
0.00959205
0.009601
0.0100024
0.0103126
0.0103055
0.0105382
0.0109156
0.0113105
0.0117645
0.0119808
0.0123653
0.0124064
0.0124601
0.0125454
0.0129596
0.0131494
0.0134145
0.0139519
0.0142387
0.0147089
0.0148833
0.0147243
0.0151535
0.015257
0.0154753
0.0156266
0.0158586
0.0162069
0.0164108
0.0167846
0.0169388
0.0172659
0.0175105
0.017724
0.0179751
0.0183046
0.0184924
0.0186182
0.0189708
0.0191443
0.0193518
0.0196464
0.0197845
0.0202164
0.0202686
0.020434
0.0205972
0.0208689
0.0211161
0.0214637
0.0217931
0.0219586
0.0221898
0.0223508
0.0227365
0.0231156
0.0234945
0.0237808
0.0240927
0.0244013
0.0247901
0.0251596
0.025611
0.0260726
0.0265523
0.0270143
0.0275661
0.0282093
0.0289994
0.0299493
0.0312591
0.033487
0.0385848
0.0361108
0.0364386
0.0365785
)
;

boundaryField
{
    inlet
    {
        type            fixedValue;
        value           uniform 0;
    }
    outlet
    {
        type            zeroGradient;
    }
    yzfaces
    {
        type            empty;
    }
}


// ************************************************************************* //
