/*--------------------------------*- C++ -*----------------------------------*\
| =========                 |                                                 |
| \\      /  F ield         | foam-extend: Open Source CFD                    |
|  \\    /   O peration     | Version:     5.0                                |
|   \\  /    A nd           | Web:         http://www.foam-extend.org         |
|    \\/     M anipulation  |                                                 |
\*---------------------------------------------------------------------------*/
FoamFile
{
    version     2.0;
    format      ascii;
    class       volScalarField;
    location    "10";
    object      CO2.water;
}
// * * * * * * * * * * * * * * * * * * * * * * * * * * * * * * * * * * * * * //

dimensions      [0 0 0 0 0 0 0];

internalField   nonuniform List<scalar> 
100
(
-1.40448e-05
-5.9241e-07
0.00104545
0.000758898
0.000683452
0.000877787
0.000748339
0.00080781
0.000785099
0.000798515
0.000867282
0.000903191
0.000839274
0.000889884
0.00091141
0.000875491
0.00101089
0.00100794
0.000983666
0.00112111
0.00121152
0.00122339
0.00126332
0.00124971
0.00119265
0.00118523
0.00125268
0.00128577
0.0012839
0.00131673
0.00136162
0.00140544
0.00147396
0.00150224
0.00154522
0.00154452
0.00155324
0.00155636
0.00163396
0.00165231
0.0016999
0.00179934
0.00182335
0.00190148
0.0019006
0.00187169
0.00192977
0.00192007
0.00195639
0.00197101
0.00201543
0.00207645
0.00210916
0.00215535
0.00218075
0.00222565
0.00227432
0.00229643
0.00233139
0.00237236
0.00240654
0.00241005
0.00245881
0.00248557
0.0025105
0.00254092
0.00255762
0.002616
0.00261079
0.00264148
0.00264299
0.00269257
0.00271164
0.00277418
0.00279051
0.00282921
0.0028458
0.0028786
0.00293083
0.00297034
0.00300936
0.00305295
0.00309202
0.00313124
0.00318882
0.00323314
0.00328918
0.00334141
0.00339832
0.00346236
0.00353547
0.00362082
0.00371311
0.00383533
0.00400638
0.00429248
0.00494468
0.000671858
0.000223085
7.111e-05
)
;

boundaryField
{
    inlet
    {
        type            fixedValue;
        value           uniform 0;
    }
    outlet
    {
        type            zeroGradient;
    }
    yzfaces
    {
        type            empty;
    }
}


// ************************************************************************* //
