/*--------------------------------*- C++ -*----------------------------------*\
| =========                 |                                                 |
| \\      /  F ield         | foam-extend: Open Source CFD                    |
|  \\    /   O peration     | Version:     5.0                                |
|   \\  /    A nd           | Web:         http://www.foam-extend.org         |
|    \\/     M anipulation  |                                                 |
\*---------------------------------------------------------------------------*/
FoamFile
{
    version     2.0;
    format      ascii;
    class       volScalarField;
    location    "10";
    object      H2O.gas;
}
// * * * * * * * * * * * * * * * * * * * * * * * * * * * * * * * * * * * * * //

dimensions      [0 0 0 0 0 0 0];

internalField   nonuniform List<scalar> 
100
(
0.000390536
0.000389538
0.000311976
0.000333223
0.000338817
0.000324408
0.000334006
0.000329596
0.00033128
0.000330286
0.000325187
0.000322524
0.000327263
0.000323511
0.000321915
0.000324578
0.000314538
0.000314757
0.000316557
0.000306366
0.000299662
0.000298782
0.000295821
0.000296831
0.000301061
0.000301611
0.00029661
0.000294157
0.000294295
0.000291861
0.000288533
0.000285283
0.000280202
0.000278106
0.000274919
0.00027497
0.000274324
0.000274093
0.000268339
0.000266978
0.000263449
0.000256076
0.000254296
0.000248503
0.000248568
0.000250712
0.000246405
0.000247124
0.000244431
0.000243347
0.000240054
0.000235529
0.000233103
0.000229679
0.000227796
0.000224466
0.000220858
0.000219218
0.000216626
0.000213588
0.000211053
0.000210793
0.000207178
0.000205193
0.000203345
0.000201089
0.000199851
0.000195522
0.000195908
0.000193633
0.000193521
0.000189845
0.000188431
0.000183793
0.000182582
0.000179713
0.000178483
0.000176051
0.000172178
0.000169248
0.000166355
0.000163123
0.000160226
0.000157318
0.000153049
0.000149762
0.000145607
0.000141734
0.000137514
0.000132766
0.000127345
0.000121016
0.000114174
0.000105111
9.24279e-05
7.12141e-05
2.28547e-05
0.000599431
0.000994287
0.00143278
)
;

boundaryField
{
    inlet
    {
        type            fixedValue;
        value           uniform 0;
    }
    outlet
    {
        type            zeroGradient;
    }
    yzfaces
    {
        type            empty;
    }
}


// ************************************************************************* //
