/*--------------------------------*- C++ -*----------------------------------*\
| =========                 |                                                 |
| \\      /  F ield         | foam-extend: Open Source CFD                    |
|  \\    /   O peration     | Version:     5.0                                |
|   \\  /    A nd           | Web:         http://www.foam-extend.org         |
|    \\/     M anipulation  |                                                 |
\*---------------------------------------------------------------------------*/
FoamFile
{
    version     2.0;
    format      ascii;
    class       volScalarField;
    location    "10";
    object      H2O.water;
}
// * * * * * * * * * * * * * * * * * * * * * * * * * * * * * * * * * * * * * //

dimensions      [0 0 0 0 0 0 0];

internalField   nonuniform List<scalar> 
100
(
-0.0005207
-2.19631e-05
0.026863
0.0178446
0.0154257
0.0199479
0.0166183
0.017951
0.0170531
0.0172132
0.0188172
0.019621
0.0178513
0.0190264
0.0195004
0.0184223
0.0216031
0.0212894
0.0205684
0.0238475
0.0258946
0.0258992
0.0268355
0.0262346
0.0250328
0.0247398
0.0264323
0.0270404
0.0269902
0.0277298
0.0286348
0.0294669
0.031101
0.0317087
0.032533
0.0324309
0.0326495
0.0325985
0.0346533
0.0349545
0.0361862
0.0388015
0.0391074
0.0410745
0.0406947
0.0399476
0.0412404
0.0406733
0.0415845
0.0418276
0.0430102
0.0445745
0.0453677
0.0463324
0.0469685
0.0479721
0.0492885
0.0496773
0.0504773
0.0513438
0.0522308
0.0520899
0.0531956
0.0538417
0.0543606
0.0548991
0.0552324
0.056529
0.0562249
0.0570379
0.0567743
0.0580714
0.0582814
0.0599275
0.0598774
0.0609796
0.0611232
0.0620192
0.0631841
0.0638821
0.0645814
0.0656242
0.0664573
0.0672923
0.068657
0.0695603
0.0707298
0.071751
0.0729073
0.074358
0.0759604
0.0778323
0.0796675
0.0822938
0.0860155
0.0921734
0.106156
0.0993551
0.100266
0.100614
)
;

boundaryField
{
    inlet
    {
        type            fixedValue;
        value           uniform 0;
    }
    outlet
    {
        type            zeroGradient;
    }
    yzfaces
    {
        type            empty;
    }
}


// ************************************************************************* //
