/*--------------------------------*- C++ -*----------------------------------*\
| =========                 |                                                 |
| \\      /  F ield         | foam-extend: Open Source CFD                    |
|  \\    /   O peration     | Version:     5.0                                |
|   \\  /    A nd           | Web:         http://www.foam-extend.org         |
|    \\/     M anipulation  |                                                 |
\*---------------------------------------------------------------------------*/
FoamFile
{
    version     2.0;
    format      ascii;
    class       volScalarField;
    location    "10";
    object      Na.water;
}
// * * * * * * * * * * * * * * * * * * * * * * * * * * * * * * * * * * * * * //

dimensions      [0 0 0 0 0 0 0];

internalField   nonuniform List<scalar> 
100
(
0
-0
0.00594848
0.00514484
0.00495743
0.00629769
0.00556146
0.00600027
0.00602804
0.00619673
0.00667172
0.00693474
0.00663397
0.00698466
0.00714823
0.00701922
0.00793819
0.00803916
0.0079522
0.00885628
0.00950818
0.00973009
0.0100073
0.0100497
0.00959161
0.00960052
0.0100073
0.0103158
0.0103038
0.0105487
0.0109304
0.0113282
0.0117804
0.0120046
0.0123896
0.0124245
0.0124755
0.0125569
0.0129649
0.0131541
0.0134218
0.0139557
0.0142531
0.0147123
0.0148852
0.0147194
0.0151506
0.0152548
0.0154718
0.0156194
0.0158515
0.0162014
0.016417
0.0167907
0.0169421
0.0172762
0.0175192
0.0177371
0.0179818
0.0183048
0.0184972
0.0186426
0.0189917
0.0191644
0.019362
0.019657
0.0198047
0.0202406
0.0202995
0.0204586
0.0206151
0.0208843
0.0211342
0.0214591
0.0217855
0.0219522
0.0221927
0.0223518
0.0227375
0.0231252
0.0234937
0.0237807
0.0240842
0.0243943
0.0247756
0.0251459
0.0256029
0.0260564
0.0265302
0.0269918
0.027548
0.0281974
0.0289933
0.0299484
0.0312585
0.0334796
0.0385786
0.0361017
0.0364353
0.0365799
)
;

boundaryField
{
    inlet
    {
        type            fixedValue;
        value           uniform 0;
    }
    outlet
    {
        type            zeroGradient;
    }
    yzfaces
    {
        type            empty;
    }
}


// ************************************************************************* //
