/*--------------------------------*- C++ -*----------------------------------*\
| =========                 |                                                 |
| \\      /  F ield         | foam-extend: Open Source CFD                    |
|  \\    /   O peration     | Version:     5.0                                |
|   \\  /    A nd           | Web:         http://www.foam-extend.org         |
|    \\/     M anipulation  |                                                 |
\*---------------------------------------------------------------------------*/
FoamFile
{
    version     2.0;
    format      ascii;
    class       surfaceScalarField;
    location    "10";
    object      phi;
}
// * * * * * * * * * * * * * * * * * * * * * * * * * * * * * * * * * * * * * //

dimensions      [0 3 -1 0 0 0 0];

internalField   nonuniform List<scalar> 
99
(
1.21788e-06
1.22448e-06
1.24301e-06
1.24549e-06
1.24852e-06
1.27859e-06
1.28185e-06
1.2767e-06
1.27357e-06
1.29211e-06
1.29907e-06
1.3172e-06
1.32444e-06
1.33068e-06
1.34533e-06
1.33972e-06
1.33996e-06
1.3406e-06
1.33465e-06
1.33054e-06
1.32894e-06
1.34033e-06
1.33174e-06
1.33177e-06
1.33564e-06
1.32412e-06
1.32775e-06
1.34263e-06
1.33597e-06
1.36209e-06
1.33896e-06
1.33809e-06
1.31926e-06
1.30741e-06
1.29873e-06
1.28586e-06
1.28394e-06
1.26902e-06
1.25633e-06
1.24993e-06
1.25268e-06
1.25166e-06
1.24958e-06
1.25437e-06
1.2685e-06
1.27595e-06
1.26919e-06
1.26442e-06
1.27219e-06
1.27375e-06
1.27109e-06
1.26185e-06
1.2531e-06
1.24973e-06
1.24469e-06
1.24149e-06
1.24118e-06
1.23752e-06
1.2395e-06
1.24845e-06
1.25135e-06
1.24235e-06
1.24735e-06
1.2445e-06
1.24935e-06
1.24799e-06
1.24672e-06
1.25495e-06
1.2557e-06
1.25563e-06
1.25306e-06
1.25353e-06
1.25104e-06
1.25499e-06
1.25586e-06
1.25042e-06
1.25554e-06
1.25521e-06
1.26708e-06
1.27384e-06
1.27379e-06
1.27111e-06
1.26949e-06
1.26584e-06
1.26562e-06
1.26139e-06
1.26257e-06
1.26013e-06
1.26001e-06
1.26016e-06
1.25897e-06
1.25899e-06
1.25761e-06
1.25638e-06
1.25593e-06
1.25613e-06
1.25509e-06
1.25682e-06
1.25553e-06
)
;

boundaryField
{
    inlet
    {
        type            calculated;
        value           uniform -1.225e-06;
    }
    outlet
    {
        type            calculated;
        value           uniform 1.25637e-06;
    }
    yzfaces
    {
        type            empty;
    }
}


// ************************************************************************* //
