/*--------------------------------*- C++ -*----------------------------------*\
| =========                 |                                                 |
| \\      /  F ield         | foam-extend: Open Source CFD                    |
|  \\    /   O peration     | Version:     5.0                                |
|   \\  /    A nd           | Web:         http://www.foam-extend.org         |
|    \\/     M anipulation  |                                                 |
\*---------------------------------------------------------------------------*/
FoamFile
{
    version     2.0;
    format      ascii;
    class       surfaceScalarField;
    location    "10";
    object      phi.water;
}
// * * * * * * * * * * * * * * * * * * * * * * * * * * * * * * * * * * * * * //

dimensions      [0 3 -1 0 0 0 0];

internalField   nonuniform List<scalar> 
99
(
0
6.19211e-12
1.25869e-07
7.69573e-08
5.3241e-08
9.25559e-08
6.99534e-08
8.17983e-08
7.5782e-08
7.36661e-08
8.72694e-08
9.6993e-08
8.22837e-08
9.15527e-08
1.00046e-07
8.58411e-08
1.13035e-07
1.15952e-07
1.03036e-07
1.2758e-07
1.46406e-07
1.49655e-07
1.59939e-07
1.60211e-07
1.45612e-07
1.38306e-07
1.5454e-07
1.62613e-07
1.64076e-07
1.64962e-07
1.8155e-07
1.85812e-07
2.04362e-07
2.0889e-07
2.18533e-07
2.1947e-07
2.18499e-07
2.12288e-07
2.36158e-07
2.34866e-07
2.42964e-07
2.79065e-07
2.82494e-07
3.14073e-07
3.18169e-07
3.02711e-07
3.30847e-07
3.22515e-07
3.36107e-07
3.41576e-07
3.57268e-07
3.78921e-07
3.93649e-07
4.08699e-07
4.18686e-07
4.3963e-07
4.63071e-07
4.72794e-07
4.89129e-07
5.14518e-07
5.38055e-07
5.35715e-07
5.64159e-07
5.79947e-07
5.98289e-07
6.17143e-07
6.26802e-07
6.70738e-07
6.66511e-07
6.95362e-07
6.876e-07
7.26343e-07
7.39479e-07
7.91522e-07
8.08534e-07
8.42536e-07
8.55135e-07
8.88488e-07
9.45213e-07
9.91983e-07
1.03463e-06
1.08714e-06
1.13229e-06
1.1766e-06
1.25109e-06
1.31009e-06
1.39387e-06
1.47415e-06
1.56697e-06
1.68078e-06
1.81893e-06
1.99826e-06
2.20586e-06
2.50873e-06
2.98071e-06
4.06286e-06
4.70349e-06
4.99925e-06
5.10935e-06
)
;

boundaryField
{
    inlet
    {
        type            fixedValue;
        value           uniform 0;
    }
    outlet
    {
        type            calculated;
        value           uniform 5.1636e-06;
    }
    yzfaces
    {
        type            empty;
    }
}


// ************************************************************************* //
