/*--------------------------------*- C++ -*----------------------------------*\
| =========                 |                                                 |
| \\      /  F ield         | foam-extend: Open Source CFD                    |
|  \\    /   O peration     | Version:     5.0                                |
|   \\  /    A nd           | Web:         http://www.foam-extend.org         |
|    \\/     M anipulation  |                                                 |
\*---------------------------------------------------------------------------*/
FoamFile
{
    version     2.0;
    format      ascii;
    class       volVectorField;
    location    "10";
    object      U.gas;
}
// * * * * * * * * * * * * * * * * * * * * * * * * * * * * * * * * * * * * * //

dimensions      [0 1 -1 0 0 0 0];

internalField   nonuniform List<vector> 
100
(
(0.00498547 0 0)
(0.00499108 0 0)
(0.00627869 0 0)
(0.00594251 0 0)
(0.00583692 0 0)
(0.00617498 0 0)
(0.00610912 0 0)
(0.00618691 0 0)
(0.00612026 0 0)
(0.0061606 0 0)
(0.00633352 0 0)
(0.00643067 0 0)
(0.00640019 0 0)
(0.00651089 0 0)
(0.00660475 0 0)
(0.00657164 0 0)
(0.00676621 0 0)
(0.0067789 0 0)
(0.0067221 0 0)
(0.00691215 0 0)
(0.00702971 0 0)
(0.0070847 0 0)
(0.00715684 0 0)
(0.00711098 0 0)
(0.00701771 0 0)
(0.00698778 0 0)
(0.00708404 0 0)
(0.00717664 0 0)
(0.00721815 0 0)
(0.00728743 0 0)
(0.00743725 0 0)
(0.00742619 0 0)
(0.00752168 0 0)
(0.00748056 0 0)
(0.00749121 0 0)
(0.00744401 0 0)
(0.0073982 0 0)
(0.0073586 0 0)
(0.00743781 0 0)
(0.00739289 0 0)
(0.00746861 0 0)
(0.00768521 0 0)
(0.00771641 0 0)
(0.0078903 0 0)
(0.00793151 0 0)
(0.00793487 0 0)
(0.00809995 0 0)
(0.00802737 0 0)
(0.0081059 0 0)
(0.00817822 0 0)
(0.00828766 0 0)
(0.00838289 0 0)
(0.00841418 0 0)
(0.00845798 0 0)
(0.00849925 0 0)
(0.00858997 0 0)
(0.00868781 0 0)
(0.00873031 0 0)
(0.00880831 0 0)
(0.00895307 0 0)
(0.00908443 0 0)
(0.00907814 0 0)
(0.00918755 0 0)
(0.00926567 0 0)
(0.00934798 0 0)
(0.00944147 0 0)
(0.00948176 0 0)
(0.00966376 0 0)
(0.00967501 0 0)
(0.00979109 0 0)
(0.00976955 0 0)
(0.009923 0 0)
(0.00997426 0 0)
(0.0101663 0 0)
(0.010241 0 0)
(0.0103465 0 0)
(0.0103721 0 0)
(0.0105264 0 0)
(0.0107338 0 0)
(0.0109467 0 0)
(0.0111119 0 0)
(0.0112588 0 0)
(0.0113739 0 0)
(0.0114879 0 0)
(0.0116739 0 0)
(0.0118074 0 0)
(0.0119973 0 0)
(0.0121766 0 0)
(0.0123645 0 0)
(0.0126007 0 0)
(0.0128632 0 0)
(0.0131661 0 0)
(0.0134722 0 0)
(0.0138943 0 0)
(0.0144583 0 0)
(0.0154033 0 0)
(0.01387 0 0)
(0.0124329 0 0)
(0.0116704 0 0)
(0.0113331 0 0)
)
;

boundaryField
{
    inlet
    {
        type            fixedValue;
        value           uniform (0.005 0 0);
    }
    outlet
    {
        type            zeroGradient;
    }
    yzfaces
    {
        type            empty;
    }
}


// ************************************************************************* //
