/*--------------------------------*- C++ -*----------------------------------*\
| =========                 |                                                 |
| \\      /  F ield         | foam-extend: Open Source CFD                    |
|  \\    /   O peration     | Version:     5.0                                |
|   \\  /    A nd           | Web:         http://www.foam-extend.org         |
|    \\/     M anipulation  |                                                 |
\*---------------------------------------------------------------------------*/
FoamFile
{
    version     2.0;
    format      ascii;
    class       volVectorField;
    location    "10";
    object      U.water;
}
// * * * * * * * * * * * * * * * * * * * * * * * * * * * * * * * * * * * * * //

dimensions      [0 1 -1 0 0 0 0];

internalField   nonuniform List<vector> 
100
(
(0 0 0)
(1.89827e-07 0 0)
(4.46741e-05 0 0)
(8.97828e-05 0 0)
(5.83857e-05 0 0)
(5.47529e-05 0 0)
(7.0027e-05 0 0)
(6.03227e-05 0 0)
(6.50504e-05 0 0)
(6.23867e-05 0 0)
(6.47645e-05 0 0)
(7.31793e-05 0 0)
(7.55818e-05 0 0)
(7.04745e-05 0 0)
(7.67468e-05 0 0)
(7.93817e-05 0 0)
(7.90602e-05 0 0)
(9.27382e-05 0 0)
(9.29746e-05 0 0)
(9.35324e-05 0 0)
(0.000110506 0 0)
(0.000121297 0 0)
(0.000125145 0 0)
(0.000129396 0 0)
(0.000126248 0 0)
(0.000117621 0 0)
(0.000118556 0 0)
(0.000129009 0 0)
(0.00013317 0 0)
(0.000135921 0 0)
(0.000140482 0 0)
(0.000151474 0 0)
(0.000158266 0 0)
(0.000169298 0 0)
(0.000173995 0 0)
(0.000178799 0 0)
(0.000179161 0 0)
(0.000178154 0 0)
(0.000181351 0 0)
(0.000193274 0 0)
(0.000196694 0 0)
(0.000210887 0 0)
(0.000230786 0 0)
(0.000240842 0 0)
(0.000256896 0 0)
(0.00025651 0 0)
(0.000256065 0 0)
(0.0002682 0 0)
(0.000268473 0 0)
(0.000277661 0 0)
(0.00028583 0 0)
(0.000300222 0 0)
(0.000315514 0 0)
(0.000327409 0 0)
(0.000338577 0 0)
(0.00035056 0 0)
(0.000367894 0 0)
(0.000382486 0 0)
(0.00039304 0 0)
(0.000409413 0 0)
(0.000428578 0 0)
(0.000439952 0 0)
(0.000448281 0 0)
(0.000466898 0 0)
(0.000480991 0 0)
(0.000495671 0 0)
(0.00050911 0 0)
(0.000526546 0 0)
(0.000547221 0 0)
(0.000554056 0 0)
(0.000566851 0 0)
(0.000575795 0 0)
(0.000599951 0 0)
(0.000622899 0 0)
(0.00065385 0 0)
(0.000672413 0 0)
(0.000694139 0 0)
(0.000712088 0 0)
(0.000747745 0 0)
(0.000790197 0 0)
(0.000827435 0 0)
(0.000865949 0 0)
(0.000906418 0 0)
(0.000944031 0 0)
(0.000990668 0 0)
(0.00104642 0 0)
(0.00110403 0 0)
(0.0011714 0 0)
(0.00124254 0 0)
(0.00132704 0 0)
(0.0014304 0 0)
(0.00156 0 0)
(0.00172099 0 0)
(0.00193319 0 0)
(0.00226247 0 0)
(0.00286406 0 0)
(0.00356429 0 0)
(0.00395163 0 0)
(0.00412212 0 0)
(0.00419101 0 0)
)
;

boundaryField
{
    inlet
    {
        type            fixedValue;
        value           uniform (0 0 0);
    }
    outlet
    {
        type            zeroGradient;
    }
    yzfaces
    {
        type            empty;
    }
}


// ************************************************************************* //
