/*--------------------------------*- C++ -*----------------------------------*\
| =========                 |                                                 |
| \\      /  F ield         | foam-extend: Open Source CFD                    |
|  \\    /   O peration     | Version:     5.0                                |
|   \\  /    A nd           | Web:         http://www.foam-extend.org         |
|    \\/     M anipulation  |                                                 |
\*---------------------------------------------------------------------------*/
FoamFile
{
    version     2.0;
    format      ascii;
    class       volScalarField;
    location    "7";
    object      alpha.gas;
}
// * * * * * * * * * * * * * * * * * * * * * * * * * * * * * * * * * * * * * //

dimensions      [0 0 0 0 0 0 0];

internalField   nonuniform List<scalar> 
100
(
0.162846
0.150723
0.142854
0.135832
0.129134
0.125367
0.122627
0.119054
0.114973
0.11105
0.107511
0.104634
0.10189
0.0996111
0.0977481
0.095463
0.0939771
0.0924592
0.0906862
0.0890487
0.0876235
0.0866385
0.0858203
0.0849008
0.0840395
0.0831258
0.0819529
0.080796
0.079578
0.0786013
0.0775983
0.0765924
0.075797
0.0750109
0.0741812
0.0733293
0.072512
0.0716271
0.0708467
0.0702044
0.0696113
0.0690547
0.0684272
0.0678738
0.0670828
0.066392
0.0657933
0.0653061
0.0648021
0.0641906
0.0635923
0.0629914
0.0624865
0.0619612
0.0613597
0.0607871
0.0602723
0.0597672
0.0593334
0.0588683
0.0584322
0.0578953
0.057379
0.0569093
0.0564941
0.0560233
0.0555677
0.055124
0.0547407
0.0543831
0.0539869
0.0536078
0.0532087
0.0528291
0.0524454
0.0520798
0.051701
0.0513871
0.0509632
0.0505506
0.050075
0.0496527
0.0492867
0.0488681
0.0483766
0.0478508
0.0472987
0.0468317
0.0463551
0.0458618
0.0453489
0.0448642
0.0443843
0.0439023
0.0434277
0.0429552
0.0424664
0.0419647
0.0414566
0.0409202
)
;

boundaryField
{
    inlet
    {
        type            fixedValue;
        value           uniform 0.2;
    }
    outlet
    {
        type            zeroGradient;
    }
    yzfaces
    {
        type            empty;
    }
}


// ************************************************************************* //
