/*--------------------------------*- C++ -*----------------------------------*\
| =========                 |                                                 |
| \\      /  F ield         | foam-extend: Open Source CFD                    |
|  \\    /   O peration     | Version:     5.0                                |
|   \\  /    A nd           | Web:         http://www.foam-extend.org         |
|    \\/     M anipulation  |                                                 |
\*---------------------------------------------------------------------------*/
FoamFile
{
    version     2.0;
    format      ascii;
    class       volScalarField;
    location    "7";
    object      Cl.water;
}
// * * * * * * * * * * * * * * * * * * * * * * * * * * * * * * * * * * * * * //

dimensions      [0 0 0 0 0 0 0];

internalField   nonuniform List<scalar> 
100
(
0.0072564
0.0102036
0.0122602
0.0137922
0.0149062
0.0160016
0.0168149
0.017153
0.0175927
0.0181466
0.0186679
0.0192281
0.0197881
0.0202591
0.0206713
0.0209173
0.0213743
0.0217209
0.0220437
0.0224621
0.0228911
0.0231395
0.0232611
0.0234621
0.0237183
0.0239374
0.0240371
0.0242695
0.0243767
0.0247015
0.0248765
0.0250512
0.0252514
0.0254092
0.0256171
0.0257228
0.0259075
0.0260991
0.0262996
0.0265635
0.0267219
0.0268365
0.0268594
0.0270292
0.0270907
0.0271799
0.0273086
0.0274326
0.0275469
0.0276017
0.0276818
0.0278207
0.0280589
0.028191
0.0282999
0.0283871
0.0284956
0.0286329
0.0287447
0.0288515
0.0289587
0.0289965
0.0291112
0.0292281
0.0294022
0.0295052
0.0295983
0.0297172
0.0298165
0.029844
0.0298795
0.0299852
0.0300937
0.0301868
0.0302934
0.0303643
0.0304288
0.0304912
0.0305026
0.0306291
0.0306781
0.0307542
0.0308676
0.0308902
0.0309244
0.0310013
0.0311032
0.0312421
0.0313669
0.0314336
0.0315182
0.0316111
0.0317314
0.0318553
0.031966
0.0320896
0.0321874
0.0322575
0.0323651
0.0324497
)
;

boundaryField
{
    inlet
    {
        type            fixedValue;
        value           uniform 0;
    }
    outlet
    {
        type            zeroGradient;
    }
    yzfaces
    {
        type            empty;
    }
}


// ************************************************************************* //
