/*--------------------------------*- C++ -*----------------------------------*\
| =========                 |                                                 |
| \\      /  F ield         | foam-extend: Open Source CFD                    |
|  \\    /   O peration     | Version:     5.0                                |
|   \\  /    A nd           | Web:         http://www.foam-extend.org         |
|    \\/     M anipulation  |                                                 |
\*---------------------------------------------------------------------------*/
FoamFile
{
    version     2.0;
    format      ascii;
    class       volScalarField;
    location    "7";
    object      CO2.water;
}
// * * * * * * * * * * * * * * * * * * * * * * * * * * * * * * * * * * * * * //

dimensions      [0 0 0 0 0 0 0];

internalField   nonuniform List<scalar> 
100
(
0.000975823
0.00129425
0.00150091
0.00168533
0.00186127
0.0019602
0.00203217
0.00212602
0.00223319
0.00233622
0.00242918
0.00250474
0.0025768
0.00263667
0.0026856
0.00274562
0.00278464
0.00282451
0.00287108
0.00291409
0.00295152
0.00297739
0.00299888
0.00302303
0.00304565
0.00306965
0.00310045
0.00313084
0.00316283
0.00318848
0.00321482
0.00324124
0.00326214
0.00328278
0.00330457
0.00332695
0.00334841
0.00337166
0.00339215
0.00340902
0.0034246
0.00343922
0.0034557
0.00347023
0.00349101
0.00350915
0.00352488
0.00353767
0.00355091
0.00356697
0.00358269
0.00359847
0.00361173
0.00362553
0.00364132
0.00365636
0.00366988
0.00368315
0.00369454
0.00370676
0.00371821
0.00373232
0.00374588
0.00375821
0.00376912
0.00378148
0.00379345
0.0038051
0.00381517
0.00382456
0.00383497
0.00384492
0.00385541
0.00386538
0.00387545
0.00388506
0.003895
0.00390325
0.00391438
0.00392522
0.00393771
0.0039488
0.00395841
0.00396941
0.00398232
0.00399613
0.00401063
0.0040229
0.00403541
0.00404837
0.00406184
0.00407457
0.00408717
0.00409984
0.0041123
0.00412471
0.00413755
0.00415072
0.00416407
0.00417816
)
;

boundaryField
{
    inlet
    {
        type            fixedValue;
        value           uniform 0;
    }
    outlet
    {
        type            zeroGradient;
    }
    yzfaces
    {
        type            empty;
    }
}


// ************************************************************************* //
