/*--------------------------------*- C++ -*----------------------------------*\
| =========                 |                                                 |
| \\      /  F ield         | foam-extend: Open Source CFD                    |
|  \\    /   O peration     | Version:     5.0                                |
|   \\  /    A nd           | Web:         http://www.foam-extend.org         |
|    \\/     M anipulation  |                                                 |
\*---------------------------------------------------------------------------*/
FoamFile
{
    version     2.0;
    format      ascii;
    class       volScalarField;
    location    "7";
    object      CO2.water;
}
// * * * * * * * * * * * * * * * * * * * * * * * * * * * * * * * * * * * * * //

dimensions      [0 0 0 0 0 0 0];

internalField   nonuniform List<scalar> 
100
(
0.000971658
0.00129301
0.00147619
0.00169415
0.00187416
0.00195445
0.00202875
0.00212291
0.00224927
0.00233644
0.00242578
0.00250779
0.0025767
0.00264646
0.00269771
0.00275429
0.002799
0.00284112
0.00288785
0.00292233
0.00295676
0.00297368
0.00299062
0.0030119
0.00303512
0.00306425
0.0030914
0.00311996
0.00315702
0.00318392
0.0032128
0.00323705
0.00326138
0.00328446
0.0032991
0.00332276
0.00334358
0.00336358
0.00338066
0.00339938
0.00341728
0.00343291
0.00345116
0.00346736
0.00348942
0.00350617
0.00352564
0.00354198
0.00355581
0.00357125
0.00358496
0.0036019
0.00361585
0.00362856
0.00363933
0.0036525
0.00366706
0.00368214
0.00369383
0.00370717
0.00371982
0.00373368
0.00374542
0.003756
0.00376834
0.00378135
0.00379109
0.00380187
0.00381112
0.00382106
0.00383061
0.00384036
0.00385096
0.00386249
0.00387221
0.00388203
0.00389319
0.0039036
0.00391366
0.00392594
0.00393623
0.00394675
0.00395724
0.00396952
0.00398228
0.00399423
0.00400689
0.00402127
0.00403513
0.00404794
0.00406124
0.00407446
0.00408676
0.00410018
0.00411316
0.00412674
0.00413985
0.00415278
0.00416633
0.00417953
)
;

boundaryField
{
    inlet
    {
        type            fixedValue;
        value           uniform 0;
    }
    outlet
    {
        type            zeroGradient;
    }
    yzfaces
    {
        type            empty;
    }
}


// ************************************************************************* //
