/*--------------------------------*- C++ -*----------------------------------*\
| =========                 |                                                 |
| \\      /  F ield         | foam-extend: Open Source CFD                    |
|  \\    /   O peration     | Version:     5.0                                |
|   \\  /    A nd           | Web:         http://www.foam-extend.org         |
|    \\/     M anipulation  |                                                 |
\*---------------------------------------------------------------------------*/
FoamFile
{
    version     2.0;
    format      ascii;
    class       volScalarField;
    location    "7";
    object      H2O.water;
}
// * * * * * * * * * * * * * * * * * * * * * * * * * * * * * * * * * * * * * //

dimensions      [0 0 0 0 0 0 0];

internalField   nonuniform List<scalar> 
100
(
0.0216644
0.0275701
0.0311138
0.0348875
0.0391916
0.0406736
0.0417047
0.044516
0.0476035
0.0503137
0.0527209
0.0544071
0.0559659
0.0572391
0.0582231
0.0599488
0.0604746
0.06128
0.0623506
0.0631169
0.0636384
0.0641027
0.0646509
0.0651389
0.065467
0.0659155
0.0668649
0.0675255
0.0685039
0.0687983
0.0694375
0.0700691
0.0704435
0.0708827
0.0712723
0.0718916
0.0723263
0.0728054
0.0731705
0.0732827
0.0735556
0.0738669
0.0744258
0.0746179
0.0752555
0.0757428
0.0760681
0.0762884
0.0765438
0.0770222
0.0774563
0.0777683
0.0777858
0.0780221
0.0783888
0.0787749
0.0790559
0.0792772
0.0794751
0.0797145
0.0799244
0.0803728
0.080648
0.0809001
0.0809783
0.0812296
0.0814887
0.0816834
0.0818564
0.0821471
0.0824595
0.0826085
0.0827795
0.08296
0.0831136
0.0833082
0.0835536
0.0837275
0.0841048
0.0842634
0.0846275
0.0848886
0.085031
0.0853891
0.0857762
0.0861396
0.0864702
0.0866572
0.0868617
0.0872056
0.0875286
0.087813
0.0880532
0.088286
0.088526
0.0887306
0.0890018
0.089342
0.089621
0.0899779
)
;

boundaryField
{
    inlet
    {
        type            fixedValue;
        value           uniform 0;
    }
    outlet
    {
        type            zeroGradient;
    }
    yzfaces
    {
        type            empty;
    }
}


// ************************************************************************* //
