/*--------------------------------*- C++ -*----------------------------------*\
| =========                 |                                                 |
| \\      /  F ield         | foam-extend: Open Source CFD                    |
|  \\    /   O peration     | Version:     5.0                                |
|   \\  /    A nd           | Web:         http://www.foam-extend.org         |
|    \\/     M anipulation  |                                                 |
\*---------------------------------------------------------------------------*/
FoamFile
{
    version     2.0;
    format      ascii;
    class       volVectorField;
    location    "7";
    object      U.water;
}
// * * * * * * * * * * * * * * * * * * * * * * * * * * * * * * * * * * * * * //

dimensions      [0 1 -1 0 0 0 0];

internalField   nonuniform List<vector> 
100
(
(3.96469e-05 0 0)
(9.16621e-05 0 0)
(0.000131618 0 0)
(0.000165988 0 0)
(0.000204271 0 0)
(0.000241385 0 0)
(0.000265307 0 0)
(0.000286427 0 0)
(0.000316391 0 0)
(0.000353479 0 0)
(0.000391363 0 0)
(0.000427177 0 0)
(0.000460258 0 0)
(0.000493929 0 0)
(0.000523599 0 0)
(0.000552943 0 0)
(0.000585727 0 0)
(0.000611052 0 0)
(0.000640425 0 0)
(0.000673243 0 0)
(0.000703203 0 0)
(0.000730704 0 0)
(0.000750515 0 0)
(0.000769251 0 0)
(0.000790536 0 0)
(0.000810903 0 0)
(0.000834103 0 0)
(0.000863525 0 0)
(0.000894175 0 0)
(0.000920779 0 0)
(0.000945175 0 0)
(0.000973345 0 0)
(0.0010008 0 0)
(0.00102359 0 0)
(0.00104572 0 0)
(0.00107131 0 0)
(0.00109835 0 0)
(0.00112656 0 0)
(0.00115552 0 0)
(0.00118071 0 0)
(0.00120258 0 0)
(0.00122124 0 0)
(0.00124152 0 0)
(0.0012618 0 0)
(0.00128269 0 0)
(0.00131001 0 0)
(0.00133409 0 0)
(0.0013552 0 0)
(0.00137307 0 0)
(0.0013926 0 0)
(0.00141785 0 0)
(0.00144408 0 0)
(0.00146806 0 0)
(0.00148672 0 0)
(0.00150842 0 0)
(0.00153702 0 0)
(0.00156593 0 0)
(0.00159342 0 0)
(0.00161975 0 0)
(0.00164466 0 0)
(0.00166575 0 0)
(0.00168677 0 0)
(0.001713 0 0)
(0.00173827 0 0)
(0.0017589 0 0)
(0.00178084 0 0)
(0.00180469 0 0)
(0.00182819 0 0)
(0.00185363 0 0)
(0.00187502 0 0)
(0.00189666 0 0)
(0.00192017 0 0)
(0.00194165 0 0)
(0.00196499 0 0)
(0.00198925 0 0)
(0.00200888 0 0)
(0.00202518 0 0)
(0.00203851 0 0)
(0.00205304 0 0)
(0.002074 0 0)
(0.0020989 0 0)
(0.00212713 0 0)
(0.00214937 0 0)
(0.0021675 0 0)
(0.0021869 0 0)
(0.00221082 0 0)
(0.00224552 0 0)
(0.0022798 0 0)
(0.00230698 0 0)
(0.00233789 0 0)
(0.00237362 0 0)
(0.00241088 0 0)
(0.00244519 0 0)
(0.00247897 0 0)
(0.00251342 0 0)
(0.00254506 0 0)
(0.0025768 0 0)
(0.00261136 0 0)
(0.00264747 0 0)
(0.00268566 0 0)
)
;

boundaryField
{
    inlet
    {
        type            fixedValue;
        value           uniform (0 0 0);
    }
    outlet
    {
        type            zeroGradient;
    }
    yzfaces
    {
        type            empty;
    }
}


// ************************************************************************* //
