/*--------------------------------*- C++ -*----------------------------------*\
| =========                 |                                                 |
| \\      /  F ield         | foam-extend: Open Source CFD                    |
|  \\    /   O peration     | Version:     5.0                                |
|   \\  /    A nd           | Web:         http://www.foam-extend.org         |
|    \\/     M anipulation  |                                                 |
\*---------------------------------------------------------------------------*/
FoamFile
{
    version     2.0;
    format      ascii;
    class       volVectorField;
    location    "7";
    object      U.water;
}
// * * * * * * * * * * * * * * * * * * * * * * * * * * * * * * * * * * * * * //

dimensions      [0 1 -1 0 0 0 0];

internalField   nonuniform List<vector> 
100
(
(3.98198e-05 0 0)
(9.12468e-05 0 0)
(0.000130321 0 0)
(0.000164132 0 0)
(0.000207471 0 0)
(0.000245345 0 0)
(0.000267743 0 0)
(0.000291749 0 0)
(0.000324513 0 0)
(0.000363131 0 0)
(0.000397635 0 0)
(0.000434847 0 0)
(0.000471281 0 0)
(0.000508821 0 0)
(0.000545923 0 0)
(0.000579494 0 0)
(0.000612828 0 0)
(0.000640366 0 0)
(0.000670178 0 0)
(0.000702743 0 0)
(0.000730205 0 0)
(0.000755457 0 0)
(0.000771916 0 0)
(0.000785687 0 0)
(0.00080396 0 0)
(0.00082636 0 0)
(0.000852262 0 0)
(0.000876973 0 0)
(0.000908633 0 0)
(0.000943618 0 0)
(0.000973276 0 0)
(0.00100605 0 0)
(0.00103392 0 0)
(0.00106321 0 0)
(0.00108833 0 0)
(0.00111092 0 0)
(0.00113935 0 0)
(0.0011642 0 0)
(0.00118961 0 0)
(0.00121253 0 0)
(0.00123737 0 0)
(0.00126146 0 0)
(0.0012839 0 0)
(0.00130733 0 0)
(0.00133224 0 0)
(0.00136066 0 0)
(0.00138897 0 0)
(0.001421 0 0)
(0.00144552 0 0)
(0.0014693 0 0)
(0.00149595 0 0)
(0.00152374 0 0)
(0.00155205 0 0)
(0.00157439 0 0)
(0.00159581 0 0)
(0.00161738 0 0)
(0.00164236 0 0)
(0.00166822 0 0)
(0.00169345 0 0)
(0.00171787 0 0)
(0.00174325 0 0)
(0.00176951 0 0)
(0.0017977 0 0)
(0.00181939 0 0)
(0.00184133 0 0)
(0.00187294 0 0)
(0.00190127 0 0)
(0.0019216 0 0)
(0.00194302 0 0)
(0.00196539 0 0)
(0.00198454 0 0)
(0.00199794 0 0)
(0.00201428 0 0)
(0.00203712 0 0)
(0.00205843 0 0)
(0.00207512 0 0)
(0.00209744 0 0)
(0.00212499 0 0)
(0.00215061 0 0)
(0.00217709 0 0)
(0.00220335 0 0)
(0.00222714 0 0)
(0.0022512 0 0)
(0.00227785 0 0)
(0.00230964 0 0)
(0.00233995 0 0)
(0.00237023 0 0)
(0.00240442 0 0)
(0.00244306 0 0)
(0.00247646 0 0)
(0.00250818 0 0)
(0.00254404 0 0)
(0.00257558 0 0)
(0.00260759 0 0)
(0.00264452 0 0)
(0.00268262 0 0)
(0.00271843 0 0)
(0.00275175 0 0)
(0.00278766 0 0)
(0.00282472 0 0)
)
;

boundaryField
{
    inlet
    {
        type            fixedValue;
        value           uniform (0 0 0);
    }
    outlet
    {
        type            zeroGradient;
    }
    yzfaces
    {
        type            empty;
    }
}


// ************************************************************************* //
