/*--------------------------------*- C++ -*----------------------------------*\
| =========                 |                                                 |
| \\      /  F ield         | foam-extend: Open Source CFD                    |
|  \\    /   O peration     | Version:     5.0                                |
|   \\  /    A nd           | Web:         http://www.foam-extend.org         |
|    \\/     M anipulation  |                                                 |
\*---------------------------------------------------------------------------*/
FoamFile
{
    version     2.0;
    format      ascii;
    class       volScalarField;
    location    "4";
    object      alpha.gas;
}
// * * * * * * * * * * * * * * * * * * * * * * * * * * * * * * * * * * * * * //

dimensions      [0 0 0 0 0 0 0];

internalField   nonuniform List<scalar> 
100
(
0.151305
0.136248
0.126102
0.118665
0.112331
0.107883
0.103055
0.0992982
0.0954764
0.0928884
0.0899067
0.087605
0.0860259
0.0838353
0.0822476
0.0804935
0.0789387
0.0771263
0.0755436
0.0742163
0.0727142
0.071337
0.0700437
0.0688531
0.0676808
0.0665973
0.0654106
0.0643497
0.0634329
0.0625341
0.0616176
0.0606503
0.0598226
0.0588533
0.0581368
0.0572561
0.0564316
0.0556125
0.0548689
0.0540912
0.0534291
0.05262
0.0519044
0.0511914
0.0503814
0.0496521
0.0488865
0.0481499
0.0474016
0.0466621
0.0458428
0.0450118
0.0441673
0.0433506
0.0425085
0.0416999
0.040815
0.0399373
0.0390249
0.0381129
0.0371314
0.0361385
0.0350652
0.0339462
0.0327504
0.0314571
0.0300706
0.0285844
0.0269658
0.0252283
0.0233762
0.0214202
0.0194108
0.0174359
0.0155936
0.0139891
0.0127056
0.0117514
0.0110916
0.0106587
0.0103895
0.0102261
0.0101306
0.0100755
0.0100453
0.0100263
0.010016
0.0100099
0.0100044
0.0100021
0.0100032
0.0100036
0.0100033
0.0100034
0.0100027
0.0100044
0.0100031
0.0100017
0.0099999
0.00999643
)
;

boundaryField
{
    inlet
    {
        type            fixedValue;
        value           uniform 0.2;
    }
    outlet
    {
        type            zeroGradient;
    }
    yzfaces
    {
        type            empty;
    }
}


// ************************************************************************* //
