/*--------------------------------*- C++ -*----------------------------------*\
| =========                 |                                                 |
| \\      /  F ield         | foam-extend: Open Source CFD                    |
|  \\    /   O peration     | Version:     5.0                                |
|   \\  /    A nd           | Web:         http://www.foam-extend.org         |
|    \\/     M anipulation  |                                                 |
\*---------------------------------------------------------------------------*/
FoamFile
{
    version     2.0;
    format      ascii;
    class       volScalarField;
    location    "4";
    object      alpha.gas;
}
// * * * * * * * * * * * * * * * * * * * * * * * * * * * * * * * * * * * * * //

dimensions      [0 0 0 0 0 0 0];

internalField   nonuniform List<scalar> 
100
(
0.151578
0.136884
0.126915
0.119542
0.113201
0.107608
0.10339
0.0992252
0.0960558
0.0924956
0.0902002
0.0877397
0.0859793
0.083908
0.0820995
0.0797029
0.0779709
0.0766139
0.0755639
0.0740799
0.0727943
0.071349
0.0701158
0.0690724
0.0678299
0.0668492
0.0657103
0.0646816
0.0636881
0.0626324
0.0618125
0.0607947
0.0598311
0.0589422
0.0581566
0.0573101
0.0564096
0.0555713
0.0547347
0.0540706
0.0532731
0.0526301
0.0519967
0.0512263
0.0504568
0.0497466
0.0490343
0.0481708
0.0473832
0.0466176
0.0457982
0.0449787
0.0441763
0.0433764
0.04253
0.0416711
0.0407731
0.0399203
0.0390034
0.038073
0.0371085
0.0361255
0.03505
0.0339133
0.0327261
0.0314518
0.0300715
0.0285845
0.0269661
0.0252302
0.023371
0.0214034
0.0194003
0.0174287
0.0155826
0.0139862
0.0126997
0.0117429
0.0110844
0.0106541
0.01039
0.010229
0.0101343
0.0100777
0.0100422
0.0100218
0.0100101
0.0100049
0.01
0.00999584
0.00999595
0.00999649
0.00999456
0.00999459
0.00999608
0.00999541
0.00999756
0.00999895
0.00999638
0.00999748
)
;

boundaryField
{
    inlet
    {
        type            fixedValue;
        value           uniform 0.2;
    }
    outlet
    {
        type            zeroGradient;
    }
    yzfaces
    {
        type            empty;
    }
}


// ************************************************************************* //
