/*--------------------------------*- C++ -*----------------------------------*\
| =========                 |                                                 |
| \\      /  F ield         | foam-extend: Open Source CFD                    |
|  \\    /   O peration     | Version:     5.0                                |
|   \\  /    A nd           | Web:         http://www.foam-extend.org         |
|    \\/     M anipulation  |                                                 |
\*---------------------------------------------------------------------------*/
FoamFile
{
    version     2.0;
    format      ascii;
    class       volScalarField;
    location    "4";
    object      Cl.water;
}
// * * * * * * * * * * * * * * * * * * * * * * * * * * * * * * * * * * * * * //

dimensions      [0 0 0 0 0 0 0];

internalField   nonuniform List<scalar> 
100
(
0.00988384
0.0131881
0.0152284
0.0166805
0.0178087
0.0187838
0.0196311
0.0203877
0.0210999
0.0217093
0.0224531
0.0228365
0.0233466
0.0236113
0.0240083
0.0241947
0.0247791
0.0251179
0.0255578
0.0257269
0.0260182
0.0262007
0.0265278
0.0267823
0.0269476
0.0272382
0.0274213
0.0276669
0.0278851
0.0280063
0.0281899
0.0283841
0.0285485
0.0287345
0.0290465
0.0292431
0.0293336
0.0295825
0.0297434
0.0299186
0.0300359
0.0302369
0.0303658
0.0304074
0.0305809
0.0307524
0.0309121
0.0309557
0.0312
0.0313346
0.0315026
0.0316679
0.0318413
0.0320278
0.0321468
0.03234
0.0325446
0.0336595
0.0338667
0.0340502
0.034262
0.0344961
0.0347161
0.0349587
0.0352115
0.0354491
0.0357593
0.0360914
0.0364443
0.0368019
0.0371914
0.0375985
0.0380633
0.03846
0.0388531
0.0392076
0.0394581
0.039673
0.0398004
0.0398862
0.0399514
0.0399933
0.0399819
0.039986
0.0399796
0.0399746
0.0400057
0.0400374
0.0400374
0.0400146
0.0400136
0.0399958
0.0399972
0.0400063
0.0400141
0.0400011
0.0400015
0.0399645
0.039987
0.0399564
)
;

boundaryField
{
    inlet
    {
        type            fixedValue;
        value           uniform 0;
    }
    outlet
    {
        type            zeroGradient;
    }
    yzfaces
    {
        type            empty;
    }
}


// ************************************************************************* //
