/*--------------------------------*- C++ -*----------------------------------*\
| =========                 |                                                 |
| \\      /  F ield         | foam-extend: Open Source CFD                    |
|  \\    /   O peration     | Version:     5.0                                |
|   \\  /    A nd           | Web:         http://www.foam-extend.org         |
|    \\/     M anipulation  |                                                 |
\*---------------------------------------------------------------------------*/
FoamFile
{
    version     2.0;
    format      ascii;
    class       volScalarField;
    location    "4";
    object      CO2.water;
}
// * * * * * * * * * * * * * * * * * * * * * * * * * * * * * * * * * * * * * //

dimensions      [0 0 0 0 0 0 0];

internalField   nonuniform List<scalar> 
100
(
0.00127178
0.00165771
0.00191953
0.0021132
0.00227972
0.00242665
0.00253742
0.0026468
0.00273005
0.00282355
0.00288384
0.00294846
0.0029947
0.0030491
0.0030966
0.00315955
0.00320504
0.00324068
0.00326826
0.00330723
0.003341
0.00337896
0.00341135
0.00343875
0.00347139
0.00349715
0.00352706
0.00355407
0.00358017
0.0036079
0.00362943
0.00365616
0.00368147
0.00370482
0.00372545
0.00374768
0.00377134
0.00379335
0.00381533
0.00383277
0.00385371
0.0038706
0.00388724
0.00390747
0.00392768
0.00394634
0.00396505
0.00398772
0.00400841
0.00402852
0.00405004
0.00407156
0.00409264
0.00411365
0.00413588
0.00415844
0.00418202
0.000167435
3.47508e-05
7.48349e-06
1.70026e-06
4.20235e-07
1.1658e-07
3.71883e-08
1.36993e-08
5.41281e-09
2.17053e-09
8.90452e-10
3.76101e-10
1.63935e-10
7.36368e-11
3.38772e-11
1.59209e-11
7.71181e-12
3.71392e-12
1.76958e-12
8.37732e-13
3.92189e-13
1.81146e-13
8.24141e-14
3.68769e-14
1.61764e-14
6.92388e-15
2.90727e-15
1.19026e-15
4.84943e-16
1.94224e-16
7.75428e-17
3.13776e-17
1.28339e-17
5.87575e-18
2.87664e-18
1.5388e-18
8.45086e-19
4.90271e-19
2.89882e-19
1.73425e-19
1.04165e-19
6.23523e-20
4.06868e-20
)
;

boundaryField
{
    inlet
    {
        type            fixedValue;
        value           uniform 0;
    }
    outlet
    {
        type            zeroGradient;
    }
    yzfaces
    {
        type            empty;
    }
}


// ************************************************************************* //
