/*--------------------------------*- C++ -*----------------------------------*\
| =========                 |                                                 |
| \\      /  F ield         | foam-extend: Open Source CFD                    |
|  \\    /   O peration     | Version:     5.0                                |
|   \\  /    A nd           | Web:         http://www.foam-extend.org         |
|    \\/     M anipulation  |                                                 |
\*---------------------------------------------------------------------------*/
FoamFile
{
    version     2.0;
    format      ascii;
    class       volScalarField;
    location    "4";
    object      CO2.gas;
}
// * * * * * * * * * * * * * * * * * * * * * * * * * * * * * * * * * * * * * //

dimensions      [0 0 0 0 0 0 0];

internalField   nonuniform List<scalar> 
100
(
0.151283
0.136617
0.126668
0.119309
0.112981
0.107398
0.103189
0.0990319
0.0958687
0.0923155
0.0900246
0.0875689
0.0858119
0.0837446
0.0819396
0.0795477
0.077819
0.0764647
0.0754167
0.0739357
0.0726525
0.07121
0.0699793
0.0689379
0.0676978
0.066719
0.0655824
0.0645557
0.0635641
0.0625104
0.0616921
0.0606763
0.0597146
0.0588274
0.0580433
0.0571985
0.0562997
0.0554631
0.0546281
0.0539653
0.0531694
0.0525276
0.0518954
0.0511266
0.0503585
0.0496497
0.0489388
0.048077
0.0472909
0.0465269
0.045709
0.0448911
0.0440903
0.0432919
0.0424471
0.04159
0.0406937
0.0328178
0.0288106
0.0250917
0.0216567
0.0185032
0.01559
0.0129551
0.010592
0.0084959
0.00667476
0.00510975
0.00378815
0.0027053
0.00184931
0.00119629
0.000726639
0.000407978
0.000210102
9.85702e-05
4.2241e-05
1.68177e-05
6.39452e-06
2.40909e-06
9.28264e-07
3.76226e-07
1.61694e-07
7.4797e-08
3.45701e-08
1.59117e-08
7.35962e-09
3.4206e-09
1.59462e-09
7.46581e-10
3.5093e-10
1.64755e-10
7.54969e-11
3.38825e-11
1.48355e-11
6.30515e-12
2.59828e-12
1.03681e-12
3.98817e-13
1.36963e-13
)
;

boundaryField
{
    inlet
    {
        type            fixedValue;
        value           uniform 0.2;
    }
    outlet
    {
        type            zeroGradient;
    }
    yzfaces
    {
        type            empty;
    }
}


// ************************************************************************* //
