/*--------------------------------*- C++ -*----------------------------------*\
| =========                 |                                                 |
| \\      /  F ield         | foam-extend: Open Source CFD                    |
|  \\    /   O peration     | Version:     5.0                                |
|   \\  /    A nd           | Web:         http://www.foam-extend.org         |
|    \\/     M anipulation  |                                                 |
\*---------------------------------------------------------------------------*/
FoamFile
{
    version     2.0;
    format      ascii;
    class       volScalarField;
    location    "4";
    object      H2O.water;
}
// * * * * * * * * * * * * * * * * * * * * * * * * * * * * * * * * * * * * * //

dimensions      [0 0 0 0 0 0 0];

internalField   nonuniform List<scalar> 
100
(
0.0273855
0.0350827
0.0407048
0.0449681
0.0488884
0.0523821
0.0548032
0.0573535
0.0590015
0.0612416
0.0619852
0.0636154
0.064313
0.0658061
0.0667732
0.0687306
0.0692599
0.0698936
0.0700538
0.0711514
0.0718118
0.0728646
0.0734184
0.0739344
0.0748096
0.0751701
0.0759101
0.0764258
0.0769661
0.0777371
0.0781773
0.0787857
0.0793955
0.0798703
0.0800144
0.0804521
0.0811497
0.0814445
0.0819345
0.0822442
0.0827839
0.0830151
0.0833822
0.0840418
0.0844298
0.0847889
0.0851511
0.0859099
0.086199
0.0866858
0.0871507
0.0876167
0.0880321
0.0884345
0.0890303
0.0894853
0.0899505
0.0926112
0.0931759
0.0937018
0.0942475
0.0948551
0.0954839
0.096182
0.0968505
0.0975227
0.0984214
0.0993234
0.100287
0.101247
0.102325
0.103395
0.104682
0.105782
0.10685
0.107834
0.108511
0.109085
0.109402
0.109633
0.109824
0.109947
0.109993
0.109991
0.10997
0.109946
0.110051
0.110126
0.110155
0.110093
0.110066
0.11
0.110005
0.110038
0.110044
0.110014
0.11
0.109921
0.11001
0.109878
)
;

boundaryField
{
    inlet
    {
        type            fixedValue;
        value           uniform 0;
    }
    outlet
    {
        type            zeroGradient;
    }
    yzfaces
    {
        type            empty;
    }
}


// ************************************************************************* //
