/*--------------------------------*- C++ -*----------------------------------*\
| =========                 |                                                 |
| \\      /  F ield         | foam-extend: Open Source CFD                    |
|  \\    /   O peration     | Version:     5.0                                |
|   \\  /    A nd           | Web:         http://www.foam-extend.org         |
|    \\/     M anipulation  |                                                 |
\*---------------------------------------------------------------------------*/
FoamFile
{
    version     2.0;
    format      ascii;
    class       volScalarField;
    location    "4";
    object      H2O.gas;
}
// * * * * * * * * * * * * * * * * * * * * * * * * * * * * * * * * * * * * * //

dimensions      [0 0 0 0 0 0 0];

internalField   nonuniform List<scalar> 
100
(
0.000295194
0.000266578
0.000247164
0.000232804
0.000220457
0.000209563
0.000201349
0.000193238
0.000187066
0.000180133
0.000175662
0.000170871
0.000167442
0.000163408
0.000159886
0.000155219
0.000151846
0.000149203
0.000147158
0.000144268
0.000141765
0.00013895
0.000136549
0.000134516
0.000132097
0.000130187
0.000127969
0.000125966
0.000124031
0.000121975
0.000120378
0.000118396
0.000116519
0.000114788
0.000113258
0.00011161
0.000109856
0.000108223
0.000106594
0.000105301
0.000103748
0.000102496
0.000101262
9.97618e-05
9.82632e-05
9.68801e-05
9.54928e-05
9.38113e-05
9.22774e-05
9.07865e-05
8.91907e-05
8.75947e-05
8.60321e-05
8.44743e-05
8.28259e-05
8.11533e-05
7.94044e-05
0.00710922
0.0101833
0.0129583
0.0154293
0.0176181
0.0194533
0.0209612
0.0221331
0.0229316
0.0233976
0.0234884
0.0231966
0.0225329
0.0215294
0.0202039
0.018693
0.01703
0.0153815
0.0139034
0.0126636
0.0117339
0.0110803
0.0106525
0.0103935
0.0102352
0.0101379
0.0100789
0.0100402
0.0100165
0.0100138
0.0100157
0.0100119
0.0100018
0.010001
0.00999611
0.00999518
0.00999864
0.0100013
0.00999814
0.00999938
0.00999239
0.00999678
0.00998685
)
;

boundaryField
{
    inlet
    {
        type            fixedValue;
        value           uniform 0;
    }
    outlet
    {
        type            zeroGradient;
    }
    yzfaces
    {
        type            empty;
    }
}


// ************************************************************************* //
