/*--------------------------------*- C++ -*----------------------------------*\
| =========                 |                                                 |
| \\      /  F ield         | foam-extend: Open Source CFD                    |
|  \\    /   O peration     | Version:     5.0                                |
|   \\  /    A nd           | Web:         http://www.foam-extend.org         |
|    \\/     M anipulation  |                                                 |
\*---------------------------------------------------------------------------*/
FoamFile
{
    version     2.0;
    format      ascii;
    class       volScalarField;
    location    "4";
    object      Na.water;
}
// * * * * * * * * * * * * * * * * * * * * * * * * * * * * * * * * * * * * * //

dimensions      [0 0 0 0 0 0 0];

internalField   nonuniform List<scalar> 
100
(
0.00983853
0.0130516
0.0151952
0.0165889
0.0178499
0.0189109
0.0195967
0.0203493
0.0209355
0.0217019
0.0222922
0.0228709
0.0234169
0.023611
0.0241545
0.0245238
0.024768
0.0249957
0.0253422
0.0256863
0.0259088
0.0261883
0.0264659
0.0268419
0.0270349
0.0272894
0.0273829
0.0276107
0.0277925
0.0280257
0.0282527
0.0284543
0.0287079
0.0288509
0.0291754
0.0292089
0.0293462
0.0295937
0.0298128
0.0298969
0.0300858
0.0301591
0.0303118
0.0305297
0.030637
0.0308088
0.0309384
0.0310914
0.0312256
0.0314079
0.0315113
0.0316444
0.0318024
0.0319937
0.0321259
0.0323303
0.0324975
0.0336506
0.0338485
0.0340489
0.0342552
0.0344771
0.0346796
0.0349472
0.0351637
0.0354436
0.0357232
0.0360814
0.036422
0.0368131
0.0372009
0.0375401
0.0380244
0.0384386
0.0388066
0.0391826
0.039456
0.039651
0.0398145
0.0398488
0.0399214
0.0399715
0.039969
0.0399653
0.0399811
0.0399657
0.0400094
0.0399798
0.0400111
0.0399856
0.0400003
0.0400039
0.039976
0.039998
0.0399939
0.0400124
0.0400249
0.0400345
0.0400285
0.0400514
)
;

boundaryField
{
    inlet
    {
        type            fixedValue;
        value           uniform 0;
    }
    outlet
    {
        type            zeroGradient;
    }
    yzfaces
    {
        type            empty;
    }
}


// ************************************************************************* //
