/*--------------------------------*- C++ -*----------------------------------*\
| =========                 |                                                 |
| \\      /  F ield         | foam-extend: Open Source CFD                    |
|  \\    /   O peration     | Version:     5.0                                |
|   \\  /    A nd           | Web:         http://www.foam-extend.org         |
|    \\/     M anipulation  |                                                 |
\*---------------------------------------------------------------------------*/
FoamFile
{
    version     2.0;
    format      ascii;
    class       volScalarField;
    location    "4";
    object      Na.water;
}
// * * * * * * * * * * * * * * * * * * * * * * * * * * * * * * * * * * * * * //

dimensions      [0 0 0 0 0 0 0];

internalField   nonuniform List<scalar> 
100
(
0.00988065
0.0131875
0.0152319
0.0166967
0.0178217
0.0187999
0.0196383
0.0203869
0.0211127
0.0217298
0.0224776
0.02286
0.0233664
0.0236255
0.0240224
0.0242122
0.024785
0.0251339
0.0255563
0.0257346
0.0260348
0.0262068
0.0265267
0.0267722
0.0269414
0.0272454
0.0274313
0.0276716
0.0278805
0.0280164
0.0281908
0.0283794
0.0285434
0.0287481
0.0290571
0.029247
0.0293358
0.0296084
0.0297721
0.0299339
0.0300534
0.0302473
0.0303681
0.030417
0.0306048
0.0307658
0.0309375
0.0309759
0.0312095
0.0313334
0.0314984
0.0316651
0.0318576
0.0320476
0.032157
0.0323451
0.0325497
0.0336684
0.0338799
0.0340696
0.0342812
0.0345041
0.0347189
0.0349601
0.0352069
0.0354461
0.0357527
0.0360824
0.0364226
0.0367763
0.0371711
0.0375764
0.0380342
0.038427
0.03882
0.039182
0.0394221
0.0396252
0.039752
0.0398422
0.0399154
0.039953
0.0399605
0.0399699
0.0399706
0.039959
0.0400045
0.0400351
0.0400324
0.0400108
0.0400204
0.0400005
0.0400154
0.0400388
0.0400454
0.040042
0.0400351
0.039991
0.0400146
0.0399656
)
;

boundaryField
{
    inlet
    {
        type            fixedValue;
        value           uniform 0;
    }
    outlet
    {
        type            zeroGradient;
    }
    yzfaces
    {
        type            empty;
    }
}


// ************************************************************************* //
