/*--------------------------------*- C++ -*----------------------------------*\
| =========                 |                                                 |
| \\      /  F ield         | foam-extend: Open Source CFD                    |
|  \\    /   O peration     | Version:     5.0                                |
|   \\  /    A nd           | Web:         http://www.foam-extend.org         |
|    \\/     M anipulation  |                                                 |
\*---------------------------------------------------------------------------*/
FoamFile
{
    version     2.0;
    format      ascii;
    class       surfaceScalarField;
    location    "4";
    object      phi;
}
// * * * * * * * * * * * * * * * * * * * * * * * * * * * * * * * * * * * * * //

dimensions      [0 3 -1 0 0 0 0];

internalField   nonuniform List<scalar> 
99
(
1.22991e-06
1.21769e-06
1.21691e-06
1.21825e-06
1.21201e-06
1.21615e-06
1.21677e-06
1.21669e-06
1.21617e-06
1.21707e-06
1.21991e-06
1.22207e-06
1.2225e-06
1.21558e-06
1.21162e-06
1.21098e-06
1.21535e-06
1.21653e-06
1.2105e-06
1.21089e-06
1.20865e-06
1.20776e-06
1.21073e-06
1.21194e-06
1.21063e-06
1.21142e-06
1.20944e-06
1.20962e-06
1.21142e-06
1.21149e-06
1.20876e-06
1.21097e-06
1.21317e-06
1.21382e-06
1.20994e-06
1.20886e-06
1.21036e-06
1.21135e-06
1.21287e-06
1.21134e-06
1.2157e-06
1.2162e-06
1.21333e-06
1.21176e-06
1.21244e-06
1.21217e-06
1.20693e-06
1.20628e-06
1.20499e-06
1.20282e-06
1.20142e-06
1.20082e-06
1.19904e-06
1.20018e-06
1.1982e-06
1.19662e-06
1.19761e-06
1.19565e-06
1.19754e-06
1.19795e-06
1.1985e-06
1.19798e-06
1.1983e-06
1.19936e-06
1.20015e-06
1.19937e-06
1.19985e-06
1.19797e-06
1.19829e-06
1.19789e-06
1.1978e-06
1.19872e-06
1.19951e-06
1.2004e-06
1.20036e-06
1.20035e-06
1.19946e-06
1.19882e-06
1.19943e-06
1.19839e-06
1.1978e-06
1.19808e-06
1.19866e-06
1.19896e-06
1.19957e-06
1.20165e-06
1.20085e-06
1.20103e-06
1.19981e-06
1.20083e-06
1.19892e-06
1.19847e-06
1.19887e-06
1.199e-06
1.19965e-06
1.19877e-06
1.19976e-06
1.19986e-06
1.19836e-06
)
;

boundaryField
{
    inlet
    {
        type            calculated;
        value           uniform -1.225e-06;
    }
    outlet
    {
        type            calculated;
        value           uniform 1.19658e-06;
    }
    yzfaces
    {
        type            empty;
    }
}


// ************************************************************************* //
