/*--------------------------------*- C++ -*----------------------------------*\
| =========                 |                                                 |
| \\      /  F ield         | foam-extend: Open Source CFD                    |
|  \\    /   O peration     | Version:     5.0                                |
|   \\  /    A nd           | Web:         http://www.foam-extend.org         |
|    \\/     M anipulation  |                                                 |
\*---------------------------------------------------------------------------*/
FoamFile
{
    version     2.0;
    format      ascii;
    class       surfaceScalarField;
    location    "4";
    object      phi.water;
}
// * * * * * * * * * * * * * * * * * * * * * * * * * * * * * * * * * * * * * //

dimensions      [0 3 -1 0 0 0 0];

internalField   nonuniform List<scalar> 
99
(
1.26724e-07
2.12748e-07
2.9214e-07
3.64619e-07
4.36814e-07
5.17975e-07
5.83003e-07
6.58845e-07
7.18761e-07
7.99501e-07
8.53455e-07
9.18696e-07
9.64129e-07
1.01837e-06
1.06591e-06
1.14577e-06
1.21119e-06
1.25932e-06
1.28948e-06
1.34856e-06
1.39625e-06
1.45845e-06
1.51596e-06
1.56215e-06
1.61881e-06
1.6659e-06
1.72028e-06
1.77433e-06
1.82913e-06
1.88749e-06
1.92741e-06
1.99137e-06
2.05093e-06
2.10581e-06
2.14647e-06
2.19895e-06
2.26147e-06
2.32032e-06
2.38139e-06
2.42391e-06
2.49175e-06
2.53756e-06
2.5753e-06
2.63242e-06
2.6929e-06
2.74427e-06
2.78726e-06
2.85866e-06
2.91829e-06
2.97679e-06
3.04467e-06
3.11198e-06
3.17771e-06
3.25226e-06
3.32138e-06
3.39409e-06
3.48151e-06
3.55627e-06
3.64969e-06
3.74088e-06
3.83492e-06
3.92798e-06
4.03485e-06
4.15015e-06
4.27266e-06
4.39574e-06
4.53102e-06
4.66797e-06
4.82453e-06
4.9867e-06
5.15498e-06
5.3253e-06
5.4865e-06
5.63449e-06
5.75258e-06
5.84419e-06
5.906e-06
5.947e-06
5.97862e-06
5.98929e-06
5.99434e-06
6.00156e-06
6.0094e-06
6.01449e-06
6.02069e-06
6.03016e-06
6.02174e-06
6.02028e-06
6.01578e-06
6.02318e-06
6.01547e-06
6.0144e-06
6.01523e-06
6.01448e-06
6.01805e-06
6.01484e-06
6.02255e-06
6.02327e-06
6.01712e-06
)
;

boundaryField
{
    inlet
    {
        type            fixedValue;
        value           uniform 0;
    }
    outlet
    {
        type            calculated;
        value           uniform 6.01132e-06;
    }
    yzfaces
    {
        type            empty;
    }
}


// ************************************************************************* //
