/*--------------------------------*- C++ -*----------------------------------*\
| =========                 |                                                 |
| \\      /  F ield         | foam-extend: Open Source CFD                    |
|  \\    /   O peration     | Version:     5.0                                |
|   \\  /    A nd           | Web:         http://www.foam-extend.org         |
|    \\/     M anipulation  |                                                 |
\*---------------------------------------------------------------------------*/
FoamFile
{
    version     2.0;
    format      ascii;
    class       volVectorField;
    location    "4";
    object      U.gas;
}
// * * * * * * * * * * * * * * * * * * * * * * * * * * * * * * * * * * * * * //

dimensions      [0 1 -1 0 0 0 0];

internalField   nonuniform List<vector> 
100
(
(0.00659143 0 0)
(0.00723391 0 0)
(0.00771077 0 0)
(0.00813367 0 0)
(0.00851142 0 0)
(0.008876 0 0)
(0.00918428 0 0)
(0.00949621 0 0)
(0.00972886 0 0)
(0.0100193 0 0)
(0.0102061 0 0)
(0.0104358 0 0)
(0.0105844 0 0)
(0.0107395 0 0)
(0.0108427 0 0)
(0.0110458 0 0)
(0.011198 0 0)
(0.0113326 0 0)
(0.0113933 0 0)
(0.0115103 0 0)
(0.0116073 0 0)
(0.0117233 0 0)
(0.0118317 0 0)
(0.0119345 0 0)
(0.0120483 0 0)
(0.0121154 0 0)
(0.0122124 0 0)
(0.0122816 0 0)
(0.0123685 0 0)
(0.0124637 0 0)
(0.0124982 0 0)
(0.0125847 0 0)
(0.012675 0 0)
(0.0127466 0 0)
(0.012774 0 0)
(0.0128083 0 0)
(0.0128713 0 0)
(0.0129285 0 0)
(0.0129877 0 0)
(0.0130063 0 0)
(0.0130734 0 0)
(0.0131127 0 0)
(0.0131263 0 0)
(0.0131476 0 0)
(0.0131684 0 0)
(0.0131863 0 0)
(0.0131771 0 0)
(0.0131811 0 0)
(0.0131722 0 0)
(0.0131585 0 0)
(0.0131485 0 0)
(0.0131364 0 0)
(0.013116 0 0)
(0.0130984 0 0)
(0.0130804 0 0)
(0.013036 0 0)
(0.013003 0 0)
(0.0129473 0 0)
(0.0129058 0 0)
(0.0128568 0 0)
(0.0127913 0 0)
(0.0127044 0 0)
(0.012609 0 0)
(0.0124939 0 0)
(0.012355 0 0)
(0.0121823 0 0)
(0.0119722 0 0)
(0.0117074 0 0)
(0.0113889 0 0)
(0.011006 0 0)
(0.0105412 0 0)
(0.0099932 0 0)
(0.00934922 0 0)
(0.00862781 0 0)
(0.00785581 0 0)
(0.00707952 0 0)
(0.00637658 0 0)
(0.00579062 0 0)
(0.00535125 0 0)
(0.0050488 0 0)
(0.00484703 0 0)
(0.00472508 0 0)
(0.00465275 0 0)
(0.00461065 0 0)
(0.00458681 0 0)
(0.00457533 0 0)
(0.00456841 0 0)
(0.00456255 0 0)
(0.00455812 0 0)
(0.00455476 0 0)
(0.0045513 0 0)
(0.00454799 0 0)
(0.00454809 0 0)
(0.00454779 0 0)
(0.00454961 0 0)
(0.00454939 0 0)
(0.00454857 0 0)
(0.00455222 0 0)
(0.00455071 0 0)
(0.00454421 0 0)
)
;

boundaryField
{
    inlet
    {
        type            fixedValue;
        value           uniform (0.005 0 0);
    }
    outlet
    {
        type            zeroGradient;
    }
    yzfaces
    {
        type            empty;
    }
}


// ************************************************************************* //
