/*--------------------------------*- C++ -*----------------------------------*\
| =========                 |                                                 |
| \\      /  F ield         | foam-extend: Open Source CFD                    |
|  \\    /   O peration     | Version:     5.0                                |
|   \\  /    A nd           | Web:         http://www.foam-extend.org         |
|    \\/     M anipulation  |                                                 |
\*---------------------------------------------------------------------------*/
FoamFile
{
    version     2.0;
    format      ascii;
    class       volVectorField;
    location    "4";
    object      U.gas;
}
// * * * * * * * * * * * * * * * * * * * * * * * * * * * * * * * * * * * * * //

dimensions      [0 1 -1 0 0 0 0];

internalField   nonuniform List<vector> 
100
(
(0.00659163 0 0)
(0.00727819 0 0)
(0.00782726 0 0)
(0.00826998 0 0)
(0.00868516 0 0)
(0.00898658 0 0)
(0.00934781 0 0)
(0.00965447 0 0)
(0.0099958 0 0)
(0.0101847 0 0)
(0.0104191 0 0)
(0.01064 0 0)
(0.0107701 0 0)
(0.0109902 0 0)
(0.0111504 0 0)
(0.0113444 0 0)
(0.0114954 0 0)
(0.0116783 0 0)
(0.0118564 0 0)
(0.0119649 0 0)
(0.0120965 0 0)
(0.012237 0 0)
(0.0123579 0 0)
(0.0124658 0 0)
(0.0125896 0 0)
(0.0126908 0 0)
(0.0128018 0 0)
(0.012904 0 0)
(0.0129756 0 0)
(0.0130343 0 0)
(0.0130975 0 0)
(0.0131609 0 0)
(0.0131881 0 0)
(0.0132642 0 0)
(0.0133002 0 0)
(0.0133705 0 0)
(0.0134211 0 0)
(0.0134678 0 0)
(0.013514 0 0)
(0.013576 0 0)
(0.0135903 0 0)
(0.0136422 0 0)
(0.0136772 0 0)
(0.0136753 0 0)
(0.0136915 0 0)
(0.013715 0 0)
(0.0137406 0 0)
(0.0137524 0 0)
(0.0137622 0 0)
(0.0137281 0 0)
(0.0137007 0 0)
(0.0137027 0 0)
(0.01371 0 0)
(0.0136942 0 0)
(0.0136758 0 0)
(0.0136343 0 0)
(0.0135945 0 0)
(0.0135466 0 0)
(0.0135102 0 0)
(0.0134485 0 0)
(0.0133764 0 0)
(0.013279 0 0)
(0.0131708 0 0)
(0.0130332 0 0)
(0.0128783 0 0)
(0.0126958 0 0)
(0.0124755 0 0)
(0.0122019 0 0)
(0.0118665 0 0)
(0.0114597 0 0)
(0.0109718 0 0)
(0.0103922 0 0)
(0.00971787 0 0)
(0.00895805 0 0)
(0.00815158 0 0)
(0.00734965 0 0)
(0.00662031 0 0)
(0.00602371 0 0)
(0.00557013 0 0)
(0.00525043 0 0)
(0.00504119 0 0)
(0.00491256 0 0)
(0.00483501 0 0)
(0.00478888 0 0)
(0.00476538 0 0)
(0.00475512 0 0)
(0.00474477 0 0)
(0.0047365 0 0)
(0.00473227 0 0)
(0.00473065 0 0)
(0.00473647 0 0)
(0.0047415 0 0)
(0.00474494 0 0)
(0.00475171 0 0)
(0.00475849 0 0)
(0.0047634 0 0)
(0.00476917 0 0)
(0.00477416 0 0)
(0.00477754 0 0)
(0.0047783 0 0)
)
;

boundaryField
{
    inlet
    {
        type            fixedValue;
        value           uniform (0.005 0 0);
    }
    outlet
    {
        type            zeroGradient;
    }
    yzfaces
    {
        type            empty;
    }
}


// ************************************************************************* //
