/*--------------------------------*- C++ -*----------------------------------*\
| =========                 |                                                 |
| \\      /  F ield         | foam-extend: Open Source CFD                    |
|  \\    /   O peration     | Version:     5.0                                |
|   \\  /    A nd           | Web:         http://www.foam-extend.org         |
|    \\/     M anipulation  |                                                 |
\*---------------------------------------------------------------------------*/
FoamFile
{
    version     2.0;
    format      ascii;
    class       volVectorField;
    location    "4";
    object      U.water;
}
// * * * * * * * * * * * * * * * * * * * * * * * * * * * * * * * * * * * * * //

dimensions      [0 1 -1 0 0 0 0];

internalField   nonuniform List<vector> 
100
(
(5.965e-05 0 0)
(0.0001397 0 0)
(0.00020662 0 0)
(0.000268866 0 0)
(0.000327635 0 0)
(0.000389218 0 0)
(0.000449902 0 0)
(0.000505938 0 0)
(0.000562693 0 0)
(0.000617762 0 0)
(0.00067481 0 0)
(0.000722331 0 0)
(0.000769537 0 0)
(0.000809768 0 0)
(0.0008525 0 0)
(0.000901377 0 0)
(0.000960638 0 0)
(0.00100794 0 0)
(0.00104234 0 0)
(0.00107721 0 0)
(0.00112118 0 0)
(0.00116473 0 0)
(0.00121302 0 0)
(0.00125643 0 0)
(0.00129806 0 0)
(0.00134198 0 0)
(0.00138229 0 0)
(0.00142612 0 0)
(0.00147057 0 0)
(0.00151647 0 0)
(0.00155812 0 0)
(0.00159878 0 0)
(0.00164864 0 0)
(0.00169645 0 0)
(0.00173712 0 0)
(0.00177464 0 0)
(0.00182026 0 0)
(0.00186945 0 0)
(0.00191788 0 0)
(0.00196135 0 0)
(0.00200486 0 0)
(0.00205257 0 0)
(0.00208858 0 0)
(0.00212624 0 0)
(0.00217352 0 0)
(0.00222066 0 0)
(0.00226048 0 0)
(0.00230547 0 0)
(0.00235917 0 0)
(0.00240812 0 0)
(0.00245875 0 0)
(0.00251349 0 0)
(0.00256776 0 0)
(0.00262486 0 0)
(0.00268382 0 0)
(0.00274272 0 0)
(0.0028077 0 0)
(0.00287342 0 0)
(0.00294068 0 0)
(0.00301527 0 0)
(0.00309087 0 0)
(0.00316829 0 0)
(0.00325026 0 0)
(0.0033412 0 0)
(0.00343786 0 0)
(0.00353751 0 0)
(0.00364419 0 0)
(0.00375725 0 0)
(0.00387756 0 0)
(0.00400727 0 0)
(0.00414131 0 0)
(0.00427938 0 0)
(0.00441579 0 0)
(0.00454169 0 0)
(0.00464971 0 0)
(0.00473547 0 0)
(0.00479728 0 0)
(0.00483854 0 0)
(0.00486757 0 0)
(0.00488477 0 0)
(0.00489255 0 0)
(0.00489841 0 0)
(0.00490403 0 0)
(0.0049081 0 0)
(0.00491126 0 0)
(0.0049176 0 0)
(0.0049207 0 0)
(0.00491965 0 0)
(0.00491763 0 0)
(0.00491738 0 0)
(0.00491567 0 0)
(0.00491077 0 0)
(0.00491065 0 0)
(0.0049118 0 0)
(0.00491338 0 0)
(0.0049129 0 0)
(0.0049132 0 0)
(0.00491535 0 0)
(0.00491241 0 0)
(0.00490571 0 0)
)
;

boundaryField
{
    inlet
    {
        type            fixedValue;
        value           uniform (0 0 0);
    }
    outlet
    {
        type            zeroGradient;
    }
    yzfaces
    {
        type            empty;
    }
}


// ************************************************************************* //
