/*--------------------------------*- C++ -*----------------------------------*\
| =========                 |                                                 |
| \\      /  F ield         | foam-extend: Open Source CFD                    |
|  \\    /   O peration     | Version:     5.0                                |
|   \\  /    A nd           | Web:         http://www.foam-extend.org         |
|    \\/     M anipulation  |                                                 |
\*---------------------------------------------------------------------------*/
FoamFile
{
    version     2.0;
    format      ascii;
    class       volScalarField;
    location    "9";
    object      alpha.gas;
}
// * * * * * * * * * * * * * * * * * * * * * * * * * * * * * * * * * * * * * //

dimensions      [0 0 0 0 0 0 0];

internalField   nonuniform List<scalar> 
100
(
0.167404
0.15625
0.148402
0.145062
0.13956
0.133393
0.128761
0.125218
0.123737
0.121274
0.118071
0.114108
0.111499
0.108743
0.106366
0.10419
0.101523
0.0994879
0.0976722
0.0956561
0.0942005
0.0928051
0.0913492
0.0898875
0.0887669
0.0879259
0.0874131
0.0868637
0.0863709
0.0857959
0.0854582
0.0847333
0.0837427
0.0831382
0.0821025
0.0810846
0.079925
0.0790873
0.0781741
0.0773324
0.0765491
0.0758843
0.0753645
0.0748815
0.0743305
0.0736714
0.0729869
0.0722202
0.0716068
0.07107
0.0705463
0.0700162
0.0694806
0.0690498
0.0685642
0.0679874
0.0674555
0.0669218
0.0663402
0.0659732
0.0655881
0.065207
0.064653
0.0642137
0.0637906
0.063347
0.0629026
0.0624905
0.0620575
0.0615979
0.0612663
0.060959
0.0604924
0.0600997
0.0597596
0.0594258
0.059068
0.0587034
0.0583316
0.057912
0.0575578
0.0571673
0.0568483
0.056399
0.056081
0.0557718
0.0554936
0.0551949
0.0549913
0.0547163
0.0544372
0.0541343
0.0538807
0.0535247
0.0532152
0.0529301
0.0526727
0.0523862
0.0520732
0.0517564
)
;

boundaryField
{
    inlet
    {
        type            fixedValue;
        value           uniform 0.2;
    }
    outlet
    {
        type            zeroGradient;
    }
    yzfaces
    {
        type            empty;
    }
}


// ************************************************************************* //
