/*--------------------------------*- C++ -*----------------------------------*\
| =========                 |                                                 |
| \\      /  F ield         | foam-extend: Open Source CFD                    |
|  \\    /   O peration     | Version:     5.0                                |
|   \\  /    A nd           | Web:         http://www.foam-extend.org         |
|    \\/     M anipulation  |                                                 |
\*---------------------------------------------------------------------------*/
FoamFile
{
    version     2.0;
    format      ascii;
    class       volScalarField;
    location    "9";
    object      Cl.water;
}
// * * * * * * * * * * * * * * * * * * * * * * * * * * * * * * * * * * * * * //

dimensions      [0 0 0 0 0 0 0];

internalField   nonuniform List<scalar> 
100
(
0.00617997
0.00893578
0.0110912
0.0127605
0.0135385
0.014177
0.0153513
0.0160136
0.0165873
0.0168432
0.0171346
0.0175632
0.0180749
0.0184814
0.0189056
0.0191584
0.0195737
0.0200341
0.0205314
0.0208253
0.0212069
0.0215955
0.0217453
0.0221347
0.0224766
0.0227232
0.0229587
0.0231114
0.0231646
0.0231887
0.0232436
0.0233436
0.0234778
0.023728
0.0238
0.023971
0.0242457
0.0244668
0.0246333
0.0247784
0.0249529
0.0251005
0.0253036
0.0254343
0.0255089
0.0256272
0.0257375
0.0258947
0.0260445
0.0261796
0.0263006
0.0264021
0.0265047
0.0266313
0.0267222
0.0267854
0.0269388
0.0270918
0.027176
0.0273123
0.027396
0.0274992
0.0275358
0.0276667
0.0277975
0.0278652
0.027959
0.0281111
0.0281576
0.0281915
0.0282994
0.0283916
0.0284709
0.0285996
0.0287355
0.0288383
0.0288982
0.0289916
0.0290381
0.029135
0.0292255
0.0292329
0.029325
0.0293559
0.0294369
0.029509
0.0296145
0.0296361
0.0297562
0.0297407
0.0298205
0.0298654
0.0299631
0.0299424
0.0300039
0.0300666
0.0301837
0.0302032
0.0302544
0.0302925
)
;

boundaryField
{
    inlet
    {
        type            fixedValue;
        value           uniform 0;
    }
    outlet
    {
        type            zeroGradient;
    }
    yzfaces
    {
        type            empty;
    }
}


// ************************************************************************* //
