/*--------------------------------*- C++ -*----------------------------------*\
| =========                 |                                                 |
| \\      /  F ield         | foam-extend: Open Source CFD                    |
|  \\    /   O peration     | Version:     5.0                                |
|   \\  /    A nd           | Web:         http://www.foam-extend.org         |
|    \\/     M anipulation  |                                                 |
\*---------------------------------------------------------------------------*/
FoamFile
{
    version     2.0;
    format      ascii;
    class       volScalarField;
    location    "9";
    object      CO2.gas;
}
// * * * * * * * * * * * * * * * * * * * * * * * * * * * * * * * * * * * * * //

dimensions      [0 0 0 0 0 0 0];

internalField   nonuniform List<scalar> 
100
(
0.167078
0.155945
0.148113
0.144779
0.139289
0.133133
0.12851
0.124975
0.123496
0.121038
0.117841
0.113886
0.111282
0.108531
0.106159
0.103988
0.101325
0.0992942
0.097482
0.0954698
0.094017
0.0926244
0.0911713
0.0897124
0.088594
0.0877547
0.0872428
0.0866945
0.0862027
0.0856288
0.0852918
0.0845683
0.0835796
0.0829763
0.0819426
0.0809267
0.0797693
0.0789333
0.0780218
0.0771818
0.0764
0.0757365
0.0752177
0.0747357
0.0741857
0.0735279
0.0728448
0.0720796
0.0714673
0.0709316
0.0704089
0.0698798
0.0693453
0.0689153
0.0684307
0.067855
0.0673242
0.0667915
0.066211
0.0658447
0.0654603
0.0650801
0.0645271
0.0640887
0.0636664
0.0632236
0.0627801
0.0623688
0.0619367
0.061478
0.061147
0.0608403
0.0603746
0.0599826
0.0596432
0.0593101
0.058953
0.0585891
0.058218
0.0577992
0.0574457
0.057056
0.0567376
0.0562892
0.0559718
0.0556632
0.0553856
0.0550874
0.0548842
0.0546098
0.0543312
0.0540289
0.0537758
0.0534204
0.0531115
0.0528271
0.0525702
0.0522841
0.0519718
0.0516556
)
;

boundaryField
{
    inlet
    {
        type            fixedValue;
        value           uniform 0.2;
    }
    outlet
    {
        type            zeroGradient;
    }
    yzfaces
    {
        type            empty;
    }
}


// ************************************************************************* //
