/*--------------------------------*- C++ -*----------------------------------*\
| =========                 |                                                 |
| \\      /  F ield         | foam-extend: Open Source CFD                    |
|  \\    /   O peration     | Version:     5.0                                |
|   \\  /    A nd           | Web:         http://www.foam-extend.org         |
|    \\/     M anipulation  |                                                 |
\*---------------------------------------------------------------------------*/
FoamFile
{
    version     2.0;
    format      ascii;
    class       volScalarField;
    location    "9";
    object      CO2.water;
}
// * * * * * * * * * * * * * * * * * * * * * * * * * * * * * * * * * * * * * //

dimensions      [0 0 0 0 0 0 0];

internalField   nonuniform List<scalar> 
100
(
0.00085612
0.00114908
0.0013552
0.00144293
0.00158742
0.00174941
0.00187106
0.0019641
0.00200302
0.0020677
0.00215183
0.00225591
0.00232444
0.00239683
0.00245925
0.00251639
0.00258645
0.0026399
0.00268759
0.00274055
0.00277878
0.00281542
0.00285366
0.00289206
0.00292149
0.00294357
0.00295704
0.00297147
0.00298442
0.00299952
0.00300839
0.00302743
0.00305344
0.00306932
0.00309652
0.00312326
0.00315371
0.00317572
0.0031997
0.00322181
0.00324238
0.00325984
0.0032735
0.00328618
0.00330065
0.00331796
0.00333594
0.00335608
0.00337219
0.00338629
0.00340004
0.00341397
0.00342803
0.00343935
0.0034521
0.00346725
0.00348122
0.00349524
0.00351051
0.00352015
0.00353027
0.00354027
0.00355483
0.00356636
0.00357748
0.00358913
0.0036008
0.00361162
0.003623
0.00363507
0.00364378
0.00365185
0.0036641
0.00367442
0.00368335
0.00369212
0.00370151
0.00371109
0.00372086
0.00373188
0.00374118
0.00375143
0.00375981
0.00377161
0.00377997
0.00378809
0.00379539
0.00380324
0.00380859
0.00381581
0.00382314
0.0038311
0.00383776
0.00384711
0.00385524
0.00386272
0.00386948
0.00387701
0.00388523
0.00389355
)
;

boundaryField
{
    inlet
    {
        type            fixedValue;
        value           uniform 0;
    }
    outlet
    {
        type            zeroGradient;
    }
    yzfaces
    {
        type            empty;
    }
}


// ************************************************************************* //
