/*--------------------------------*- C++ -*----------------------------------*\
| =========                 |                                                 |
| \\      /  F ield         | foam-extend: Open Source CFD                    |
|  \\    /   O peration     | Version:     5.0                                |
|   \\  /    A nd           | Web:         http://www.foam-extend.org         |
|    \\/     M anipulation  |                                                 |
\*---------------------------------------------------------------------------*/
FoamFile
{
    version     2.0;
    format      ascii;
    class       volScalarField;
    location    "9";
    object      H2O.gas;
}
// * * * * * * * * * * * * * * * * * * * * * * * * * * * * * * * * * * * * * //

dimensions      [0 0 0 0 0 0 0];

internalField   nonuniform List<scalar> 
100
(
0.000326014
0.000304292
0.000289009
0.000282503
0.00027179
0.000259779
0.000250758
0.000243859
0.000240973
0.000236178
0.00022994
0.000222223
0.000217141
0.000211774
0.000207145
0.000202908
0.000197713
0.00019375
0.000190214
0.000186287
0.000183453
0.000180735
0.0001779
0.000175053
0.000172871
0.000171233
0.000170234
0.000169164
0.000168205
0.000167085
0.000166427
0.000165016
0.000163086
0.000161909
0.000159892
0.00015791
0.000155652
0.00015402
0.000152242
0.000150603
0.000149077
0.000147782
0.00014677
0.00014583
0.000144756
0.000143473
0.00014214
0.000140647
0.000139452
0.000138407
0.000137387
0.000136354
0.000135312
0.000134472
0.000133527
0.000132403
0.000131368
0.000130328
0.000129196
0.000128481
0.000127731
0.000126989
0.00012591
0.000125054
0.00012423
0.000123366
0.000122501
0.000121698
0.000120855
0.00011996
0.000119314
0.000118716
0.000117807
0.000117042
0.00011638
0.00011573
0.000115033
0.000114323
0.000113599
0.000112782
0.000112092
0.000111332
0.00011071
0.000109835
0.000109216
0.000108614
0.000108072
0.00010749
0.000107094
0.000106558
0.000106015
0.000105425
0.000104931
0.000104238
0.000103635
0.00010308
0.000102579
0.000102021
0.000101411
0.000100794
)
;

boundaryField
{
    inlet
    {
        type            fixedValue;
        value           uniform 0;
    }
    outlet
    {
        type            zeroGradient;
    }
    yzfaces
    {
        type            empty;
    }
}


// ************************************************************************* //
