/*--------------------------------*- C++ -*----------------------------------*\
| =========                 |                                                 |
| \\      /  F ield         | foam-extend: Open Source CFD                    |
|  \\    /   O peration     | Version:     5.0                                |
|   \\  /    A nd           | Web:         http://www.foam-extend.org         |
|    \\/     M anipulation  |                                                 |
\*---------------------------------------------------------------------------*/
FoamFile
{
    version     2.0;
    format      ascii;
    class       volScalarField;
    location    "9";
    object      H2O.water;
}
// * * * * * * * * * * * * * * * * * * * * * * * * * * * * * * * * * * * * * //

dimensions      [0 0 0 0 0 0 0];

internalField   nonuniform List<scalar> 
100
(
0.0193811
0.0247265
0.0280586
0.0279751
0.0317695
0.0364916
0.0386573
0.0407923
0.0410995
0.0429831
0.0455165
0.0485118
0.0500277
0.0519026
0.0533813
0.0549893
0.0567534
0.0578164
0.0585848
0.0599561
0.0605995
0.0611864
0.0622966
0.0629376
0.0633477
0.0636738
0.0637019
0.0639361
0.0643092
0.0648091
0.0650276
0.0655253
0.0662226
0.0663214
0.0671901
0.0678374
0.0684238
0.0687919
0.0693519
0.0698672
0.0702803
0.0706411
0.0707487
0.0709539
0.0713433
0.0717463
0.0722015
0.0726322
0.0729241
0.0731685
0.0734426
0.0737621
0.074079
0.0742496
0.0745405
0.0749688
0.0751682
0.075386
0.075784
0.0758807
0.0760855
0.0762418
0.0767111
0.0768979
0.0770379
0.0773392
0.0775897
0.0776907
0.0780151
0.0783914
0.0785028
0.078625
0.0789103
0.0790088
0.0790721
0.0791997
0.079445
0.0796149
0.0798804
0.0800791
0.0802529
0.0806115
0.080749
0.0811462
0.0812808
0.0814409
0.0814846
0.0817273
0.0816867
0.081975
0.082097
0.0822919
0.0823534
0.0827275
0.082925
0.0830742
0.0830925
0.0833152
0.0835305
0.0837739
)
;

boundaryField
{
    inlet
    {
        type            fixedValue;
        value           uniform 0;
    }
    outlet
    {
        type            zeroGradient;
    }
    yzfaces
    {
        type            empty;
    }
}


// ************************************************************************* //
