/*--------------------------------*- C++ -*----------------------------------*\
| =========                 |                                                 |
| \\      /  F ield         | foam-extend: Open Source CFD                    |
|  \\    /   O peration     | Version:     5.0                                |
|   \\  /    A nd           | Web:         http://www.foam-extend.org         |
|    \\/     M anipulation  |                                                 |
\*---------------------------------------------------------------------------*/
FoamFile
{
    version     2.0;
    format      ascii;
    class       volScalarField;
    location    "9";
    object      Na.water;
}
// * * * * * * * * * * * * * * * * * * * * * * * * * * * * * * * * * * * * * //

dimensions      [0 0 0 0 0 0 0];

internalField   nonuniform List<scalar> 
100
(
0.00617881
0.00893889
0.011093
0.0127597
0.0135441
0.0141891
0.0153595
0.0160115
0.0165735
0.0168319
0.017126
0.0175608
0.0180742
0.0184763
0.0188877
0.0191455
0.0195635
0.0200217
0.020524
0.0208219
0.0212144
0.0215976
0.0217551
0.0221482
0.0224874
0.0227336
0.0229693
0.0231174
0.0231709
0.0232068
0.0232622
0.0233704
0.0235034
0.0237431
0.0238109
0.0239837
0.0242518
0.0244783
0.024641
0.0248002
0.0249754
0.0251143
0.0253097
0.0254442
0.0255168
0.0256372
0.0257381
0.0258968
0.0260524
0.0261956
0.0263104
0.0264057
0.0265076
0.02663
0.026721
0.0267911
0.0269562
0.0271051
0.0271893
0.0273137
0.0274001
0.0275117
0.0275452
0.0276553
0.0277966
0.0278595
0.0279479
0.0280961
0.0281467
0.028184
0.0282878
0.0283725
0.0284622
0.0286175
0.0287494
0.0288441
0.0288872
0.028979
0.0290291
0.029142
0.0292227
0.0292369
0.0293178
0.0293273
0.0294214
0.0294903
0.0296118
0.0296385
0.0297572
0.0297521
0.0298222
0.0298773
0.029965
0.0299583
0.0300007
0.0300663
0.0301817
0.0302185
0.0302567
0.0302837
)
;

boundaryField
{
    inlet
    {
        type            fixedValue;
        value           uniform 0;
    }
    outlet
    {
        type            zeroGradient;
    }
    yzfaces
    {
        type            empty;
    }
}


// ************************************************************************* //
