/*--------------------------------*- C++ -*----------------------------------*\
| =========                 |                                                 |
| \\      /  F ield         | foam-extend: Open Source CFD                    |
|  \\    /   O peration     | Version:     5.0                                |
|   \\  /    A nd           | Web:         http://www.foam-extend.org         |
|    \\/     M anipulation  |                                                 |
\*---------------------------------------------------------------------------*/
FoamFile
{
    version     2.0;
    format      ascii;
    class       surfaceScalarField;
    location    "9";
    object      phi;
}
// * * * * * * * * * * * * * * * * * * * * * * * * * * * * * * * * * * * * * //

dimensions      [0 3 -1 0 0 0 0];

internalField   nonuniform List<scalar> 
99
(
1.22791e-06
1.22134e-06
1.24109e-06
1.23457e-06
1.23862e-06
1.22408e-06
1.22738e-06
1.2368e-06
1.24083e-06
1.23462e-06
1.22277e-06
1.21127e-06
1.21087e-06
1.20183e-06
1.20781e-06
1.20276e-06
1.20531e-06
1.20316e-06
1.20212e-06
1.20247e-06
1.20284e-06
1.20119e-06
1.20071e-06
1.20033e-06
1.20372e-06
1.20149e-06
1.20022e-06
1.19639e-06
1.2003e-06
1.20544e-06
1.19954e-06
1.1936e-06
1.19579e-06
1.19186e-06
1.19193e-06
1.18965e-06
1.19186e-06
1.19108e-06
1.19192e-06
1.19259e-06
1.19275e-06
1.19156e-06
1.19534e-06
1.19438e-06
1.1928e-06
1.19222e-06
1.19397e-06
1.19401e-06
1.19583e-06
1.19589e-06
1.19996e-06
1.20175e-06
1.20517e-06
1.20485e-06
1.2052e-06
1.20539e-06
1.20121e-06
1.20198e-06
1.20284e-06
1.20256e-06
1.2041e-06
1.20344e-06
1.20435e-06
1.20623e-06
1.20423e-06
1.20445e-06
1.20439e-06
1.20558e-06
1.20283e-06
1.20439e-06
1.20694e-06
1.20341e-06
1.20281e-06
1.2009e-06
1.20001e-06
1.19959e-06
1.20037e-06
1.20078e-06
1.20002e-06
1.2e-06
1.19853e-06
1.19911e-06
1.19534e-06
1.19726e-06
1.19583e-06
1.1978e-06
1.1979e-06
1.19648e-06
1.19593e-06
1.192e-06
1.19319e-06
1.19269e-06
1.18954e-06
1.18901e-06
1.18916e-06
1.18797e-06
1.18497e-06
1.18311e-06
1.18173e-06
)
;

boundaryField
{
    inlet
    {
        type            calculated;
        value           uniform -1.225e-06;
    }
    outlet
    {
        type            calculated;
        value           uniform 1.18214e-06;
    }
    yzfaces
    {
        type            empty;
    }
}


// ************************************************************************* //
