/*--------------------------------*- C++ -*----------------------------------*\
| =========                 |                                                 |
| \\      /  F ield         | foam-extend: Open Source CFD                    |
|  \\    /   O peration     | Version:     5.0                                |
|   \\  /    A nd           | Web:         http://www.foam-extend.org         |
|    \\/     M anipulation  |                                                 |
\*---------------------------------------------------------------------------*/
FoamFile
{
    version     2.0;
    format      ascii;
    class       surfaceScalarField;
    location    "9";
    object      phi.water;
}
// * * * * * * * * * * * * * * * * * * * * * * * * * * * * * * * * * * * * * //

dimensions      [0 3 -1 0 0 0 0];

internalField   nonuniform List<scalar> 
99
(
6.92248e-08
1.14071e-07
1.58941e-07
1.73137e-07
2.04962e-07
2.48361e-07
2.87687e-07
3.25234e-07
3.37996e-07
3.58542e-07
3.87352e-07
4.32167e-07
4.65509e-07
5.00022e-07
5.37592e-07
5.68601e-07
6.14963e-07
6.49607e-07
6.82812e-07
7.24721e-07
7.55454e-07
7.84751e-07
8.1685e-07
8.52305e-07
8.83652e-07
9.04137e-07
9.15786e-07
9.27715e-07
9.43827e-07
9.64111e-07
9.67324e-07
9.81761e-07
1.01098e-06
1.02414e-06
1.05456e-06
1.08427e-06
1.1247e-06
1.14935e-06
1.18285e-06
1.21188e-06
1.24091e-06
1.26394e-06
1.28723e-06
1.3043e-06
1.32296e-06
1.34693e-06
1.3754e-06
1.40798e-06
1.43536e-06
1.45827e-06
1.48707e-06
1.51211e-06
1.5394e-06
1.55896e-06
1.5797e-06
1.60744e-06
1.62688e-06
1.653e-06
1.68421e-06
1.70151e-06
1.72301e-06
1.74166e-06
1.77161e-06
1.79631e-06
1.81652e-06
1.83928e-06
1.86404e-06
1.88695e-06
1.90859e-06
1.9379e-06
1.96126e-06
1.9721e-06
1.99755e-06
2.01765e-06
2.03768e-06
2.0556e-06
2.08013e-06
2.10147e-06
2.12301e-06
2.15007e-06
2.16916e-06
2.19508e-06
2.2071e-06
2.24234e-06
2.26048e-06
2.28478e-06
2.30232e-06
2.31965e-06
2.33296e-06
2.34442e-06
2.36602e-06
2.38605e-06
2.39679e-06
2.4211e-06
2.44278e-06
2.46025e-06
2.47183e-06
2.4885e-06
2.50763e-06
)
;

boundaryField
{
    inlet
    {
        type            fixedValue;
        value           uniform 0;
    }
    outlet
    {
        type            calculated;
        value           uniform 2.53192e-06;
    }
    yzfaces
    {
        type            empty;
    }
}


// ************************************************************************* //
