/*--------------------------------*- C++ -*----------------------------------*\
| =========                 |                                                 |
| \\      /  F ield         | foam-extend: Open Source CFD                    |
|  \\    /   O peration     | Version:     5.0                                |
|   \\  /    A nd           | Web:         http://www.foam-extend.org         |
|    \\/     M anipulation  |                                                 |
\*---------------------------------------------------------------------------*/
FoamFile
{
    version     2.0;
    format      ascii;
    class       volVectorField;
    location    "9";
    object      U.gas;
}
// * * * * * * * * * * * * * * * * * * * * * * * * * * * * * * * * * * * * * //

dimensions      [0 1 -1 0 0 0 0];

internalField   nonuniform List<vector> 
100
(
(0.00597423 0 0)
(0.00637696 0 0)
(0.00673441 0 0)
(0.00691388 0 0)
(0.00716585 0 0)
(0.0074432 0 0)
(0.00765007 0 0)
(0.00788383 0 0)
(0.00800539 0 0)
(0.00814609 0 0)
(0.0082827 0 0)
(0.00845513 0 0)
(0.00857537 0 0)
(0.00872523 0 0)
(0.00887365 0 0)
(0.00902734 0 0)
(0.00921333 0 0)
(0.0093598 0 0)
(0.00948119 0 0)
(0.00963425 0 0)
(0.00974364 0 0)
(0.00984715 0 0)
(0.00995446 0 0)
(0.0100684 0 0)
(0.0101668 0 0)
(0.0102357 0 0)
(0.0102573 0 0)
(0.0102814 0 0)
(0.0103213 0 0)
(0.0104094 0 0)
(0.0104289 0 0)
(0.0104444 0 0)
(0.0105173 0 0)
(0.0105532 0 0)
(0.0106321 0 0)
(0.0107075 0 0)
(0.0108083 0 0)
(0.0108789 0 0)
(0.010959 0 0)
(0.0110353 0 0)
(0.0111045 0 0)
(0.011153 0 0)
(0.0112053 0 0)
(0.0112581 0 0)
(0.0112949 0 0)
(0.011345 0 0)
(0.0114105 0 0)
(0.0114872 0 0)
(0.0115421 0 0)
(0.0115935 0 0)
(0.0116559 0 0)
(0.0117289 0 0)
(0.011801 0 0)
(0.0118478 0 0)
(0.011891 0 0)
(0.0119463 0 0)
(0.0119676 0 0)
(0.0119946 0 0)
(0.0120525 0 0)
(0.0120744 0 0)
(0.0121131 0 0)
(0.0121464 0 0)
(0.0122002 0 0)
(0.012244 0 0)
(0.0122749 0 0)
(0.0123006 0 0)
(0.0123356 0 0)
(0.0123709 0 0)
(0.0123961 0 0)
(0.0124247 0 0)
(0.0124615 0 0)
(0.0124756 0 0)
(0.0124985 0 0)
(0.0125092 0 0)
(0.0125135 0 0)
(0.0125291 0 0)
(0.0125564 0 0)
(0.012587 0 0)
(0.0126104 0 0)
(0.012636 0 0)
(0.0126455 0 0)
(0.0126679 0 0)
(0.012665 0 0)
(0.0126919 0 0)
(0.0127009 0 0)
(0.0127207 0 0)
(0.012745 0 0)
(0.0127568 0 0)
(0.0127473 0 0)
(0.0127423 0 0)
(0.0127421 0 0)
(0.0127628 0 0)
(0.0127502 0 0)
(0.0127569 0 0)
(0.012765 0 0)
(0.0127697 0 0)
(0.0127556 0 0)
(0.0127444 0 0)
(0.0127424 0 0)
(0.0127527 0 0)
)
;

boundaryField
{
    inlet
    {
        type            fixedValue;
        value           uniform (0.005 0 0);
    }
    outlet
    {
        type            zeroGradient;
    }
    yzfaces
    {
        type            empty;
    }
}


// ************************************************************************* //
