/*--------------------------------*- C++ -*----------------------------------*\
| =========                 |                                                 |
| \\      /  F ield         | foam-extend: Open Source CFD                    |
|  \\    /   O peration     | Version:     5.0                                |
|   \\  /    A nd           | Web:         http://www.foam-extend.org         |
|    \\/     M anipulation  |                                                 |
\*---------------------------------------------------------------------------*/
FoamFile
{
    version     2.0;
    format      ascii;
    class       volVectorField;
    location    "9";
    object      U.water;
}
// * * * * * * * * * * * * * * * * * * * * * * * * * * * * * * * * * * * * * //

dimensions      [0 1 -1 0 0 0 0];

internalField   nonuniform List<vector> 
100
(
(3.30739e-05 0 0)
(7.53139e-05 0 0)
(0.000109925 0 0)
(0.000137108 0 0)
(0.000155453 0 0)
(0.000184894 0 0)
(0.000218523 0 0)
(0.000248565 0 0)
(0.000271669 0 0)
(0.000285544 0 0)
(0.000306018 0 0)
(0.000333978 0 0)
(0.000367055 0 0)
(0.000394138 0 0)
(0.000423642 0 0)
(0.000452362 0 0)
(0.000482568 0 0)
(0.000516012 0 0)
(0.000544326 0 0)
(0.000573963 0 0)
(0.000604009 0 0)
(0.000628518 0 0)
(0.000653797 0 0)
(0.000681008 0 0)
(0.000708182 0 0)
(0.000729294 0 0)
(0.00074312 0 0)
(0.000752424 0 0)
(0.000763712 0 0)
(0.000777983 0 0)
(0.000789143 0 0)
(0.000796415 0 0)
(0.000812935 0 0)
(0.000831541 0 0)
(0.000848633 0 0)
(0.000873396 0 0)
(0.00090104 0 0)
(0.000928335 0 0)
(0.000951735 0 0)
(0.000977258 0 0)
(0.00100089 0 0)
(0.00102199 0 0)
(0.00104109 0 0)
(0.00105794 0 0)
(0.0010727 0 0)
(0.00108983 0 0)
(0.00111118 0 0)
(0.00113541 0 0)
(0.00116011 0 0)
(0.00118098 0 0)
(0.00120212 0 0)
(0.00122383 0 0)
(0.00124483 0 0)
(0.00126455 0 0)
(0.00128119 0 0)
(0.00130074 0 0)
(0.00132033 0 0)
(0.00133899 0 0)
(0.00136162 0 0)
(0.00138188 0 0)
(0.00139749 0 0)
(0.00141433 0 0)
(0.00143331 0 0)
(0.0014558 0 0)
(0.0014745 0 0)
(0.00149229 0 0)
(0.00151177 0 0)
(0.00153154 0 0)
(0.00154958 0 0)
(0.00156936 0 0)
(0.00159115 0 0)
(0.0016061 0 0)
(0.00162042 0 0)
(0.00163906 0 0)
(0.00165546 0 0)
(0.00167085 0 0)
(0.00168797 0 0)
(0.00170678 0 0)
(0.00172468 0 0)
(0.00174415 0 0)
(0.00176311 0 0)
(0.00178138 0 0)
(0.00179769 0 0)
(0.00181586 0 0)
(0.00183778 0 0)
(0.00185494 0 0)
(0.00187235 0 0)
(0.00188658 0 0)
(0.00189988 0 0)
(0.00190974 0 0)
(0.0019229 0 0)
(0.00193959 0 0)
(0.00195282 0 0)
(0.00196639 0 0)
(0.00198515 0 0)
(0.00200146 0 0)
(0.00201371 0 0)
(0.00202511 0 0)
(0.00203951 0 0)
(0.00205615 0 0)
)
;

boundaryField
{
    inlet
    {
        type            fixedValue;
        value           uniform (0 0 0);
    }
    outlet
    {
        type            zeroGradient;
    }
    yzfaces
    {
        type            empty;
    }
}


// ************************************************************************* //
