/*--------------------------------*- C++ -*----------------------------------*\
| =========                 |                                                 |
| \\      /  F ield         | foam-extend: Open Source CFD                    |
|  \\    /   O peration     | Version:     5.0                                |
|   \\  /    A nd           | Web:         http://www.foam-extend.org         |
|    \\/     M anipulation  |                                                 |
\*---------------------------------------------------------------------------*/
FoamFile
{
    version     2.0;
    format      ascii;
    class       volScalarField;
    location    "3";
    object      Cl.water;
}
// * * * * * * * * * * * * * * * * * * * * * * * * * * * * * * * * * * * * * //

dimensions      [0 0 0 0 0 0 0];

internalField   nonuniform List<scalar> 
100
(
0.00621315
0.0082544
0.00947712
0.0103867
0.0110895
0.0116729
0.01216
0.0125856
0.0130224
0.0133528
0.0136614
0.0139362
0.0142144
0.0144565
0.0146824
0.0149133
0.015159
0.0154089
0.0156491
0.0158687
0.016068
0.0163787
0.0166118
0.0169265
0.0173748
0.0179249
0.0188424
0.020579
0.0209694
0.0211547
0.0211605
0.0211159
0.0210762
0.0210459
0.0210386
0.0210299
0.0210346
0.0210414
0.0210492
0.0210654
0.0211047
0.0211455
0.0212102
0.021242
0.0213256
0.021418
0.0215079
0.0216496
0.0217928
0.0219244
0.0221221
0.0222942
0.0224704
0.0226084
0.0227369
0.0228255
0.0228908
0.0229508
0.0229605
0.022991
0.0230034
0.0230176
0.0229995
0.0229924
0.0229957
0.0229926
0.0229988
0.0229943
0.0229867
0.0229922
0.0229901
0.0229839
0.0229729
0.02298
0.0229866
0.0229794
0.0229993
0.022981
0.0229874
0.0229763
0.0229763
0.0229877
0.0229873
0.0229907
0.0229984
0.0229851
0.022989
0.0229909
0.0229843
0.0230008
0.0230129
0.0229964
0.0230076
0.0230195
0.0230165
0.0230331
0.0230126
0.0230198
0.0230211
0.022995
)
;

boundaryField
{
    inlet
    {
        type            fixedValue;
        value           uniform 0;
    }
    outlet
    {
        type            zeroGradient;
    }
    yzfaces
    {
        type            empty;
    }
}


// ************************************************************************* //
