/*--------------------------------*- C++ -*----------------------------------*\
| =========                 |                                                 |
| \\      /  F ield         | foam-extend: Open Source CFD                    |
|  \\    /   O peration     | Version:     5.0                                |
|   \\  /    A nd           | Web:         http://www.foam-extend.org         |
|    \\/     M anipulation  |                                                 |
\*---------------------------------------------------------------------------*/
FoamFile
{
    version     2.0;
    format      ascii;
    class       volScalarField;
    location    "3";
    object      H2O.gas;
}
// * * * * * * * * * * * * * * * * * * * * * * * * * * * * * * * * * * * * * //

dimensions      [0 0 0 0 0 0 0];

internalField   nonuniform List<scalar> 
100
(
0.000283875
0.000173387
0.000148611
0.000124636
0.000102038
8.24989e-05
6.74684e-05
5.7614e-05
5.35041e-05
5.34533e-05
5.624e-05
6.11029e-05
6.75955e-05
7.42613e-05
8.03325e-05
8.58565e-05
9.06655e-05
0.000102681
0.000124191
0.000120414
0.000110305
0.000111777
0.000105803
0.000101198
9.48115e-05
8.53257e-05
6.94148e-05
3.81086e-05
0.00108738
0.00212406
0.00326124
0.00451677
0.00588305
0.00733806
0.0088645
0.0104206
0.0119727
0.0134843
0.0149286
0.0162762
0.0175064
0.0185765
0.0194763
0.0201145
0.0205401
0.0206938
0.0205472
0.020137
0.0194258
0.0184182
0.0172355
0.0159156
0.0145879
0.0133604
0.0123331
0.0115419
0.0109854
0.0106162
0.0103712
0.0102305
0.0101397
0.010091
0.0100487
0.0100273
0.0100169
0.0100072
0.0100058
0.00999945
0.00999599
0.00999586
0.00999673
0.00999244
0.00998625
0.00998798
0.00999112
0.00999011
0.00999981
0.00999485
0.00999914
0.00999879
0.0100005
0.010003
0.0100027
0.0100043
0.010006
0.00999708
0.0100016
0.0100027
0.00999704
0.01
0.0100056
0.00999613
0.0100006
0.010007
0.0100079
0.0100143
0.0100067
0.0100076
0.0100074
0.0100016
)
;

boundaryField
{
    inlet
    {
        type            fixedValue;
        value           uniform 0;
    }
    outlet
    {
        type            zeroGradient;
    }
    yzfaces
    {
        type            empty;
    }
}


// ************************************************************************* //
