/*--------------------------------*- C++ -*----------------------------------*\
| =========                 |                                                 |
| \\      /  F ield         | foam-extend: Open Source CFD                    |
|  \\    /   O peration     | Version:     5.0                                |
|   \\  /    A nd           | Web:         http://www.foam-extend.org         |
|    \\/     M anipulation  |                                                 |
\*---------------------------------------------------------------------------*/
FoamFile
{
    version     2.0;
    format      ascii;
    class       volScalarField;
    location    "3";
    object      Na.water;
}
// * * * * * * * * * * * * * * * * * * * * * * * * * * * * * * * * * * * * * //

dimensions      [0 0 0 0 0 0 0];

internalField   nonuniform List<scalar> 
100
(
0.00621402
0.00825589
0.00947718
0.0103928
0.0110962
0.0116712
0.0121573
0.0125791
0.0130115
0.0133401
0.0136565
0.0139398
0.0142245
0.0144685
0.0146878
0.0149218
0.0151663
0.0154123
0.0156363
0.0158584
0.0160582
0.0163596
0.0166017
0.0169262
0.0173695
0.0179182
0.018837
0.0205755
0.0209686
0.0211528
0.0211638
0.0211213
0.0210848
0.0210536
0.02105
0.0210511
0.0210506
0.0210538
0.021059
0.0210727
0.0211079
0.0211444
0.0212043
0.0212331
0.0213136
0.0214064
0.0215016
0.0216312
0.0217774
0.0219124
0.022112
0.022287
0.0224667
0.0226081
0.0227335
0.0228276
0.0228847
0.0229454
0.0229623
0.0229874
0.0229946
0.0230191
0.0229995
0.0229951
0.0230028
0.0230079
0.0230138
0.0230105
0.0230072
0.0230174
0.0230191
0.0230159
0.0229996
0.0229983
0.0230005
0.0229845
0.0230096
0.0230003
0.0230088
0.0230038
0.0230098
0.0230113
0.0230122
0.0230162
0.0230224
0.022997
0.0230093
0.0230087
0.0229965
0.0229993
0.0230069
0.0229871
0.022994
0.023011
0.0230154
0.023033
0.0230116
0.0230163
0.0230173
0.023018
)
;

boundaryField
{
    inlet
    {
        type            fixedValue;
        value           uniform 0;
    }
    outlet
    {
        type            zeroGradient;
    }
    yzfaces
    {
        type            empty;
    }
}


// ************************************************************************* //
