/*--------------------------------*- C++ -*----------------------------------*\
| =========                 |                                                 |
| \\      /  F ield         | foam-extend: Open Source CFD                    |
|  \\    /   O peration     | Version:     5.0                                |
|   \\  /    A nd           | Web:         http://www.foam-extend.org         |
|    \\/     M anipulation  |                                                 |
\*---------------------------------------------------------------------------*/
FoamFile
{
    version     2.0;
    format      ascii;
    class       volScalarField;
    location    "5";
    object      alpha.gas;
}
// * * * * * * * * * * * * * * * * * * * * * * * * * * * * * * * * * * * * * //

dimensions      [0 0 0 0 0 0 0];

internalField   nonuniform List<scalar> 
100
(
0.156998
0.142068
0.134198
0.126753
0.122047
0.114563
0.109758
0.105414
0.102225
0.0993616
0.0963687
0.0934391
0.0911565
0.0886794
0.0866271
0.084447
0.083066
0.0815255
0.0801703
0.0785893
0.0770924
0.0755687
0.0743668
0.0731441
0.0718536
0.0706
0.0693891
0.0681697
0.06683
0.0653836
0.063996
0.0627792
0.0612818
0.0598664
0.0581328
0.0560467
0.0537869
0.0506617
0.0463525
0.0395725
0.0271158
0.0320987
0.033707
0.0344082
0.0346563
0.0346526
0.034525
0.0343598
0.0341663
0.0340017
0.0338232
0.0336895
0.0336089
0.0335432
0.0334867
0.0334865
0.0334964
0.033528
0.0335903
0.0336606
0.0337302
0.0337735
0.0338318
0.0338746
0.0338843
0.0338869
0.0338558
0.0337947
0.0336682
0.0335024
0.0332981
0.0330389
0.0327162
0.0323323
0.0318546
0.0313022
0.0306674
0.0299337
0.0291012
0.0281523
0.0270633
0.025849
0.0244597
0.0229139
0.0212278
0.0194311
0.0175924
0.0158166
0.0142159
0.0128943
0.0118961
0.011198
0.0107382
0.0104405
0.0102685
0.0101606
0.0100971
0.0100618
0.0100361
0.0100232
)
;

boundaryField
{
    inlet
    {
        type            fixedValue;
        value           uniform 0.2;
    }
    outlet
    {
        type            zeroGradient;
    }
    yzfaces
    {
        type            empty;
    }
}


// ************************************************************************* //
