/*--------------------------------*- C++ -*----------------------------------*\
| =========                 |                                                 |
| \\      /  F ield         | foam-extend: Open Source CFD                    |
|  \\    /   O peration     | Version:     5.0                                |
|   \\  /    A nd           | Web:         http://www.foam-extend.org         |
|    \\/     M anipulation  |                                                 |
\*---------------------------------------------------------------------------*/
FoamFile
{
    version     2.0;
    format      ascii;
    class       volScalarField;
    location    "5";
    object      Cl.water;
}
// * * * * * * * * * * * * * * * * * * * * * * * * * * * * * * * * * * * * * //

dimensions      [0 0 0 0 0 0 0];

internalField   nonuniform List<scalar> 
100
(
0.0049262
0.00661852
0.0075372
0.00841088
0.00892317
0.00980921
0.0103469
0.0108301
0.0112128
0.0115064
0.0118516
0.0121784
0.0124469
0.0126742
0.0129463
0.0131846
0.0133964
0.0135586
0.0137207
0.0139087
0.0140837
0.014287
0.0144227
0.0145716
0.0147
0.0148524
0.0149855
0.0151205
0.0152785
0.0154431
0.0155836
0.0157542
0.0159263
0.0160742
0.0162862
0.0165216
0.016773
0.0171091
0.0175855
0.0183052
0.0196141
0.0193476
0.0191058
0.0190231
0.0189804
0.0189938
0.0190022
0.0190165
0.0190386
0.0190598
0.0190778
0.0190994
0.019107
0.0191069
0.0191219
0.01912
0.0191215
0.0191261
0.0191108
0.0190961
0.019086
0.0190968
0.0190803
0.0190746
0.0190921
0.0190822
0.0190752
0.0190846
0.0191082
0.019122
0.0191461
0.0191747
0.0192056
0.0192514
0.0193098
0.0193702
0.0194436
0.0195279
0.0196315
0.0197378
0.0198529
0.0200046
0.0201568
0.0203228
0.020517
0.0207238
0.020938
0.0211394
0.0213334
0.0214893
0.0215971
0.0216678
0.0217332
0.0217745
0.0217832
0.0217901
0.0218008
0.0218109
0.0218228
0.021829
)
;

boundaryField
{
    inlet
    {
        type            fixedValue;
        value           uniform 0;
    }
    outlet
    {
        type            zeroGradient;
    }
    yzfaces
    {
        type            empty;
    }
}


// ************************************************************************* //
