/*--------------------------------*- C++ -*----------------------------------*\
| =========                 |                                                 |
| \\      /  F ield         | foam-extend: Open Source CFD                    |
|  \\    /   O peration     | Version:     5.0                                |
|   \\  /    A nd           | Web:         http://www.foam-extend.org         |
|    \\/     M anipulation  |                                                 |
\*---------------------------------------------------------------------------*/
FoamFile
{
    version     2.0;
    format      ascii;
    class       volScalarField;
    location    "5";
    object      CO2.water;
}
// * * * * * * * * * * * * * * * * * * * * * * * * * * * * * * * * * * * * * //

dimensions      [0 0 0 0 0 0 0];

internalField   nonuniform List<scalar> 
100
(
0.00112699
0.00151295
0.00172367
0.0019237
0.00204096
0.00224354
0.00236702
0.00247675
0.0025638
0.00263122
0.00271142
0.00278543
0.00284649
0.00289812
0.00296233
0.0030146
0.00306143
0.00309991
0.00313728
0.00317934
0.00322065
0.00326701
0.00329618
0.00333153
0.00336176
0.00339733
0.00342723
0.00345913
0.00349377
0.00353182
0.00356389
0.00360386
0.0036432
0.00367688
0.00372489
0.00377871
0.00383624
0.0039138
0.0040222
0.00418617
0.00448573
0.00121135
0.000348129
0.000107555
3.54008e-05
1.21867e-05
4.31171e-06
1.54624e-06
5.56125e-07
1.99167e-07
7.05731e-08
2.46487e-08
8.44419e-09
2.8224e-09
9.1388e-10
2.84144e-10
8.42515e-11
2.38947e-11
6.53983e-12
1.74571e-12
4.57901e-13
1.18754e-13
3.05228e-14
7.76443e-15
1.93027e-15
4.69954e-16
1.09087e-16
2.29358e-17
3.81234e-18
2.28956e-18
9.33762e-18
1.47632e-17
1.57994e-17
1.39272e-17
1.10236e-17
8.18152e-18
5.83197e-18
4.04486e-18
2.75109e-18
1.8423e-18
1.21813e-18
7.96542e-19
5.14644e-19
3.28954e-19
2.07822e-19
1.29601e-19
7.96205e-20
4.81327e-20
2.85683e-20
1.66329e-20
9.48704e-21
5.3038e-21
2.9068e-21
1.56427e-21
8.28434e-22
4.31796e-22
2.219e-22
1.1244e-22
5.61877e-23
2.74694e-23
)
;

boundaryField
{
    inlet
    {
        type            fixedValue;
        value           uniform 0;
    }
    outlet
    {
        type            zeroGradient;
    }
    yzfaces
    {
        type            empty;
    }
}


// ************************************************************************* //
