/*--------------------------------*- C++ -*----------------------------------*\
| =========                 |                                                 |
| \\      /  F ield         | foam-extend: Open Source CFD                    |
|  \\    /   O peration     | Version:     5.0                                |
|   \\  /    A nd           | Web:         http://www.foam-extend.org         |
|    \\/     M anipulation  |                                                 |
\*---------------------------------------------------------------------------*/
FoamFile
{
    version     2.0;
    format      ascii;
    class       volScalarField;
    location    "5";
    object      CO2.gas;
}
// * * * * * * * * * * * * * * * * * * * * * * * * * * * * * * * * * * * * * //

dimensions      [0 0 0 0 0 0 0];

internalField   nonuniform List<scalar> 
100
(
0.156653
0.14125
0.133773
0.126506
0.12181
0.11434
0.109403
0.104895
0.101868
0.0987158
0.0957512
0.0927931
0.0905948
0.087717
0.0859685
0.0837272
0.0826556
0.0810684
0.0797606
0.078194
0.0767671
0.0753983
0.0741629
0.0730016
0.0716325
0.0704625
0.0691913
0.0679591
0.0666388
0.065192
0.0637244
0.0626569
0.0611625
0.0596833
0.0580196
0.0559376
0.0536822
0.0505631
0.0462622
0.0394954
0.027063
0.0319025
0.0335465
0.0341844
0.0343642
0.0342225
0.0339456
0.033594
0.0331525
0.0326836
0.0321508
0.0315851
0.031012
0.0303893
0.0296775
0.0289492
0.0281491
0.027287
0.0263868
0.0254205
0.0243786
0.0232329
0.0220713
0.0208437
0.0195331
0.0182156
0.0168687
0.0154949
0.014103
0.0127297
0.0113792
0.0100684
0.00881516
0.00762292
0.00650097
0.00546847
0.00452631
0.00368058
0.00293026
0.00228098
0.00172812
0.00126734
0.000895375
0.000604085
0.000384658
0.000228572
0.000124932
6.19256e-05
2.74805e-05
1.08788e-05
3.85334e-06
1.23375e-06
3.62059e-07
9.84613e-08
2.50679e-08
5.79129e-09
1.12988e-09
1.32506e-10
0
0
)
;

boundaryField
{
    inlet
    {
        type            fixedValue;
        value           uniform 0.2;
    }
    outlet
    {
        type            zeroGradient;
    }
    yzfaces
    {
        type            empty;
    }
}


// ************************************************************************* //
