/*--------------------------------*- C++ -*----------------------------------*\
| =========                 |                                                 |
| \\      /  F ield         | foam-extend: Open Source CFD                    |
|  \\    /   O peration     | Version:     5.0                                |
|   \\  /    A nd           | Web:         http://www.foam-extend.org         |
|    \\/     M anipulation  |                                                 |
\*---------------------------------------------------------------------------*/
FoamFile
{
    version     2.0;
    format      ascii;
    class       volScalarField;
    location    "5";
    object      H2O.gas;
}
// * * * * * * * * * * * * * * * * * * * * * * * * * * * * * * * * * * * * * //

dimensions      [0 0 0 0 0 0 0];

internalField   nonuniform List<scalar> 
100
(
1.87508e-06
7.03721e-06
5.66654e-05
0.000246847
0.000237684
0.000223109
0.000206052
0.000199745
0.000195141
0.000190485
0.00018483
0.00017833
0.00017226
0.000164021
0.000157306
0.000151909
0.000149823
0.000147933
0.000144993
0.000139987
0.000134289
0.000141509
0.000135445
0.000142446
0.000130765
0.000137491
0.000131732
0.000129409
0.000126955
0.00012535
0.000123128
0.000122261
0.000119345
0.000116138
0.000113212
0.000109149
0.000104749
9.86622e-05
9.02701e-05
7.70663e-05
5.28073e-05
9.63561e-05
0.000145029
0.000210342
0.000299433
0.000417992
0.000572484
0.000769992
0.0010148
0.00131497
0.00167397
0.00209865
0.00259422
0.00316494
0.00380919
0.004538
0.00534375
0.00622672
0.0072007
0.00824807
0.00936367
0.0105282
0.0117605
0.0130372
0.0143268
0.0156618
0.016992
0.0183016
0.0195564
0.0207742
0.021918
0.0229665
0.023907
0.0247128
0.0253523
0.025835
0.0261418
0.0262592
0.0261626
0.0258679
0.0253412
0.0245761
0.0235645
0.0223167
0.0208477
0.0192038
0.0174655
0.0157544
0.0141844
0.0128783
0.0118915
0.0112007
0.0107371
0.0104358
0.0102692
0.0101656
0.010101
0.0100651
0.0100361
0.0100234
)
;

boundaryField
{
    inlet
    {
        type            fixedValue;
        value           uniform 0;
    }
    outlet
    {
        type            zeroGradient;
    }
    yzfaces
    {
        type            empty;
    }
}


// ************************************************************************* //
