/*--------------------------------*- C++ -*----------------------------------*\
| =========                 |                                                 |
| \\      /  F ield         | foam-extend: Open Source CFD                    |
|  \\    /   O peration     | Version:     5.0                                |
|   \\  /    A nd           | Web:         http://www.foam-extend.org         |
|    \\/     M anipulation  |                                                 |
\*---------------------------------------------------------------------------*/
FoamFile
{
    version     2.0;
    format      ascii;
    class       volScalarField;
    location    "5";
    object      Na.water;
}
// * * * * * * * * * * * * * * * * * * * * * * * * * * * * * * * * * * * * * //

dimensions      [0 0 0 0 0 0 0];

internalField   nonuniform List<scalar> 
100
(
0.00492816
0.0066138
0.0075346
0.00841071
0.00892378
0.00980916
0.0103494
0.0108263
0.0112085
0.0115015
0.0118483
0.0121666
0.0124371
0.0126692
0.0129428
0.0131775
0.0133838
0.0135482
0.0137075
0.0138901
0.0140709
0.0142783
0.0144064
0.0145606
0.0146972
0.0148552
0.0149874
0.0151229
0.0152787
0.0154378
0.0155789
0.0157594
0.0159313
0.016076
0.0162857
0.0165209
0.0167726
0.0171147
0.0175862
0.0183003
0.0196109
0.019346
0.0191062
0.0190233
0.0189848
0.0189961
0.0190103
0.0190207
0.0190471
0.0190694
0.0190853
0.0191048
0.0191116
0.0191093
0.0191209
0.0191221
0.0191236
0.019125
0.0191118
0.0190974
0.0190853
0.0190958
0.0190838
0.0190714
0.019091
0.0190815
0.0190769
0.0190853
0.0191037
0.0191157
0.0191419
0.019177
0.0192061
0.0192523
0.0193099
0.0193727
0.0194445
0.0195223
0.0196319
0.0197363
0.0198556
0.0200033
0.0201596
0.0203342
0.0205313
0.0207444
0.0209594
0.0211615
0.021347
0.0215007
0.021606
0.0216775
0.0217382
0.0217813
0.0217876
0.021785
0.021795
0.0217972
0.0218108
0.0218038
)
;

boundaryField
{
    inlet
    {
        type            fixedValue;
        value           uniform 0;
    }
    outlet
    {
        type            zeroGradient;
    }
    yzfaces
    {
        type            empty;
    }
}


// ************************************************************************* //
