/*--------------------------------*- C++ -*----------------------------------*\
| =========                 |                                                 |
| \\      /  F ield         | foam-extend: Open Source CFD                    |
|  \\    /   O peration     | Version:     5.0                                |
|   \\  /    A nd           | Web:         http://www.foam-extend.org         |
|    \\/     M anipulation  |                                                 |
\*---------------------------------------------------------------------------*/
FoamFile
{
    version     2.0;
    format      ascii;
    class       volScalarField;
    location    "5";
    object      Ns;
}
// * * * * * * * * * * * * * * * * * * * * * * * * * * * * * * * * * * * * * //

dimensions      [0 -3 0 0 1 0 0];

internalField   nonuniform List<scalar> 
100
(
0.347861
0.736055
2.40856
0.154055
9.05161
0.58394
0.465092
0.518905
1.12556
7.73883
0.0844663
0.921074
2.5481
1.05292
0.601859
1.63943
0.00476475
0.0556425
1.97369
0.442416
0.961287
0.00416343
0.253631
0.393465
0.101647
1.82433
1.38643
1.14223
0.383499
0.595543
1.43031
0.25719
0.23878
1.00673
1.67003
3.04014
5.60319
11.9665
18.6915
38.5362
77.3925
167.395
170.999
173.93
176.114
170.935
171.738
168.256
176.72
170.921
173.737
170.377
172.299
176.212
173.524
172.245
168.796
172.323
176.482
168.331
174.745
169.611
175.636
173.064
177.231
170.163
175.405
169.26
175.466
177.469
177.256
173.092
173.105
175.918
177.807
176.444
172.327
172.476
175.262
174.203
172.336
173.723
172.808
175.973
175.682
173.369
172.797
171.622
171.199
173.333
172.519
171.761
172.783
172.516
174.4
173.77
174.033
171.323
170.434
169.733
)
;

boundaryField
{
    inlet
    {
        type            fixedValue;
        value           uniform 0;
    }
    outlet
    {
        type            zeroGradient;
    }
    yzfaces
    {
        type            empty;
    }
}


// ************************************************************************* //
