/*--------------------------------*- C++ -*----------------------------------*\
| =========                 |                                                 |
| \\      /  F ield         | foam-extend: Open Source CFD                    |
|  \\    /   O peration     | Version:     5.0                                |
|   \\  /    A nd           | Web:         http://www.foam-extend.org         |
|    \\/     M anipulation  |                                                 |
\*---------------------------------------------------------------------------*/
FoamFile
{
    version     2.0;
    format      ascii;
    class       surfaceScalarField;
    location    "5";
    object      phi;
}
// * * * * * * * * * * * * * * * * * * * * * * * * * * * * * * * * * * * * * //

dimensions      [0 3 -1 0 0 0 0];

internalField   nonuniform List<scalar> 
99
(
1.22631e-06
1.22415e-06
1.22652e-06
1.22419e-06
1.22325e-06
1.22825e-06
1.22476e-06
1.22895e-06
1.23098e-06
1.21944e-06
1.21666e-06
1.20848e-06
1.20915e-06
1.21164e-06
1.20333e-06
1.20948e-06
1.21182e-06
1.22071e-06
1.21643e-06
1.22054e-06
1.21718e-06
1.22127e-06
1.21854e-06
1.21785e-06
1.21941e-06
1.21864e-06
1.21654e-06
1.21598e-06
1.21824e-06
1.21849e-06
1.21965e-06
1.21554e-06
1.21476e-06
1.21559e-06
1.21298e-06
1.21053e-06
1.20871e-06
1.20455e-06
1.20367e-06
1.20039e-06
1.19247e-06
1.20569e-06
1.2078e-06
1.20951e-06
1.20859e-06
1.21044e-06
1.2111e-06
1.21105e-06
1.2112e-06
1.21121e-06
1.21125e-06
1.21123e-06
1.21041e-06
1.20916e-06
1.21e-06
1.20963e-06
1.20977e-06
1.21126e-06
1.21175e-06
1.21047e-06
1.20912e-06
1.21039e-06
1.20975e-06
1.20973e-06
1.21262e-06
1.21414e-06
1.21273e-06
1.2128e-06
1.21253e-06
1.21298e-06
1.21395e-06
1.2135e-06
1.21251e-06
1.21219e-06
1.2118e-06
1.21243e-06
1.21205e-06
1.21072e-06
1.21266e-06
1.21243e-06
1.21176e-06
1.21226e-06
1.21226e-06
1.21171e-06
1.21018e-06
1.21014e-06
1.21131e-06
1.21079e-06
1.21222e-06
1.21353e-06
1.21393e-06
1.21218e-06
1.21291e-06
1.21585e-06
1.21568e-06
1.21547e-06
1.21305e-06
1.21138e-06
1.21219e-06
)
;

boundaryField
{
    inlet
    {
        type            calculated;
        value           uniform -1.225e-06;
    }
    outlet
    {
        type            calculated;
        value           uniform 1.21144e-06;
    }
    yzfaces
    {
        type            empty;
    }
}


// ************************************************************************* //
