/*--------------------------------*- C++ -*----------------------------------*\
| =========                 |                                                 |
| \\      /  F ield         | foam-extend: Open Source CFD                    |
|  \\    /   O peration     | Version:     5.0                                |
|   \\  /    A nd           | Web:         http://www.foam-extend.org         |
|    \\/     M anipulation  |                                                 |
\*---------------------------------------------------------------------------*/
FoamFile
{
    version     2.0;
    format      ascii;
    class       volVectorField;
    location    "5";
    object      U.gas;
}
// * * * * * * * * * * * * * * * * * * * * * * * * * * * * * * * * * * * * * //

dimensions      [0 1 -1 0 0 0 0];

internalField   nonuniform List<vector> 
100
(
(0.00635936 0 0)
(0.00699229 0 0)
(0.00736858 0 0)
(0.00774826 0 0)
(0.0080116 0 0)
(0.00847036 0 0)
(0.00881647 0 0)
(0.00911738 0 0)
(0.00936453 0 0)
(0.00954038 0 0)
(0.00971571 0 0)
(0.00990226 0 0)
(0.0100471 0 0)
(0.0102668 0 0)
(0.0104065 0 0)
(0.0105833 0 0)
(0.0107228 0 0)
(0.0109096 0 0)
(0.0110442 0 0)
(0.0111882 0 0)
(0.0113222 0 0)
(0.0114608 0 0)
(0.0115633 0 0)
(0.0116488 0 0)
(0.0117753 0 0)
(0.0118816 0 0)
(0.0119781 0 0)
(0.0120679 0 0)
(0.0121959 0 0)
(0.0123364 0 0)
(0.0124546 0 0)
(0.012519 0 0)
(0.0126147 0 0)
(0.0127472 0 0)
(0.0128751 0 0)
(0.0130006 0 0)
(0.01314 0 0)
(0.0133348 0 0)
(0.0135722 0 0)
(0.0139733 0 0)
(0.0146587 0 0)
(0.0110341 0 0)
(0.0118516 0 0)
(0.0122071 0 0)
(0.012356 0 0)
(0.0124235 0 0)
(0.0124526 0 0)
(0.0124417 0 0)
(0.0124221 0 0)
(0.0123934 0 0)
(0.0123712 0 0)
(0.0123419 0 0)
(0.0123134 0 0)
(0.0122878 0 0)
(0.0122737 0 0)
(0.0122637 0 0)
(0.0122623 0 0)
(0.0122667 0 0)
(0.0122787 0 0)
(0.0122844 0 0)
(0.0122808 0 0)
(0.0122936 0 0)
(0.0123016 0 0)
(0.0123076 0 0)
(0.0123305 0 0)
(0.0123548 0 0)
(0.0123615 0 0)
(0.0123544 0 0)
(0.012352 0 0)
(0.0123404 0 0)
(0.0123268 0 0)
(0.0123029 0 0)
(0.0122634 0 0)
(0.0122133 0 0)
(0.0121557 0 0)
(0.0120827 0 0)
(0.0119931 0 0)
(0.0118741 0 0)
(0.0117382 0 0)
(0.0115786 0 0)
(0.0113684 0 0)
(0.0111097 0 0)
(0.0108027 0 0)
(0.0104099 0 0)
(0.00992611 0 0)
(0.00935309 0 0)
(0.0087025 0 0)
(0.00798265 0 0)
(0.00724128 0 0)
(0.00654428 0 0)
(0.00594866 0 0)
(0.00548498 0 0)
(0.00515724 0 0)
(0.0049498 0 0)
(0.00481673 0 0)
(0.00473704 0 0)
(0.00468233 0 0)
(0.00464463 0 0)
(0.00462615 0 0)
(0.00461532 0 0)
)
;

boundaryField
{
    inlet
    {
        type            fixedValue;
        value           uniform (0.005 0 0);
    }
    outlet
    {
        type            zeroGradient;
    }
    yzfaces
    {
        type            empty;
    }
}


// ************************************************************************* //
