/*--------------------------------*- C++ -*----------------------------------*\
| =========                 |                                                 |
| \\      /  F ield         | foam-extend: Open Source CFD                    |
|  \\    /   O peration     | Version:     5.0                                |
|   \\  /    A nd           | Web:         http://www.foam-extend.org         |
|    \\/     M anipulation  |                                                 |
\*---------------------------------------------------------------------------*/
FoamFile
{
    version     2.0;
    format      ascii;
    class       volVectorField;
    location    "5";
    object      U.water;
}
// * * * * * * * * * * * * * * * * * * * * * * * * * * * * * * * * * * * * * //

dimensions      [0 1 -1 0 0 0 0];

internalField   nonuniform List<vector> 
100
(
(4.95359e-05 0 0)
(0.000117496 0 0)
(0.000173647 0 0)
(0.00021852 0 0)
(0.000262479 0 0)
(0.000309572 0 0)
(0.000371804 0 0)
(0.000427271 0 0)
(0.000478293 0 0)
(0.000518939 0 0)
(0.000560033 0 0)
(0.000606166 0 0)
(0.000651681 0 0)
(0.000697274 0 0)
(0.000742837 0 0)
(0.000788308 0 0)
(0.000834489 0 0)
(0.000873239 0 0)
(0.000912424 0 0)
(0.000950584 0 0)
(0.000993704 0 0)
(0.00103841 0 0)
(0.00108186 0 0)
(0.00111863 0 0)
(0.00116043 0 0)
(0.00120456 0 0)
(0.00124643 0 0)
(0.00129103 0 0)
(0.00134044 0 0)
(0.00139646 0 0)
(0.00145671 0 0)
(0.00151159 0 0)
(0.00156495 0 0)
(0.00163304 0 0)
(0.00171204 0 0)
(0.00180329 0 0)
(0.00191417 0 0)
(0.00205795 0 0)
(0.00226689 0 0)
(0.00260378 0 0)
(0.00323983 0 0)
(0.0037204 0 0)
(0.0035216 0 0)
(0.00342187 0 0)
(0.00337941 0 0)
(0.00336778 0 0)
(0.00337487 0 0)
(0.00338773 0 0)
(0.00340255 0 0)
(0.00341777 0 0)
(0.00343206 0 0)
(0.00344522 0 0)
(0.00345322 0 0)
(0.00345679 0 0)
(0.00346165 0 0)
(0.00346481 0 0)
(0.003464 0 0)
(0.00346545 0 0)
(0.00346458 0 0)
(0.00345777 0 0)
(0.00344833 0 0)
(0.00344324 0 0)
(0.00344005 0 0)
(0.00343492 0 0)
(0.00343679 0 0)
(0.00344252 0 0)
(0.00344309 0 0)
(0.00344452 0 0)
(0.00345129 0 0)
(0.00346293 0 0)
(0.00348001 0 0)
(0.00349975 0 0)
(0.00352092 0 0)
(0.00354741 0 0)
(0.00358123 0 0)
(0.00362343 0 0)
(0.00367196 0 0)
(0.00372472 0 0)
(0.00378903 0 0)
(0.00386311 0 0)
(0.00394247 0 0)
(0.00403226 0 0)
(0.00413222 0 0)
(0.00423999 0 0)
(0.0043509 0 0)
(0.00446448 0 0)
(0.00457903 0 0)
(0.00468204 0 0)
(0.00476919 0 0)
(0.00484067 0 0)
(0.0048911 0 0)
(0.0049196 0 0)
(0.00493736 0 0)
(0.00495704 0 0)
(0.00497018 0 0)
(0.00497354 0 0)
(0.00497073 0 0)
(0.00496389 0 0)
(0.00496298 0 0)
(0.00496365 0 0)
)
;

boundaryField
{
    inlet
    {
        type            fixedValue;
        value           uniform (0 0 0);
    }
    outlet
    {
        type            zeroGradient;
    }
    yzfaces
    {
        type            empty;
    }
}


// ************************************************************************* //
