/*--------------------------------*- C++ -*----------------------------------*\
| =========                 |                                                 |
| \\      /  F ield         | foam-extend: Open Source CFD                    |
|  \\    /   O peration     | Version:     5.0                                |
|   \\  /    A nd           | Web:         http://www.foam-extend.org         |
|    \\/     M anipulation  |                                                 |
\*---------------------------------------------------------------------------*/
FoamFile
{
    version     2.0;
    format      ascii;
    class       volScalarField;
    location    "8";
    object      alpha.water;
}
// * * * * * * * * * * * * * * * * * * * * * * * * * * * * * * * * * * * * * //

dimensions      [0 0 0 0 0 0 0];

internalField   nonuniform List<scalar> 
100
(
0.00247744
0.00400779
0.00534624
0.00659155
0.00777206
0.00889922
0.00998073
0.0110246
0.0120321
0.0130087
0.013954
0.0148724
0.015762
0.0166306
0.0174754
0.0182978
0.0190993
0.0198828
0.0206465
0.0213921
0.0221274
0.022843
0.0235406
0.0242288
0.0248985
0.0255599
0.0262
0.02683
0.0274555
0.0280626
0.0286604
0.0292519
0.0298297
0.0303983
0.0309534
0.0315024
0.0320384
0.0325704
0.0330912
0.0336042
0.0341135
0.0346137
0.035104
0.0355808
0.0360555
0.0365304
0.0369893
0.0374475
0.037898
0.0383451
0.0387805
0.0392107
0.0396384
0.0400552
0.0404739
0.04088
0.0412811
0.0416812
0.0420697
0.0424704
0.0428433
0.0432272
0.0436032
0.0439756
0.0443495
0.0447151
0.0450776
0.0454316
0.045789
0.0461291
0.0464674
0.0468048
0.0471416
0.0474757
0.0478039
0.0481283
0.0484451
0.0487608
0.0490799
0.049395
0.0497053
0.0500116
0.0503075
0.0506104
0.0509096
0.0512056
0.0514975
0.0517895
0.0520896
0.0523828
0.0526667
0.0529527
0.0532382
0.0535146
0.0537966
0.0540605
0.0543243
0.0545899
0.0548542
0.0551214
)
;

boundaryField
{
    inlet
    {
        type            fixedValue;
        value           uniform 0;
    }
    outlet
    {
        type            zeroGradient;
    }
    yzfaces
    {
        type            empty;
    }
}


// ************************************************************************* //
