/*--------------------------------*- C++ -*----------------------------------*\
| =========                 |                                                 |
| \\      /  F ield         | foam-extend: Open Source CFD                    |
|  \\    /   O peration     | Version:     5.0                                |
|   \\  /    A nd           | Web:         http://www.foam-extend.org         |
|    \\/     M anipulation  |                                                 |
\*---------------------------------------------------------------------------*/
FoamFile
{
    version     2.0;
    format      ascii;
    class       surfaceScalarField;
    location    "8";
    object      phi;
}
// * * * * * * * * * * * * * * * * * * * * * * * * * * * * * * * * * * * * * //

dimensions      [0 3 -1 0 0 0 0];

internalField   nonuniform List<scalar> 
99
(
0.000122486
0.000122491
0.000122511
0.000122512
0.000122515
0.000122531
0.00012251
0.000122519
0.000122501
0.000122524
0.000122503
0.000122524
0.000122536
0.000122518
0.000122511
0.000122544
0.000122541
0.000122536
0.000122543
0.000122565
0.000122551
0.000122552
0.000122581
0.000122567
0.000122581
0.000122567
0.00012256
0.000122538
0.000122567
0.000122554
0.00012254
0.000122558
0.000122555
0.00012254
0.000122528
0.000122549
0.000122517
0.00012251
0.000122531
0.000122525
0.000122505
0.000122474
0.000122493
0.000122487
0.000122489
0.000122486
0.000122497
0.000122523
0.000122526
0.000122496
0.000122526
0.00012252
0.000122538
0.000122512
0.000122504
0.000122519
0.000122524
0.000122525
0.000122528
0.000122525
0.000122541
0.000122561
0.000122576
0.000122545
0.000122538
0.000122525
0.000122545
0.000122528
0.000122559
0.000122573
0.000122593
0.000122583
0.000122568
0.00012256
0.000122542
0.000122556
0.000122558
0.000122539
0.000122547
0.000122531
0.000122532
0.000122536
0.000122521
0.000122522
0.000122524
0.000122529
0.000122522
0.000122522
0.000122516
0.000122495
0.00012249
0.000122468
0.000122449
0.000122439
0.000122448
0.000122427
0.000122435
0.000122419
0.000122401
)
;

boundaryField
{
    inlet
    {
        type            calculated;
        value           uniform -0.0001225;
    }
    outlet
    {
        type            calculated;
        value           uniform 0.000122392;
    }
    yzfaces
    {
        type            empty;
    }
}


// ************************************************************************* //
