/*--------------------------------*- C++ -*----------------------------------*\
| =========                 |                                                 |
| \\      /  F ield         | foam-extend: Open Source CFD                    |
|  \\    /   O peration     | Version:     5.0                                |
|   \\  /    A nd           | Web:         http://www.foam-extend.org         |
|    \\/     M anipulation  |                                                 |
\*---------------------------------------------------------------------------*/
FoamFile
{
    version     2.0;
    format      ascii;
    class       surfaceScalarField;
    location    "8";
    object      phi.gas;
}
// * * * * * * * * * * * * * * * * * * * * * * * * * * * * * * * * * * * * * //

dimensions      [0 3 -1 0 0 0 0];

internalField   nonuniform List<scalar> 
99
(
0.0006225
0.000627073
0.000631352
0.000635393
0.000639286
0.000643071
0.00064663
0.000650286
0.000653706
0.00065725
0.000660478
0.000663838
0.000667084
0.000670141
0.000673179
0.000676373
0.000679315
0.000682195
0.000685093
0.000688114
0.000690935
0.00069371
0.000696635
0.000699286
0.00070209
0.000704635
0.000707093
0.000709593
0.000712356
0.000714781
0.000717258
0.0007199
0.000722369
0.000724691
0.000726996
0.000729462
0.000731593
0.000733883
0.000736283
0.000738575
0.00074079
0.000742863
0.000745103
0.000747171
0.000749417
0.000751576
0.000753766
0.000756085
0.00075827
0.000760192
0.00076241
0.000764436
0.000766571
0.00076843
0.000770385
0.000772398
0.000774379
0.00077629
0.000778319
0.000780235
0.000782158
0.000784238
0.000786243
0.000788017
0.000789941
0.000791782
0.000793779
0.00079556
0.00079757
0.000799322
0.000801181
0.000802885
0.000804588
0.00080631
0.000807918
0.000809686
0.000811332
0.000812926
0.000814744
0.000816373
0.000818073
0.000819695
0.000821216
0.000822933
0.000824617
0.000826306
0.000827919
0.000829717
0.000831532
0.000833117
0.000834764
0.000836371
0.000837931
0.000839575
0.000841258
0.00084258
0.000844156
0.000845619
0.000847079
)
;

boundaryField
{
    inlet
    {
        type            fixedValue;
        value           uniform -0.0006125;
    }
    outlet
    {
        type            calculated;
        value           uniform 0.000847782;
    }
    yzfaces
    {
        type            empty;
    }
}


// ************************************************************************* //
