/*--------------------------------*- C++ -*----------------------------------*\
| =========                 |                                                 |
| \\      /  F ield         | foam-extend: Open Source CFD                    |
|  \\    /   O peration     | Version:     5.0                                |
|   \\  /    A nd           | Web:         http://www.foam-extend.org         |
|    \\/     M anipulation  |                                                 |
\*---------------------------------------------------------------------------*/
FoamFile
{
    version     2.0;
    format      ascii;
    class       volScalarField;
    location    "7";
    object      alpha.gas;
}
// * * * * * * * * * * * * * * * * * * * * * * * * * * * * * * * * * * * * * //

dimensions      [0 0 0 0 0 0 0];

internalField   nonuniform List<scalar> 
100
(
0.163965
0.150951
0.142098
0.134703
0.128977
0.12428
0.119848
0.115218
0.111577
0.108558
0.106296
0.103971
0.101754
0.0997961
0.0977772
0.0959624
0.0942772
0.0925106
0.0909189
0.0889685
0.0872085
0.08551
0.0838479
0.0830097
0.0822051
0.0809194
0.0800188
0.0790197
0.0779957
0.07715
0.0760484
0.0752582
0.0743865
0.0735745
0.0726161
0.0716825
0.0708108
0.0700261
0.0693674
0.0685078
0.0676096
0.0665872
0.0657165
0.0649888
0.064009
0.0631177
0.0620363
0.0610064
0.0600279
0.0589224
0.0575177
0.0560337
0.0542117
0.051966
0.0488774
0.0439597
0.0353235
0.0170299
0.0313905
0.0309577
0.0308743
0.0309006
0.0309592
0.0310635
0.0311736
0.0313036
0.0314727
0.0316201
0.0317863
0.0319489
0.0321339
0.0322987
0.032454
0.0326062
0.0327604
0.0328858
0.0329987
0.0331198
0.0332087
0.0332869
0.0333345
0.033377
0.0334304
0.0334691
0.0335232
0.0335532
0.0335681
0.033572
0.0336175
0.033624
0.033643
0.0336338
0.033604
0.0335877
0.0335682
0.0335104
0.0334473
0.0333881
0.0332879
0.0331402
)
;

boundaryField
{
    inlet
    {
        type            fixedValue;
        value           uniform 0.2;
    }
    outlet
    {
        type            zeroGradient;
    }
    yzfaces
    {
        type            empty;
    }
}


// ************************************************************************* //
