/*--------------------------------*- C++ -*----------------------------------*\
| =========                 |                                                 |
| \\      /  F ield         | foam-extend: Open Source CFD                    |
|  \\    /   O peration     | Version:     5.0                                |
|   \\  /    A nd           | Web:         http://www.foam-extend.org         |
|    \\/     M anipulation  |                                                 |
\*---------------------------------------------------------------------------*/
FoamFile
{
    version     2.0;
    format      ascii;
    class       volScalarField;
    location    "7";
    object      Cl.water;
}
// * * * * * * * * * * * * * * * * * * * * * * * * * * * * * * * * * * * * * //

dimensions      [0 0 0 0 0 0 0];

internalField   nonuniform List<scalar> 
100
(
0.00412398
0.00563313
0.00662799
0.00741434
0.00807078
0.00862097
0.00909762
0.00955793
0.0100335
0.0104133
0.010735
0.011027
0.0112814
0.0114885
0.0117149
0.0119095
0.0120893
0.0122524
0.0124404
0.0126693
0.012878
0.0130734
0.0132715
0.0134013
0.0135064
0.013611
0.0137418
0.0138411
0.0139792
0.0140964
0.0142363
0.014319
0.014423
0.0145025
0.0146075
0.0147133
0.0148128
0.0149246
0.0149729
0.0150606
0.0151833
0.0152901
0.0154178
0.0154973
0.0156149
0.0156977
0.0158405
0.0159546
0.0160679
0.0161972
0.0163598
0.0165231
0.0167379
0.0169949
0.0173327
0.0178742
0.018792
0.0206213
0.019364
0.0194164
0.0194144
0.0194148
0.0194112
0.0193979
0.0193949
0.0193717
0.0193448
0.0193265
0.0193141
0.0192947
0.0192789
0.0192641
0.0192465
0.0192259
0.0192035
0.0191958
0.0191738
0.0191618
0.0191473
0.0191424
0.019143
0.019132
0.0191256
0.0191274
0.0191156
0.0191167
0.0191135
0.0191114
0.0191035
0.0191013
0.0190925
0.0190988
0.0190953
0.019096
0.0190971
0.0191128
0.0191222
0.0191232
0.0191392
0.01918
)
;

boundaryField
{
    inlet
    {
        type            fixedValue;
        value           uniform 0;
    }
    outlet
    {
        type            zeroGradient;
    }
    yzfaces
    {
        type            empty;
    }
}


// ************************************************************************* //
