/*--------------------------------*- C++ -*----------------------------------*\
| =========                 |                                                 |
| \\      /  F ield         | foam-extend: Open Source CFD                    |
|  \\    /   O peration     | Version:     5.0                                |
|   \\  /    A nd           | Web:         http://www.foam-extend.org         |
|    \\/     M anipulation  |                                                 |
\*---------------------------------------------------------------------------*/
FoamFile
{
    version     2.0;
    format      ascii;
    class       volScalarField;
    location    "7";
    object      CO2.gas;
}
// * * * * * * * * * * * * * * * * * * * * * * * * * * * * * * * * * * * * * //

dimensions      [0 0 0 0 0 0 0];

internalField   nonuniform List<scalar> 
100
(
0.163447
0.150657
0.141424
0.133026
0.127442
0.123115
0.118327
0.113005
0.110182
0.10752
0.105904
0.103768
0.101556
0.0994313
0.0974112
0.0954889
0.0936677
0.0915989
0.0900433
0.088149
0.0864909
0.0848541
0.0832729
0.0826413
0.0818807
0.0803656
0.0796337
0.0785951
0.0776795
0.0769234
0.0759003
0.0750851
0.0742416
0.073368
0.0723837
0.0714442
0.0705714
0.0698897
0.0691208
0.0682099
0.067395
0.0663334
0.0655885
0.0648404
0.0638844
0.0629
0.0619155
0.0608692
0.0598927
0.0588076
0.0574057
0.0559041
0.0540887
0.0518648
0.0487823
0.0438741
0.0352547
0.0169967
0.0313038
0.0308546
0.0307677
0.0307622
0.0307799
0.0308376
0.0308779
0.0309398
0.0310199
0.0310425
0.0310536
0.0310345
0.0310045
0.0309099
0.0307724
0.0305922
0.0303596
0.0300354
0.0296566
0.0292135
0.0286916
0.0280889
0.0273963
0.0266533
0.0258592
0.0249864
0.0240899
0.0231191
0.0221051
0.0210439
0.0199826
0.0188739
0.0177627
0.0166226
0.0154822
0.0143484
0.0132315
0.0121109
0.0110283
0.00999415
0.00898404
0.00800382
)
;

boundaryField
{
    inlet
    {
        type            fixedValue;
        value           uniform 0.2;
    }
    outlet
    {
        type            zeroGradient;
    }
    yzfaces
    {
        type            empty;
    }
}


// ************************************************************************* //
