/*--------------------------------*- C++ -*----------------------------------*\
| =========                 |                                                 |
| \\      /  F ield         | foam-extend: Open Source CFD                    |
|  \\    /   O peration     | Version:     5.0                                |
|   \\  /    A nd           | Web:         http://www.foam-extend.org         |
|    \\/     M anipulation  |                                                 |
\*---------------------------------------------------------------------------*/
FoamFile
{
    version     2.0;
    format      ascii;
    class       volScalarField;
    location    "7";
    object      CO2.water;
}
// * * * * * * * * * * * * * * * * * * * * * * * * * * * * * * * * * * * * * //

dimensions      [0 0 0 0 0 0 0];

internalField   nonuniform List<scalar> 
100
(
0.000943386
0.0012878
0.00151592
0.00169647
0.0018462
0.00197254
0.00208092
0.00218648
0.00229545
0.00238118
0.00245444
0.00252171
0.00257942
0.00262742
0.00268024
0.00272491
0.00276357
0.00280031
0.00284231
0.00289575
0.00294373
0.00298959
0.00303446
0.00306447
0.00308758
0.00311204
0.00314292
0.00316654
0.00319899
0.00322357
0.0032555
0.00327492
0.00329916
0.0033172
0.00334066
0.00336535
0.00338816
0.00341366
0.00342497
0.00344529
0.00347315
0.00349737
0.0035267
0.00354619
0.00357173
0.00358935
0.00362306
0.00364949
0.00367452
0.00370474
0.00374181
0.00377967
0.00382807
0.00388693
0.00396498
0.00408919
0.00429888
0.00471774
0.000699282
0.000238143
7.86823e-05
2.57097e-05
8.37361e-06
2.72506e-06
8.85734e-07
2.87537e-07
9.31772e-08
3.01516e-08
9.76236e-09
3.16188e-09
1.02547e-09
3.32969e-10
1.08371e-10
3.53567e-11
1.15674e-11
3.79065e-12
1.24457e-12
4.0936e-13
1.34927e-13
4.45461e-14
1.47359e-14
4.88339e-15
1.61903e-15
5.3685e-16
1.7814e-16
5.951e-17
2.03623e-17
7.40507e-18
3.03254e-18
1.46617e-18
8.32397e-19
5.25112e-19
3.48164e-19
2.34425e-19
1.57654e-19
1.0542e-19
7.00121e-20
4.61827e-20
3.02881e-20
1.97677e-20
)
;

boundaryField
{
    inlet
    {
        type            fixedValue;
        value           uniform 0;
    }
    outlet
    {
        type            zeroGradient;
    }
    yzfaces
    {
        type            empty;
    }
}


// ************************************************************************* //
