/*--------------------------------*- C++ -*----------------------------------*\
| =========                 |                                                 |
| \\      /  F ield         | foam-extend: Open Source CFD                    |
|  \\    /   O peration     | Version:     5.0                                |
|   \\  /    A nd           | Web:         http://www.foam-extend.org         |
|    \\/     M anipulation  |                                                 |
\*---------------------------------------------------------------------------*/
FoamFile
{
    version     2.0;
    format      ascii;
    class       volScalarField;
    location    "7";
    object      H2O.gas;
}
// * * * * * * * * * * * * * * * * * * * * * * * * * * * * * * * * * * * * * //

dimensions      [0 0 0 0 0 0 0];

internalField   nonuniform List<scalar> 
100
(
7.87789e-07
0.000293973
0.000206301
0.000188108
0.000170087
0.00015235
0.000135384
0.000120452
0.000110033
0.000101581
9.73807e-05
0.00020248
0.000198164
0.000178321
0.00017216
0.00016734
0.000163308
0.000159151
0.000156472
0.000153758
0.000151938
0.000150533
0.000149426
0.000150296
0.000150887
0.000149743
0.000149767
0.000149013
0.000148153
0.000147525
0.000148102
0.000145444
0.000144866
0.000142147
0.000140439
0.000138839
0.000137432
0.000136374
0.000134803
0.000132903
0.000131319
0.000129463
0.000127981
0.000126399
0.000124656
0.000122488
0.000120814
0.000118736
0.000116792
0.00011475
0.000112014
0.000109117
0.000105575
0.000101202
9.51874e-05
8.56103e-05
6.87915e-05
3.31652e-05
7.50706e-05
8.84903e-05
0.00010867
0.000136472
0.000173659
0.000222531
0.000285094
0.000364662
0.000464218
0.000586637
0.000735954
0.000915467
0.00112989
0.00138158
0.00167466
0.002016
0.00240777
0.00285069
0.00335191
0.00391166
0.00452894
0.00520382
0.00593061
0.00672277
0.00757353
0.00847597
0.00943296
0.0104263
0.0114601
0.0125265
0.0136388
0.0147511
0.0158855
0.0170088
0.0181264
0.0192488
0.0203512
0.0213982
0.0224119
0.0233949
0.0243034
0.0251132
)
;

boundaryField
{
    inlet
    {
        type            fixedValue;
        value           uniform 0;
    }
    outlet
    {
        type            zeroGradient;
    }
    yzfaces
    {
        type            empty;
    }
}


// ************************************************************************* //
