/*--------------------------------*- C++ -*----------------------------------*\
| =========                 |                                                 |
| \\      /  F ield         | foam-extend: Open Source CFD                    |
|  \\    /   O peration     | Version:     5.0                                |
|   \\  /    A nd           | Web:         http://www.foam-extend.org         |
|    \\/     M anipulation  |                                                 |
\*---------------------------------------------------------------------------*/
FoamFile
{
    version     2.0;
    format      ascii;
    class       volScalarField;
    location    "7";
    object      H2O.water;
}
// * * * * * * * * * * * * * * * * * * * * * * * * * * * * * * * * * * * * * //

dimensions      [0 0 0 0 0 0 0];

internalField   nonuniform List<scalar> 
100
(
0.0267286
0.0364832
0.0429402
0.0480515
0.0522844
0.0558874
0.0589474
0.0619374
0.0650425
0.0674488
0.0695249
0.0714395
0.0730743
0.0744178
0.075912
0.0771596
0.0782849
0.0793202
0.0805116
0.081987
0.0833798
0.0846888
0.085992
0.0868176
0.0874554
0.0881636
0.0890059
0.0897037
0.0905769
0.0913129
0.0922276
0.0927859
0.0934643
0.0939893
0.0946598
0.0953454
0.0959844
0.0967082
0.0970443
0.0976088
0.0983853
0.0990833
0.0999105
0.100423
0.101186
0.101695
0.10264
0.10339
0.10412
0.104954
0.106005
0.107086
0.108437
0.110116
0.112327
0.115846
0.121786
0.133653
0.129166
0.129982
0.130207
0.130236
0.130212
0.130135
0.130066
0.12996
0.129827
0.129706
0.129588
0.129463
0.129315
0.129196
0.129072
0.128951
0.128825
0.128735
0.12863
0.128551
0.128479
0.12842
0.128379
0.128338
0.128309
0.128281
0.128238
0.12822
0.128195
0.128197
0.128164
0.128166
0.128144
0.128167
0.12818
0.128201
0.128208
0.128246
0.128311
0.128352
0.128426
0.128558
)
;

boundaryField
{
    inlet
    {
        type            fixedValue;
        value           uniform 0;
    }
    outlet
    {
        type            zeroGradient;
    }
    yzfaces
    {
        type            empty;
    }
}


// ************************************************************************* //
