/*--------------------------------*- C++ -*----------------------------------*\
| =========                 |                                                 |
| \\      /  F ield         | foam-extend: Open Source CFD                    |
|  \\    /   O peration     | Version:     5.0                                |
|   \\  /    A nd           | Web:         http://www.foam-extend.org         |
|    \\/     M anipulation  |                                                 |
\*---------------------------------------------------------------------------*/
FoamFile
{
    version     2.0;
    format      ascii;
    class       volScalarField;
    location    "7";
    object      Na.water;
}
// * * * * * * * * * * * * * * * * * * * * * * * * * * * * * * * * * * * * * //

dimensions      [0 0 0 0 0 0 0];

internalField   nonuniform List<scalar> 
100
(
0.00412568
0.00562795
0.0066273
0.00741271
0.00806938
0.00862214
0.0090993
0.0095612
0.0100335
0.010409
0.0107301
0.0110239
0.0112741
0.0114829
0.0117131
0.0119116
0.0120847
0.0122421
0.0124239
0.0126485
0.0128583
0.0130617
0.0132645
0.0133997
0.013497
0.0135993
0.0137377
0.0138471
0.0139863
0.0140911
0.0142311
0.0143163
0.0144262
0.0145058
0.0146146
0.0147155
0.0148177
0.0149258
0.01498
0.0150606
0.0151855
0.0152929
0.015421
0.0154994
0.0156177
0.015694
0.0158409
0.015957
0.0160666
0.0161985
0.0163601
0.016525
0.0167389
0.016994
0.0173386
0.0178833
0.0187991
0.0206325
0.0193741
0.0194271
0.0194258
0.0194245
0.0194199
0.0194059
0.0193946
0.019372
0.0193456
0.0193328
0.0193156
0.0193004
0.019274
0.0192617
0.0192428
0.0192167
0.0191967
0.0191846
0.0191672
0.0191583
0.019144
0.0191387
0.0191433
0.0191355
0.0191267
0.0191274
0.0191187
0.0191203
0.019113
0.0191132
0.0191039
0.0191088
0.0191074
0.0191139
0.0191148
0.0191124
0.019109
0.0191256
0.0191393
0.0191415
0.01915
0.0191731
)
;

boundaryField
{
    inlet
    {
        type            fixedValue;
        value           uniform 0;
    }
    outlet
    {
        type            zeroGradient;
    }
    yzfaces
    {
        type            empty;
    }
}


// ************************************************************************* //
