/*--------------------------------*- C++ -*----------------------------------*\
| =========                 |                                                 |
| \\      /  F ield         | foam-extend: Open Source CFD                    |
|  \\    /   O peration     | Version:     5.0                                |
|   \\  /    A nd           | Web:         http://www.foam-extend.org         |
|    \\/     M anipulation  |                                                 |
\*---------------------------------------------------------------------------*/
FoamFile
{
    version     2.0;
    format      ascii;
    class       volScalarField;
    location    "7";
    object      Ns;
}
// * * * * * * * * * * * * * * * * * * * * * * * * * * * * * * * * * * * * * //

dimensions      [0 -3 0 0 1 0 0];

internalField   nonuniform List<scalar> 
100
(
0.0321906
0.614462
2.40856
0.154055
2.17047
1.68219
0.722852
0.828337
0.575921
0.43987
1.40942
0.641364
1.34744
1.05292
0.601859
1.63943
0.00476475
0.0556425
0.279965
0.442416
0.961287
0.32451
0.62267
0.70764
1.22207
0.438431
0.422443
0.118502
0.271493
0.413749
0.0394403
0.268655
0.0354341
0.356705
0.89434
0.41497
0.86447
0.0626415
0.0692568
0.105354
0.522021
0.20603
0.276809
0.266424
0.0125677
0.117553
0.700341
0.275229
0.447146
0.84043
0.591486
0.327977
0.221998
1.56646
5.89403
12.8562
36.9666
123.673
177.42
169.466
174.973
168.469
173.777
172.606
176.189
169.671
175.694
170.514
175.88
177.826
177.294
171.983
173.997
175.352
179.889
177.063
173.35
172.666
176.563
175.698
173.743
177.193
174.6
174.495
177.206
173.591
171.825
171.691
173.949
174.611
172.421
170.412
173.431
173.6
173.479
172.983
172.887
170.761
168.883
169.841
)
;

boundaryField
{
    inlet
    {
        type            fixedValue;
        value           uniform 0;
    }
    outlet
    {
        type            zeroGradient;
    }
    yzfaces
    {
        type            empty;
    }
}


// ************************************************************************* //
