/*--------------------------------*- C++ -*----------------------------------*\
| =========                 |                                                 |
| \\      /  F ield         | foam-extend: Open Source CFD                    |
|  \\    /   O peration     | Version:     5.0                                |
|   \\  /    A nd           | Web:         http://www.foam-extend.org         |
|    \\/     M anipulation  |                                                 |
\*---------------------------------------------------------------------------*/
FoamFile
{
    version     2.0;
    format      ascii;
    class       surfaceScalarField;
    location    "7";
    object      phi;
}
// * * * * * * * * * * * * * * * * * * * * * * * * * * * * * * * * * * * * * //

dimensions      [0 3 -1 0 0 0 0];

internalField   nonuniform List<scalar> 
99
(
1.22598e-06
1.2265e-06
1.22962e-06
1.22109e-06
1.21988e-06
1.21718e-06
1.2192e-06
1.21629e-06
1.20793e-06
1.20871e-06
1.21224e-06
1.20744e-06
1.20696e-06
1.20873e-06
1.20047e-06
1.20136e-06
1.19747e-06
1.19838e-06
1.19596e-06
1.19713e-06
1.19634e-06
1.18792e-06
1.19208e-06
1.19395e-06
1.19083e-06
1.19191e-06
1.1885e-06
1.1874e-06
1.18842e-06
1.18655e-06
1.18454e-06
1.18306e-06
1.17951e-06
1.18021e-06
1.18e-06
1.17873e-06
1.1802e-06
1.18024e-06
1.17642e-06
1.17781e-06
1.17793e-06
1.17652e-06
1.17983e-06
1.17802e-06
1.17631e-06
1.17948e-06
1.1808e-06
1.1838e-06
1.18054e-06
1.18005e-06
1.18006e-06
1.18132e-06
1.18357e-06
1.18071e-06
1.17963e-06
1.17807e-06
1.17329e-06
1.18044e-06
1.18144e-06
1.18403e-06
1.1831e-06
1.18288e-06
1.18389e-06
1.18405e-06
1.18567e-06
1.18433e-06
1.1829e-06
1.18187e-06
1.18025e-06
1.18002e-06
1.17906e-06
1.18004e-06
1.18131e-06
1.18192e-06
1.18065e-06
1.18004e-06
1.17858e-06
1.17746e-06
1.17481e-06
1.17415e-06
1.17582e-06
1.17587e-06
1.17569e-06
1.17726e-06
1.17707e-06
1.17791e-06
1.17829e-06
1.1793e-06
1.17907e-06
1.18001e-06
1.17867e-06
1.18021e-06
1.17912e-06
1.17622e-06
1.17423e-06
1.17436e-06
1.17522e-06
1.17593e-06
1.17582e-06
)
;

boundaryField
{
    inlet
    {
        type            calculated;
        value           uniform -1.225e-06;
    }
    outlet
    {
        type            calculated;
        value           uniform 1.1792e-06;
    }
    yzfaces
    {
        type            empty;
    }
}


// ************************************************************************* //
