/*--------------------------------*- C++ -*----------------------------------*\
| =========                 |                                                 |
| \\      /  F ield         | foam-extend: Open Source CFD                    |
|  \\    /   O peration     | Version:     5.0                                |
|   \\  /    A nd           | Web:         http://www.foam-extend.org         |
|    \\/     M anipulation  |                                                 |
\*---------------------------------------------------------------------------*/
FoamFile
{
    version     2.0;
    format      ascii;
    class       surfaceScalarField;
    location    "7";
    object      phi.water;
}
// * * * * * * * * * * * * * * * * * * * * * * * * * * * * * * * * * * * * * //

dimensions      [0 3 -1 0 0 0 0];

internalField   nonuniform List<scalar> 
99
(
7.90721e-08
1.37008e-07
1.88088e-07
2.38539e-07
2.84181e-07
3.26368e-07
3.72084e-07
4.25335e-07
4.67786e-07
5.08779e-07
5.43079e-07
5.70285e-07
6.09596e-07
6.48023e-07
6.83028e-07
7.19054e-07
7.5347e-07
7.95046e-07
8.28791e-07
8.76587e-07
9.19571e-07
9.56157e-07
1.00959e-06
1.03398e-06
1.05453e-06
1.09723e-06
1.12124e-06
1.15273e-06
1.18668e-06
1.21112e-06
1.24639e-06
1.27621e-06
1.30155e-06
1.33775e-06
1.37438e-06
1.41173e-06
1.45053e-06
1.48109e-06
1.50834e-06
1.54801e-06
1.58676e-06
1.63467e-06
1.67626e-06
1.71452e-06
1.75636e-06
1.81277e-06
1.86548e-06
1.93415e-06
1.98323e-06
2.0423e-06
2.12541e-06
2.22388e-06
2.3467e-06
2.49191e-06
2.69852e-06
3.05518e-06
3.83305e-06
4.20466e-06
4.34867e-06
4.40478e-06
4.40914e-06
4.40647e-06
4.40561e-06
4.39555e-06
4.39114e-06
4.37251e-06
4.34908e-06
4.33302e-06
4.30993e-06
4.29283e-06
4.27306e-06
4.25969e-06
4.24861e-06
4.23491e-06
4.21539e-06
4.20107e-06
4.18331e-06
4.16653e-06
4.14916e-06
4.13947e-06
4.1418e-06
4.13699e-06
4.13111e-06
4.13267e-06
4.12733e-06
4.12655e-06
4.12614e-06
4.12907e-06
4.12377e-06
4.12567e-06
4.11935e-06
4.12569e-06
4.12406e-06
4.11532e-06
4.1105e-06
4.11694e-06
4.12675e-06
4.13381e-06
4.14415e-06
)
;

boundaryField
{
    inlet
    {
        type            fixedValue;
        value           uniform 0;
    }
    outlet
    {
        type            calculated;
        value           uniform 4.17075e-06;
    }
    yzfaces
    {
        type            empty;
    }
}


// ************************************************************************* //
