/*--------------------------------*- C++ -*----------------------------------*\
| =========                 |                                                 |
| \\      /  F ield         | foam-extend: Open Source CFD                    |
|  \\    /   O peration     | Version:     5.0                                |
|   \\  /    A nd           | Web:         http://www.foam-extend.org         |
|    \\/     M anipulation  |                                                 |
\*---------------------------------------------------------------------------*/
FoamFile
{
    version     2.0;
    format      ascii;
    class       volVectorField;
    location    "7";
    object      U.gas;
}
// * * * * * * * * * * * * * * * * * * * * * * * * * * * * * * * * * * * * * //

dimensions      [0 1 -1 0 0 0 0];

internalField   nonuniform List<vector> 
100
(
(0.00609294 0 0)
(0.00660333 0 0)
(0.00700095 0 0)
(0.00734231 0 0)
(0.00760847 0 0)
(0.00785332 0 0)
(0.00810881 0 0)
(0.00839218 0 0)
(0.00858305 0 0)
(0.00875355 0 0)
(0.00891915 0 0)
(0.00905858 0 0)
(0.00920898 0 0)
(0.00936543 0 0)
(0.00949047 0 0)
(0.00959753 0 0)
(0.00971476 0 0)
(0.00984175 0 0)
(0.00995922 0 0)
(0.0101167 0 0)
(0.0102602 0 0)
(0.0103616 0 0)
(0.0104811 0 0)
(0.0105604 0 0)
(0.0106217 0 0)
(0.0107321 0 0)
(0.0107889 0 0)
(0.0108555 0 0)
(0.0109431 0 0)
(0.0110074 0 0)
(0.0110831 0 0)
(0.0111348 0 0)
(0.0111722 0 0)
(0.0112411 0 0)
(0.0113268 0 0)
(0.011398 0 0)
(0.0114686 0 0)
(0.0115289 0 0)
(0.0115716 0 0)
(0.0116362 0 0)
(0.0117198 0 0)
(0.011802 0 0)
(0.0118658 0 0)
(0.0119332 0 0)
(0.0119918 0 0)
(0.0120772 0 0)
(0.0121771 0 0)
(0.0122886 0 0)
(0.0123482 0 0)
(0.0124089 0 0)
(0.0125204 0 0)
(0.0126384 0 0)
(0.0127849 0 0)
(0.0129343 0 0)
(0.013114 0 0)
(0.0134398 0 0)
(0.0139271 0 0)
(0.0126754 0 0)
(0.0119954 0 0)
(0.0116945 0 0)
(0.0115923 0 0)
(0.0115635 0 0)
(0.0115685 0 0)
(0.011581 0 0)
(0.0116088 0 0)
(0.0116263 0 0)
(0.0116326 0 0)
(0.0116503 0 0)
(0.0116602 0 0)
(0.0116837 0 0)
(0.0117006 0 0)
(0.0117318 0 0)
(0.011772 0 0)
(0.0118057 0 0)
(0.011825 0 0)
(0.0118402 0 0)
(0.0118516 0 0)
(0.011858 0 0)
(0.0118594 0 0)
(0.0118562 0 0)
(0.0118755 0 0)
(0.0118907 0 0)
(0.0118961 0 0)
(0.0119138 0 0)
(0.011924 0 0)
(0.0119373 0 0)
(0.0119504 0 0)
(0.0119609 0 0)
(0.0119603 0 0)
(0.011975 0 0)
(0.0119734 0 0)
(0.0119788 0 0)
(0.0119818 0 0)
(0.0119553 0 0)
(0.0119275 0 0)
(0.0119213 0 0)
(0.0119192 0 0)
(0.0119169 0 0)
(0.0119165 0 0)
(0.01193 0 0)
)
;

boundaryField
{
    inlet
    {
        type            fixedValue;
        value           uniform (0.005 0 0);
    }
    outlet
    {
        type            zeroGradient;
    }
    yzfaces
    {
        type            empty;
    }
}


// ************************************************************************* //
