/*--------------------------------*- C++ -*----------------------------------*\
| =========                 |                                                 |
| \\      /  F ield         | foam-extend: Open Source CFD                    |
|  \\    /   O peration     | Version:     5.0                                |
|   \\  /    A nd           | Web:         http://www.foam-extend.org         |
|    \\/     M anipulation  |                                                 |
\*---------------------------------------------------------------------------*/
FoamFile
{
    version     2.0;
    format      ascii;
    class       volVectorField;
    location    "7";
    object      U.water;
}
// * * * * * * * * * * * * * * * * * * * * * * * * * * * * * * * * * * * * * //

dimensions      [0 1 -1 0 0 0 0];

internalField   nonuniform List<vector> 
100
(
(3.8064e-05 0 0)
(8.88071e-05 0 0)
(0.000132636 0 0)
(0.00017242 0 0)
(0.000211139 0 0)
(0.000247098 0 0)
(0.000282168 0 0)
(0.00032023 0 0)
(0.000359761 0 0)
(0.000394938 0 0)
(0.000427631 0 0)
(0.000454168 0 0)
(0.00048093 0 0)
(0.000512571 0 0)
(0.000541915 0 0)
(0.000570334 0 0)
(0.000598106 0 0)
(0.000627334 0 0)
(0.000658237 0 0)
(0.00069084 0 0)
(0.000728339 0 0)
(0.000761186 0 0)
(0.000797323 0 0)
(0.000831505 0 0)
(0.000850827 0 0)
(0.000874333 0 0)
(0.000902477 0 0)
(0.000925455 0 0)
(0.000952473 0 0)
(0.00097808 0 0)
(0.00100241 0 0)
(0.00102917 0 0)
(0.00105198 0 0)
(0.00107647 0 0)
(0.00110566 0 0)
(0.00113554 0 0)
(0.0011667 0 0)
(0.00119568 0 0)
(0.00121876 0 0)
(0.00124525 0 0)
(0.0012777 0 0)
(0.00131278 0 0)
(0.00135064 0 0)
(0.00138406 0 0)
(0.00141615 0 0)
(0.00145574 0 0)
(0.0015009 0 0)
(0.00155017 0 0)
(0.0015989 0 0)
(0.00164396 0 0)
(0.00170162 0 0)
(0.00177581 0 0)
(0.00186688 0 0)
(0.00197768 0 0)
(0.00212393 0 0)
(0.00235719 0 0)
(0.00278522 0 0)
(0.00326378 0 0)
(0.00348432 0 0)
(0.0035699 0 0)
(0.00359657 0 0)
(0.00359781 0 0)
(0.00359604 0 0)
(0.00359162 0 0)
(0.00358561 0 0)
(0.00357686 0 0)
(0.00356088 0 0)
(0.00354454 0 0)
(0.00352822 0 0)
(0.00351138 0 0)
(0.00349626 0 0)
(0.00348225 0 0)
(0.00347228 0 0)
(0.00346276 0 0)
(0.00344968 0 0)
(0.00343581 0 0)
(0.00342282 0 0)
(0.0034091 0 0)
(0.00339511 0 0)
(0.00338368 0 0)
(0.00337988 0 0)
(0.00337887 0 0)
(0.00337473 0 0)
(0.0033726 0 0)
(0.00337117 0 0)
(0.00336854 0 0)
(0.00336811 0 0)
(0.0033692 0 0)
(0.00336888 0 0)
(0.00336733 0 0)
(0.00336568 0 0)
(0.00336555 0 0)
(0.00336758 0 0)
(0.00336399 0 0)
(0.0033586 0 0)
(0.00335829 0 0)
(0.00336438 0 0)
(0.00337172 0 0)
(0.00337841 0 0)
(0.00339129 0 0)
)
;

boundaryField
{
    inlet
    {
        type            fixedValue;
        value           uniform (0 0 0);
    }
    outlet
    {
        type            zeroGradient;
    }
    yzfaces
    {
        type            empty;
    }
}


// ************************************************************************* //
