/*--------------------------------*- C++ -*----------------------------------*\
| =========                 |                                                 |
| \\      /  F ield         | foam-extend: Open Source CFD                    |
|  \\    /   O peration     | Version:     5.0                                |
|   \\  /    A nd           | Web:         http://www.foam-extend.org         |
|    \\/     M anipulation  |                                                 |
\*---------------------------------------------------------------------------*/
FoamFile
{
    version     2.0;
    format      ascii;
    class       volScalarField;
    location    "8";
    object      Cl.water;
}
// * * * * * * * * * * * * * * * * * * * * * * * * * * * * * * * * * * * * * //

dimensions      [0 0 0 0 0 0 0];

internalField   nonuniform List<scalar> 
100
(
0.00365846
0.00520096
0.00620286
0.00689552
0.00751515
0.00806905
0.00846741
0.00899983
0.00942821
0.00987263
0.0102427
0.0105396
0.0108002
0.0110506
0.011292
0.0114618
0.0116617
0.0119108
0.012074
0.0122024
0.0123681
0.0124977
0.0126474
0.0128483
0.0130227
0.0131386
0.0132681
0.0133982
0.0134873
0.0135588
0.0136439
0.0137673
0.0138465
0.0139471
0.014046
0.0141736
0.0142774
0.0143435
0.0144155
0.0144897
0.0145435
0.0146205
0.014737
0.0148315
0.0149216
0.01502
0.015078
0.0151277
0.0152115
0.015284
0.0153527
0.0154399
0.015511
0.0155792
0.0156625
0.015754
0.0158405
0.0159408
0.0160277
0.0161121
0.0162095
0.0163088
0.016364
0.0164698
0.0165939
0.0167014
0.0168365
0.0170303
0.0172489
0.0175193
0.0179494
0.0186645
0.0201743
0.0210206
0.0213155
0.0213616
0.0213571
0.0213311
0.0213115
0.0213047
0.0212846
0.0212732
0.0212782
0.0212717
0.0212863
0.0212872
0.0212709
0.0212831
0.0212726
0.0212736
0.0212512
0.0212442
0.0212395
0.0212326
0.0212192
0.0212101
0.0211887
0.0211796
0.0211535
0.0211473
)
;

boundaryField
{
    inlet
    {
        type            fixedValue;
        value           uniform 0;
    }
    outlet
    {
        type            zeroGradient;
    }
    yzfaces
    {
        type            empty;
    }
}


// ************************************************************************* //
