/*--------------------------------*- C++ -*----------------------------------*\
| =========                 |                                                 |
| \\      /  F ield         | foam-extend: Open Source CFD                    |
|  \\    /   O peration     | Version:     5.0                                |
|   \\  /    A nd           | Web:         http://www.foam-extend.org         |
|    \\/     M anipulation  |                                                 |
\*---------------------------------------------------------------------------*/
FoamFile
{
    version     2.0;
    format      ascii;
    class       volScalarField;
    location    "8";
    object      CO2.gas;
}
// * * * * * * * * * * * * * * * * * * * * * * * * * * * * * * * * * * * * * //

dimensions      [0 0 0 0 0 0 0];

internalField   nonuniform List<scalar> 
100
(
0.167726
0.152405
0.143541
0.137186
0.13217
0.129127
0.125907
0.120651
0.115441
0.111574
0.109069
0.107345
0.105386
0.103562
0.101467
0.0995944
0.0971211
0.0955092
0.0943481
0.0925088
0.0910003
0.0897664
0.0880091
0.086748
0.0858648
0.0847614
0.0836167
0.0829723
0.0823299
0.0817343
0.0806265
0.0799321
0.0786305
0.0777392
0.0767404
0.0758509
0.0753615
0.0747993
0.0741054
0.0735482
0.0727691
0.0717814
0.071161
0.0703681
0.0697082
0.068871
0.0681123
0.0674644
0.0668227
0.0661084
0.0654294
0.0648112
0.064183
0.0634348
0.0628567
0.0621036
0.0613879
0.0607064
0.0601002
0.0593663
0.0586762
0.0578838
0.0571456
0.0563062
0.0554078
0.054425
0.053142
0.0515939
0.0497176
0.0473413
0.0435658
0.03729
0.0238908
0.0220503
0.021905
0.0219023
0.0217921
0.0215506
0.021197
0.0207639
0.0202181
0.01961
0.0189576
0.0182377
0.0174956
0.0167253
0.0159167
0.0151147
0.014294
0.0134778
0.0126488
0.0118409
0.0110443
0.0102589
0.00948677
0.00874466
0.00801676
0.0073197
0.00664653
0.00600345
)
;

boundaryField
{
    inlet
    {
        type            fixedValue;
        value           uniform 0.2;
    }
    outlet
    {
        type            zeroGradient;
    }
    yzfaces
    {
        type            empty;
    }
}


// ************************************************************************* //
