/*--------------------------------*- C++ -*----------------------------------*\
| =========                 |                                                 |
| \\      /  F ield         | foam-extend: Open Source CFD                    |
|  \\    /   O peration     | Version:     5.0                                |
|   \\  /    A nd           | Web:         http://www.foam-extend.org         |
|    \\/     M anipulation  |                                                 |
\*---------------------------------------------------------------------------*/
FoamFile
{
    version     2.0;
    format      ascii;
    class       volScalarField;
    location    "8";
    object      H2O.gas;
}
// * * * * * * * * * * * * * * * * * * * * * * * * * * * * * * * * * * * * * //

dimensions      [0 0 0 0 0 0 0];

internalField   nonuniform List<scalar> 
100
(
0.000327279
0.000160831
7.92145e-05
3.83572e-05
2.48319e-05
2.57491e-05
0.000245679
0.000140369
9.74669e-05
7.94474e-05
7.65931e-05
8.07025e-05
8.77008e-05
0.000202077
0.000175946
0.000171147
0.000168026
0.000170419
0.000172345
0.000171154
0.000169566
0.00016838
0.000166177
0.000164761
0.000164122
0.000162688
0.000160989
0.000160422
0.000160648
0.000159295
0.000157159
0.000155969
0.000153394
0.000151526
0.000149552
0.000147991
0.000146924
0.000145819
0.000144676
0.000143531
0.000141917
0.000140071
0.000138682
0.00013714
0.000135868
0.000134341
0.000132909
0.000131604
0.000130335
0.000129044
0.000127746
0.000126373
0.000125082
0.000123411
0.000122184
0.000120773
0.000119294
0.000118004
0.000116876
0.000115503
0.000114347
0.000112947
0.000111469
0.00010992
0.000108116
0.000106246
0.000103655
0.00010069
9.70124e-05
9.23756e-05
8.50087e-05
7.27629e-05
4.66174e-05
0.000349884
0.000709926
0.00110816
0.00155176
0.00204103
0.00257792
0.00316565
0.00379464
0.00446478
0.00517553
0.00591629
0.00669148
0.00749238
0.00830677
0.00915137
0.0100032
0.0108673
0.011723
0.0125869
0.0134585
0.0143191
0.0151632
0.0160001
0.0168026
0.0175962
0.018336
0.0190544
)
;

boundaryField
{
    inlet
    {
        type            fixedValue;
        value           uniform 0;
    }
    outlet
    {
        type            zeroGradient;
    }
    yzfaces
    {
        type            empty;
    }
}


// ************************************************************************* //
