/*--------------------------------*- C++ -*----------------------------------*\
| =========                 |                                                 |
| \\      /  F ield         | foam-extend: Open Source CFD                    |
|  \\    /   O peration     | Version:     5.0                                |
|   \\  /    A nd           | Web:         http://www.foam-extend.org         |
|    \\/     M anipulation  |                                                 |
\*---------------------------------------------------------------------------*/
FoamFile
{
    version     2.0;
    format      ascii;
    class       volScalarField;
    location    "8";
    object      H2O.water;
}
// * * * * * * * * * * * * * * * * * * * * * * * * * * * * * * * * * * * * * //

dimensions      [0 0 0 0 0 0 0];

internalField   nonuniform List<scalar> 
100
(
0.0237032
0.0336843
0.0401791
0.0446694
0.048695
0.0522872
0.0548444
0.0582728
0.0610564
0.0639481
0.0663523
0.0682683
0.0699624
0.0715854
0.073152
0.0742708
0.0755409
0.0771695
0.0782216
0.0790758
0.0801576
0.0809912
0.0819314
0.0832748
0.0843704
0.085152
0.0860043
0.0868566
0.0874111
0.087826
0.0883878
0.0892078
0.0897527
0.0903826
0.091067
0.0918694
0.0925499
0.0929981
0.0934466
0.0939579
0.0943487
0.0948385
0.0955171
0.0961223
0.0966674
0.0973202
0.0976789
0.0980793
0.0986024
0.0990306
0.0994858
0.100055
0.100523
0.100965
0.101507
0.102114
0.102634
0.103272
0.103812
0.104361
0.105015
0.105653
0.106032
0.10669
0.107505
0.108167
0.109037
0.110285
0.111733
0.113496
0.116282
0.120905
0.130687
0.133306
0.134016
0.133914
0.133783
0.133599
0.133455
0.133393
0.133257
0.133212
0.133234
0.133201
0.13327
0.133241
0.133195
0.133251
0.133214
0.133215
0.133098
0.133047
0.133007
0.132943
0.132845
0.132789
0.132644
0.132571
0.132395
0.132353
)
;

boundaryField
{
    inlet
    {
        type            fixedValue;
        value           uniform 0;
    }
    outlet
    {
        type            zeroGradient;
    }
    yzfaces
    {
        type            empty;
    }
}


// ************************************************************************* //
