/*--------------------------------*- C++ -*----------------------------------*\
| =========                 |                                                 |
| \\      /  F ield         | foam-extend: Open Source CFD                    |
|  \\    /   O peration     | Version:     5.0                                |
|   \\  /    A nd           | Web:         http://www.foam-extend.org         |
|    \\/     M anipulation  |                                                 |
\*---------------------------------------------------------------------------*/
FoamFile
{
    version     2.0;
    format      ascii;
    class       volScalarField;
    location    "8";
    object      Na.water;
}
// * * * * * * * * * * * * * * * * * * * * * * * * * * * * * * * * * * * * * //

dimensions      [0 0 0 0 0 0 0];

internalField   nonuniform List<scalar> 
100
(
0.00365789
0.00519767
0.0062011
0.00689568
0.0075193
0.00806698
0.00846114
0.00899273
0.00942172
0.00986495
0.0102373
0.0105362
0.0107969
0.0110453
0.011287
0.0114615
0.0116589
0.011909
0.0120707
0.0122017
0.0123676
0.0124953
0.0126477
0.0128587
0.0130295
0.0131491
0.0132775
0.0134106
0.0134935
0.0135508
0.01364
0.013768
0.0138489
0.0139568
0.0140558
0.0141829
0.0142835
0.0143501
0.0144254
0.0145037
0.0145584
0.0146362
0.0147402
0.014833
0.0149204
0.0150228
0.0150821
0.0151408
0.0152227
0.0152918
0.015365
0.0154437
0.0155209
0.0155908
0.0156728
0.0157558
0.0158342
0.0159292
0.0160161
0.0161039
0.0162066
0.0163027
0.0163626
0.0164638
0.016589
0.0166891
0.0168271
0.0170121
0.017239
0.0175129
0.0179427
0.0186548
0.0201641
0.021012
0.0213068
0.021355
0.0213565
0.021339
0.0213185
0.0213094
0.0212894
0.0212809
0.0212871
0.0212747
0.0212836
0.0212859
0.0212713
0.0212793
0.0212693
0.0212698
0.0212496
0.0212402
0.0212339
0.0212224
0.0212089
0.0212021
0.0211808
0.0211787
0.0211564
0.0211544
)
;

boundaryField
{
    inlet
    {
        type            fixedValue;
        value           uniform 0;
    }
    outlet
    {
        type            zeroGradient;
    }
    yzfaces
    {
        type            empty;
    }
}


// ************************************************************************* //
