/*--------------------------------*- C++ -*----------------------------------*\
| =========                 |                                                 |
| \\      /  F ield         | foam-extend: Open Source CFD                    |
|  \\    /   O peration     | Version:     5.0                                |
|   \\  /    A nd           | Web:         http://www.foam-extend.org         |
|    \\/     M anipulation  |                                                 |
\*---------------------------------------------------------------------------*/
FoamFile
{
    version     2.0;
    format      ascii;
    class       volScalarField;
    location    "8";
    object      Ns;
}
// * * * * * * * * * * * * * * * * * * * * * * * * * * * * * * * * * * * * * //

dimensions      [0 -3 0 0 1 0 0];

internalField   nonuniform List<scalar> 
100
(
3.34214
0.869953
2.36076
1.67026
1.013
1.19261
5.11663
3.31708
0.804504
0.290411
0.581472
1.58899
0.466757
1.04044
0.341752
0.471096
0.315026
0.262783
1.29131
1.72272
0.72905
0.48626
0.0541448
0.555032
0.540392
1.094
1.16481
0.15009
1.18703
0.678648
0.101588
0.734444
0.207652
0.300581
0.119287
0.357677
0.231452
0.121766
0.72507
0.244711
1.13117
0.316293
0.773168
0.898334
0.138585
0.383724
1.26024
0.902299
0.741432
0.360535
0.303628
0.327273
1.58517
0.0352027
0.0896779
0.811496
0.018182
0.882142
1.73797
0.548017
0.0629042
0.333257
0.409845
0.842415
0.0656252
0.357091
0.188996
0.477551
0.76367
1.17827
2.61958
5.35014
15.6904
2
2
2
2
2
2
2
2
2
2
2
2
2
2
2
2
2
2
2
2
2
2
2
2
2
2
2
)
;

boundaryField
{
    inlet
    {
        type            fixedValue;
        value           uniform 0;
    }
    outlet
    {
        type            zeroGradient;
    }
    yzfaces
    {
        type            empty;
    }
}


// ************************************************************************* //
