/*--------------------------------*- C++ -*----------------------------------*\
| =========                 |                                                 |
| \\      /  F ield         | foam-extend: Open Source CFD                    |
|  \\    /   O peration     | Version:     5.0                                |
|   \\  /    A nd           | Web:         http://www.foam-extend.org         |
|    \\/     M anipulation  |                                                 |
\*---------------------------------------------------------------------------*/
FoamFile
{
    version     2.0;
    format      ascii;
    class       surfaceScalarField;
    location    "8";
    object      phi;
}
// * * * * * * * * * * * * * * * * * * * * * * * * * * * * * * * * * * * * * //

dimensions      [0 3 -1 0 0 0 0];

internalField   nonuniform List<scalar> 
99
(
1.212e-06
1.21875e-06
1.22519e-06
1.22628e-06
1.22257e-06
1.22359e-06
1.20776e-06
1.20928e-06
1.19864e-06
1.20659e-06
1.20617e-06
1.21267e-06
1.21657e-06
1.20698e-06
1.20782e-06
1.20568e-06
1.20409e-06
1.20424e-06
1.20671e-06
1.20732e-06
1.20917e-06
1.21158e-06
1.21081e-06
1.21274e-06
1.20819e-06
1.21019e-06
1.21386e-06
1.21069e-06
1.21017e-06
1.21058e-06
1.21185e-06
1.20558e-06
1.20428e-06
1.20803e-06
1.20215e-06
1.20404e-06
1.20452e-06
1.20354e-06
1.20524e-06
1.20301e-06
1.20217e-06
1.2028e-06
1.20178e-06
1.20138e-06
1.20151e-06
1.2022e-06
1.2062e-06
1.20468e-06
1.20527e-06
1.20219e-06
1.20029e-06
1.20293e-06
1.20047e-06
1.20806e-06
1.20579e-06
1.20686e-06
1.20744e-06
1.21216e-06
1.21341e-06
1.21225e-06
1.21574e-06
1.2146e-06
1.21449e-06
1.2139e-06
1.21122e-06
1.20912e-06
1.20965e-06
1.21236e-06
1.21165e-06
1.20955e-06
1.21033e-06
1.20961e-06
1.20701e-06
1.20762e-06
1.20745e-06
1.2068e-06
1.20547e-06
1.20752e-06
1.20844e-06
1.20731e-06
1.20719e-06
1.2066e-06
1.20667e-06
1.20701e-06
1.20677e-06
1.20591e-06
1.20719e-06
1.20562e-06
1.20482e-06
1.20423e-06
1.206e-06
1.20691e-06
1.20606e-06
1.20612e-06
1.20726e-06
1.20731e-06
1.20638e-06
1.20491e-06
1.20541e-06
)
;

boundaryField
{
    inlet
    {
        type            calculated;
        value           uniform -1.225e-06;
    }
    outlet
    {
        type            calculated;
        value           uniform 1.20914e-06;
    }
    yzfaces
    {
        type            empty;
    }
}


// ************************************************************************* //
