/*--------------------------------*- C++ -*----------------------------------*\
| =========                 |                                                 |
| \\      /  F ield         | foam-extend: Open Source CFD                    |
|  \\    /   O peration     | Version:     5.0                                |
|   \\  /    A nd           | Web:         http://www.foam-extend.org         |
|    \\/     M anipulation  |                                                 |
\*---------------------------------------------------------------------------*/
FoamFile
{
    version     2.0;
    format      ascii;
    class       volVectorField;
    location    "8";
    object      U.gas;
}
// * * * * * * * * * * * * * * * * * * * * * * * * * * * * * * * * * * * * * //

dimensions      [0 1 -1 0 0 0 0];

internalField   nonuniform List<vector> 
100
(
(0.00591685 0 0)
(0.00641002 0 0)
(0.00681855 0 0)
(0.00712465 0 0)
(0.00738052 0 0)
(0.00759167 0 0)
(0.00773878 0 0)
(0.007958 0 0)
(0.00818921 0 0)
(0.00842444 0 0)
(0.00863807 0 0)
(0.00880335 0 0)
(0.00898807 0 0)
(0.00910592 0 0)
(0.00922405 0 0)
(0.00933961 0 0)
(0.00948656 0 0)
(0.00962316 0 0)
(0.00972632 0 0)
(0.00986066 0 0)
(0.00998888 0 0)
(0.0100991 0 0)
(0.0102392 0 0)
(0.0103681 0 0)
(0.0104453 0 0)
(0.0105242 0 0)
(0.0106474 0 0)
(0.0107159 0 0)
(0.0107526 0 0)
(0.0108012 0 0)
(0.0108999 0 0)
(0.0109452 0 0)
(0.0110144 0 0)
(0.0110964 0 0)
(0.0111728 0 0)
(0.0112376 0 0)
(0.0112948 0 0)
(0.0113395 0 0)
(0.011403 0 0)
(0.0114508 0 0)
(0.0114978 0 0)
(0.0115776 0 0)
(0.0116334 0 0)
(0.0116988 0 0)
(0.0117521 0 0)
(0.0118338 0 0)
(0.0119034 0 0)
(0.0119629 0 0)
(0.0120164 0 0)
(0.0120608 0 0)
(0.0120887 0 0)
(0.012147 0 0)
(0.0121954 0 0)
(0.0122799 0 0)
(0.0123534 0 0)
(0.0124141 0 0)
(0.0124717 0 0)
(0.0125541 0 0)
(0.0126263 0 0)
(0.0126857 0 0)
(0.0127501 0 0)
(0.0128169 0 0)
(0.0128513 0 0)
(0.0129115 0 0)
(0.0129478 0 0)
(0.0129933 0 0)
(0.0130711 0 0)
(0.0131969 0 0)
(0.0133041 0 0)
(0.0134327 0 0)
(0.0136576 0 0)
(0.014008 0 0)
(0.014953 0 0)
(0.0103314 0 0)
(0.00963098 0 0)
(0.00967612 0 0)
(0.00979851 0 0)
(0.00990654 0 0)
(0.0100009 0 0)
(0.0100594 0 0)
(0.0100997 0 0)
(0.0101265 0 0)
(0.0101458 0 0)
(0.0101626 0 0)
(0.0101705 0 0)
(0.01017 0 0)
(0.0101805 0 0)
(0.0101831 0 0)
(0.0101818 0 0)
(0.0101856 0 0)
(0.0102023 0 0)
(0.0102247 0 0)
(0.010242 0 0)
(0.0102602 0 0)
(0.0102862 0 0)
(0.0103134 0 0)
(0.0103367 0 0)
(0.0103513 0 0)
(0.0103754 0 0)
(0.0104227 0 0)
)
;

boundaryField
{
    inlet
    {
        type            fixedValue;
        value           uniform (0.005 0 0);
    }
    outlet
    {
        type            zeroGradient;
    }
    yzfaces
    {
        type            empty;
    }
}


// ************************************************************************* //
