/*--------------------------------*- C++ -*----------------------------------*\
| =========                 |                                                 |
| \\      /  F ield         | foam-extend: Open Source CFD                    |
|  \\    /   O peration     | Version:     5.0                                |
|   \\  /    A nd           | Web:         http://www.foam-extend.org         |
|    \\/     M anipulation  |                                                 |
\*---------------------------------------------------------------------------*/
FoamFile
{
    version     2.0;
    format      ascii;
    class       volScalarField;
    location    "80";
    object      alpha.water;
}
// * * * * * * * * * * * * * * * * * * * * * * * * * * * * * * * * * * * * * //

dimensions      [0 0 0 0 0 0 0];

internalField   nonuniform List<scalar> 
100
(
0.00712651
0.0151443
0.0286034
0.0379341
0.0363396
0.033911
0.0354811
0.0341781
0.0353671
0.0339632
0.0354493
0.0345713
0.0351333
0.034291
0.0350032
0.0344066
0.0350098
0.0351507
0.0348938
0.0361821
0.0394838
0.0466909
0.0518241
0.0538833
0.054304
0.0542944
0.0539866
0.0533231
0.0491367
0.0457864
0.0475204
0.0502095
0.0526352
0.0537514
0.0537687
0.0538033
0.0535697
0.0520748
0.0470842
0.044253
0.0443418
0.0449338
0.0488984
0.0516859
0.053096
0.0534822
0.0525833
0.0501402
0.0490667
0.0488346
0.0486516
0.0496278
0.0493447
0.048755
0.0489303
0.050212
0.050965
0.0497593
0.048008
0.0475004
0.0462393
0.0463929
0.0462142
0.0464716
0.0477085
0.0498484
0.052195
0.0546374
0.0590282
0.0617942
0.0647188
0.0678436
0.0683502
0.0696056
0.0715646
0.0741729
0.0760189
0.0768705
0.0771353
0.0771208
0.0772805
0.0769401
0.0773024
0.0779006
0.0775114
0.0777461
0.0778253
0.077753
0.077973
0.0783437
0.0778257
0.0774698
0.0776211
0.0779261
0.0781341
0.0779208
0.0779004
0.0787674
0.0785531
0.0775466
)
;

boundaryField
{
    inlet
    {
        type            fixedValue;
        value           uniform 0;
    }
    outlet
    {
        type            zeroGradient;
    }
    yzfaces
    {
        type            empty;
    }
}


// ************************************************************************* //
