/*--------------------------------*- C++ -*----------------------------------*\
| =========                 |                                                 |
| \\      /  F ield         | foam-extend: Open Source CFD                    |
|  \\    /   O peration     | Version:     5.0                                |
|   \\  /    A nd           | Web:         http://www.foam-extend.org         |
|    \\/     M anipulation  |                                                 |
\*---------------------------------------------------------------------------*/
FoamFile
{
    version     2.0;
    format      ascii;
    class       volScalarField;
    location    "80";
    object      alpha.water;
}
// * * * * * * * * * * * * * * * * * * * * * * * * * * * * * * * * * * * * * //

dimensions      [0 0 0 0 0 0 0];

internalField   nonuniform List<scalar> 
100
(
0.00732899
0.0154116
0.0286092
0.0378873
0.0380009
0.0344786
0.0356449
0.0336649
0.0358765
0.0338324
0.035478
0.0345849
0.0352282
0.0343038
0.035064
0.0347454
0.0348853
0.0347995
0.0348527
0.0350762
0.0390235
0.0435768
0.0490338
0.0526451
0.0538698
0.0540054
0.0551244
0.055637
0.0505276
0.0483322
0.0504316
0.0524431
0.0540868
0.0532099
0.0517072
0.0501375
0.0511678
0.0512285
0.053587
0.0537765
0.0530435
0.0514528
0.0506063
0.0497677
0.0500736
0.0515947
0.0529275
0.0526579
0.0525921
0.051064
0.0484817
0.0471612
0.0464834
0.045797
0.0446084
0.04334
0.0437215
0.0440935
0.0441745
0.0460849
0.0479946
0.0480729
0.0485152
0.0478644
0.0484637
0.0493827
0.0501156
0.0525492
0.0553402
0.0585141
0.0633715
0.0662144
0.0681183
0.070972
0.0724118
0.073377
0.0747182
0.0757668
0.0760472
0.0760871
0.0765575
0.0765495
0.077001
0.0774253
0.0775294
0.0776305
0.0771144
0.0769361
0.0762421
0.0770471
0.0777192
0.0771948
0.077552
0.0765998
0.0762874
0.0753706
0.0758889
0.0759232
0.0764386
0.0758366
)
;

boundaryField
{
    inlet
    {
        type            fixedValue;
        value           uniform 0;
    }
    outlet
    {
        type            zeroGradient;
    }
    yzfaces
    {
        type            empty;
    }
}


// ************************************************************************* //
