/*--------------------------------*- C++ -*----------------------------------*\
| =========                 |                                                 |
| \\      /  F ield         | foam-extend: Open Source CFD                    |
|  \\    /   O peration     | Version:     5.0                                |
|   \\  /    A nd           | Web:         http://www.foam-extend.org         |
|    \\/     M anipulation  |                                                 |
\*---------------------------------------------------------------------------*/
FoamFile
{
    version     2.0;
    format      ascii;
    class       volScalarField;
    location    "80";
    object      Cl.water;
}
// * * * * * * * * * * * * * * * * * * * * * * * * * * * * * * * * * * * * * //

dimensions      [0 0 0 0 0 0 0];

internalField   nonuniform List<scalar> 
100
(
0.000637316
0.000394719
0.000222257
0.000330866
0.00128811
0.00279156
0.00344226
0.00460152
0.00478523
0.0056918
0.00566368
0.00614241
0.00608423
0.00632821
0.0063154
0.00652573
0.00661436
0.0069498
0.00725008
0.00715526
0.00744285
0.00769597
0.00829957
0.00910056
0.00971719
0.00985342
0.00979379
0.0102779
0.013199
0.0135267
0.0112958
0.00928291
0.00864982
0.0092545
0.00995289
0.00984176
0.00994611
0.0109261
0.0138455
0.0137257
0.0120825
0.0109956
0.0096815
0.00949317
0.00970313
0.00974505
0.0106899
0.011591
0.0115154
0.0115498
0.011409
0.0106978
0.0110939
0.0114596
0.0111736
0.0103446
0.0105294
0.0113996
0.0118601
0.011935
0.0126212
0.0125135
0.0129969
0.0128741
0.0127775
0.0128074
0.0128122
0.0124432
0.0124251
0.0125793
0.0126154
0.0129227
0.0130355
0.0128098
0.0130193
0.0133828
0.0137899
0.0143081
0.0149016
0.0149021
0.0147571
0.0147024
0.0145065
0.0142546
0.0144777
0.0143929
0.0143464
0.0141926
0.0139293
0.0139574
0.0137977
0.0136625
0.0134727
0.0134523
0.0135524
0.0138126
0.01368
0.0136414
0.0140235
0.0144971
)
;

boundaryField
{
    inlet
    {
        type            fixedValue;
        value           uniform 0;
    }
    outlet
    {
        type            zeroGradient;
    }
    yzfaces
    {
        type            empty;
    }
}


// ************************************************************************* //
