/*--------------------------------*- C++ -*----------------------------------*\
| =========                 |                                                 |
| \\      /  F ield         | foam-extend: Open Source CFD                    |
|  \\    /   O peration     | Version:     5.0                                |
|   \\  /    A nd           | Web:         http://www.foam-extend.org         |
|    \\/     M anipulation  |                                                 |
\*---------------------------------------------------------------------------*/
FoamFile
{
    version     2.0;
    format      ascii;
    class       volScalarField;
    location    "80";
    object      Cl.water;
}
// * * * * * * * * * * * * * * * * * * * * * * * * * * * * * * * * * * * * * //

dimensions      [0 0 0 0 0 0 0];

internalField   nonuniform List<scalar> 
100
(
0.000628238
0.000393803
0.000214477
0.000328218
0.00123845
0.00279052
0.00338651
0.00476229
0.00479151
0.00578842
0.0056114
0.00612042
0.00601184
0.00645678
0.00650968
0.00691071
0.00708335
0.00701143
0.00697094
0.00696058
0.00712041
0.00916708
0.0106318
0.00962937
0.00882124
0.00851281
0.00831269
0.00944233
0.0124187
0.0124104
0.0109972
0.00977031
0.0095389
0.0103542
0.0112783
0.011686
0.0109089
0.0107576
0.00972215
0.00999032
0.0105703
0.011196
0.011575
0.0113013
0.0107264
0.0101817
0.0100929
0.0100464
0.0102795
0.0110146
0.0120382
0.012231
0.0121208
0.0124457
0.0128617
0.0131669
0.0127103
0.0124718
0.0120299
0.0113099
0.0111377
0.0115422
0.011546
0.0119566
0.0118979
0.0120927
0.0124693
0.0124886
0.0124828
0.0125796
0.0125428
0.0130364
0.0135772
0.0137637
0.013858
0.0138275
0.013662
0.0135798
0.0136665
0.0139827
0.0144567
0.0147846
0.0147321
0.0145732
0.0147725
0.0145162
0.0143406
0.0141501
0.014514
0.0143165
0.0147126
0.0150755
0.0150034
0.0147551
0.0140936
0.0138194
0.0138347
0.013815
0.013794
0.0143484
)
;

boundaryField
{
    inlet
    {
        type            fixedValue;
        value           uniform 0;
    }
    outlet
    {
        type            zeroGradient;
    }
    yzfaces
    {
        type            empty;
    }
}


// ************************************************************************* //
