/*--------------------------------*- C++ -*----------------------------------*\
| =========                 |                                                 |
| \\      /  F ield         | foam-extend: Open Source CFD                    |
|  \\    /   O peration     | Version:     5.0                                |
|   \\  /    A nd           | Web:         http://www.foam-extend.org         |
|    \\/     M anipulation  |                                                 |
\*---------------------------------------------------------------------------*/
FoamFile
{
    version     2.0;
    format      ascii;
    class       volScalarField;
    location    "80";
    object      CO2.water;
}
// * * * * * * * * * * * * * * * * * * * * * * * * * * * * * * * * * * * * * //

dimensions      [0 0 0 0 0 0 0];

internalField   nonuniform List<scalar> 
100
(
0.000192493
0.000404778
0.000751408
0.000995093
0.000998077
0.000905564
0.000936197
0.000884194
0.00094228
0.000888593
0.000931815
0.000908357
0.000925251
0.000900974
0.00092094
0.000912572
0.000916247
0.000913992
0.00091539
0.000921261
0.00102493
0.00114453
0.00128785
0.0013827
0.00141487
0.00141843
0.00144782
0.00146128
0.00132708
0.00126942
0.00132456
0.00137739
0.00142057
0.00139753
0.00135807
0.00131684
0.0013439
0.00134549
0.00140744
0.00141241
0.00139316
0.00135138
0.00132915
0.00130712
0.00131516
0.00135511
0.00139012
0.00138303
0.00138131
0.00134117
0.00127335
0.00123867
0.00122087
0.00120284
0.00117162
0.00113831
0.00114832
0.00115809
0.00116022
0.0012104
0.00126056
0.00126261
0.00127423
0.00125714
0.00127288
0.00129701
0.00131626
0.00138018
0.00145348
0.00153685
0.00166442
0.00173909
0.0017891
0.00186405
0.00190186
0.00192721
0.00196244
0.00198998
0.00199734
0.00199839
0.00201075
0.00201054
0.0020224
0.00203354
0.00203627
0.00203893
0.00202537
0.00202069
0.00200246
0.00202361
0.00204126
0.00202749
0.00203687
0.00201186
0.00200365
0.00197958
0.00199319
0.00199409
0.00200762
0.00199181
)
;

boundaryField
{
    inlet
    {
        type            fixedValue;
        value           uniform 0;
    }
    outlet
    {
        type            zeroGradient;
    }
    yzfaces
    {
        type            empty;
    }
}


// ************************************************************************* //
