/*--------------------------------*- C++ -*----------------------------------*\
| =========                 |                                                 |
| \\      /  F ield         | foam-extend: Open Source CFD                    |
|  \\    /   O peration     | Version:     5.0                                |
|   \\  /    A nd           | Web:         http://www.foam-extend.org         |
|    \\/     M anipulation  |                                                 |
\*---------------------------------------------------------------------------*/
FoamFile
{
    version     2.0;
    format      ascii;
    class       volScalarField;
    location    "80";
    object      CO2.water;
}
// * * * * * * * * * * * * * * * * * * * * * * * * * * * * * * * * * * * * * //

dimensions      [0 0 0 0 0 0 0];

internalField   nonuniform List<scalar> 
100
(
0.000187175
0.000397757
0.000751254
0.000996323
0.000954443
0.000890656
0.000931894
0.000897672
0.0009289
0.000892028
0.000931059
0.000908
0.000922761
0.000900637
0.000919343
0.000903673
0.000919517
0.000923216
0.00091647
0.000950307
0.00103702
0.00122631
0.00136113
0.00141522
0.00142627
0.00142602
0.00141793
0.00140051
0.00129055
0.00120256
0.0012481
0.00131873
0.00138244
0.00141176
0.00141221
0.00141312
0.00140698
0.00136772
0.00123664
0.00116229
0.00116462
0.00118017
0.0012843
0.00135751
0.00139454
0.00140469
0.00138108
0.00131691
0.00128871
0.00128262
0.00127781
0.00130345
0.00129602
0.00128053
0.00128513
0.00131879
0.00133857
0.00130691
0.00126091
0.00124758
0.00121445
0.00121849
0.00121379
0.00122055
0.00125304
0.00130924
0.00137088
0.00143503
0.00155035
0.001623
0.00169981
0.00178188
0.00179519
0.00182816
0.00187961
0.00194812
0.0019966
0.00201897
0.00202592
0.00202554
0.00202974
0.0020208
0.00203031
0.00204602
0.0020358
0.00204197
0.00204405
0.00204215
0.00204792
0.00205766
0.00204406
0.00203471
0.00203868
0.00204669
0.00205215
0.00204655
0.00204602
0.00206879
0.00206316
0.00203673
)
;

boundaryField
{
    inlet
    {
        type            fixedValue;
        value           uniform 0;
    }
    outlet
    {
        type            zeroGradient;
    }
    yzfaces
    {
        type            empty;
    }
}


// ************************************************************************* //
