/*--------------------------------*- C++ -*----------------------------------*\
| =========                 |                                                 |
| \\      /  F ield         | foam-extend: Open Source CFD                    |
|  \\    /   O peration     | Version:     5.0                                |
|   \\  /    A nd           | Web:         http://www.foam-extend.org         |
|    \\/     M anipulation  |                                                 |
\*---------------------------------------------------------------------------*/
FoamFile
{
    version     2.0;
    format      ascii;
    class       volScalarField;
    location    "80";
    object      H2O.gas;
}
// * * * * * * * * * * * * * * * * * * * * * * * * * * * * * * * * * * * * * //

dimensions      [0 0 0 0 0 0 0];

internalField   nonuniform List<scalar> 
100
(
0.000375221
0.000359481
0.000333779
0.00031571
0.000315488
0.000322348
0.000320077
0.000323933
0.000319626
0.000323607
0.000320402
0.000322141
0.000320888
0.000322689
0.000321208
0.000321828
0.000321556
0.000321723
0.00032162
0.000321184
0.000313497
0.00030463
0.000294002
0.000286969
0.000284584
0.00028432
0.000282141
0.000281143
0.000291093
0.000295369
0.00029128
0.000287363
0.000284162
0.000285869
0.000288796
0.000291853
0.000289846
0.000289728
0.000285135
0.000284766
0.000286194
0.000289291
0.00029094
0.000292573
0.000291977
0.000289015
0.000286419
0.000286945
0.000287073
0.000290049
0.000295078
0.000297649
0.000298969
0.000300306
0.000302621
0.000305091
0.000304348
0.000303623
0.000303466
0.000299745
0.000296026
0.000295874
0.000295012
0.00029628
0.000295113
0.000293323
0.000291895
0.000287156
0.000281721
0.00027554
0.00026608
0.000260544
0.000256836
0.000251278
0.000248474
0.000246595
0.000243983
0.000241941
0.000241395
0.000241317
0.000240401
0.000240416
0.000239537
0.000238711
0.000238508
0.000238311
0.000239316
0.000239663
0.000241015
0.000239447
0.000238138
0.00023916
0.000238464
0.000240318
0.000240927
0.000242712
0.000241703
0.000241636
0.000240632
0.000241805
)
;

boundaryField
{
    inlet
    {
        type            fixedValue;
        value           uniform 0;
    }
    outlet
    {
        type            zeroGradient;
    }
    yzfaces
    {
        type            empty;
    }
}


// ************************************************************************* //
