/*--------------------------------*- C++ -*----------------------------------*\
| =========                 |                                                 |
| \\      /  F ield         | foam-extend: Open Source CFD                    |
|  \\    /   O peration     | Version:     5.0                                |
|   \\  /    A nd           | Web:         http://www.foam-extend.org         |
|    \\/     M anipulation  |                                                 |
\*---------------------------------------------------------------------------*/
FoamFile
{
    version     2.0;
    format      ascii;
    class       volScalarField;
    location    "80";
    object      H2O.gas;
}
// * * * * * * * * * * * * * * * * * * * * * * * * * * * * * * * * * * * * * //

dimensions      [0 0 0 0 0 0 0];

internalField   nonuniform List<scalar> 
100
(
0.000375616
0.000360001
0.00033379
0.000315619
0.000318724
0.000323454
0.000320396
0.000322933
0.000320618
0.000323352
0.000320458
0.000322168
0.000321073
0.000322713
0.000321326
0.000322488
0.000321314
0.000321039
0.00032154
0.000319031
0.000312601
0.000298565
0.000288568
0.000284558
0.000283739
0.000283757
0.000284357
0.000285649
0.000293802
0.000300326
0.00029695
0.000291713
0.000286989
0.000284815
0.000284781
0.000284714
0.000285169
0.00028808
0.000297799
0.000303313
0.00030314
0.000301987
0.000294266
0.000288837
0.000286091
0.000285339
0.00028709
0.000291848
0.000293938
0.00029439
0.000294747
0.000292846
0.000293397
0.000294545
0.000294204
0.000291708
0.000290241
0.000292589
0.000296
0.000296989
0.000299445
0.000299145
0.000299493
0.000298992
0.000296583
0.000292416
0.000287846
0.000283089
0.000274538
0.000269152
0.000263456
0.000257371
0.000256384
0.000253939
0.000250124
0.000245045
0.00024145
0.000239791
0.000239276
0.000239304
0.000238993
0.000239656
0.00023895
0.000237785
0.000238543
0.000238086
0.000237932
0.000238072
0.000237644
0.000236922
0.000237931
0.000238624
0.000238329
0.000237735
0.00023733
0.000237746
0.000237785
0.000236097
0.000236514
0.000238474
)
;

boundaryField
{
    inlet
    {
        type            fixedValue;
        value           uniform 0;
    }
    outlet
    {
        type            zeroGradient;
    }
    yzfaces
    {
        type            empty;
    }
}


// ************************************************************************* //
