/*--------------------------------*- C++ -*----------------------------------*\
| =========                 |                                                 |
| \\      /  F ield         | foam-extend: Open Source CFD                    |
|  \\    /   O peration     | Version:     5.0                                |
|   \\  /    A nd           | Web:         http://www.foam-extend.org         |
|    \\/     M anipulation  |                                                 |
\*---------------------------------------------------------------------------*/
FoamFile
{
    version     2.0;
    format      ascii;
    class       volScalarField;
    location    "80";
    object      H2O.water;
}
// * * * * * * * * * * * * * * * * * * * * * * * * * * * * * * * * * * * * * //

dimensions      [0 0 0 0 0 0 0];

internalField   nonuniform List<scalar> 
100
(
0.00566477
0.013957
0.0274074
0.0362758
0.0328087
0.0274366
0.0276633
0.0240752
0.0248619
0.0216821
0.0231844
0.0213743
0.0220369
0.0207315
0.0214474
0.0204423
0.0208516
0.0203124
0.0194667
0.020909
0.0235554
0.0300692
0.033858
0.0342641
0.0334326
0.0331445
0.0329643
0.0313552
0.021441
0.0175272
0.023678
0.0303234
0.0339507
0.0338316
0.0324516
0.0327136
0.0322825
0.0288683
0.0181628
0.0156441
0.0190146
0.0217643
0.028253
0.0313431
0.0322953
0.0325917
0.0298232
0.0256439
0.0247417
0.0244465
0.0245515
0.0269232
0.0258527
0.0245581
0.0253027
0.0282145
0.028579
0.0256707
0.0230423
0.0224024
0.0197974
0.0201605
0.0190149
0.0195002
0.0209001
0.0229239
0.0252058
0.0283182
0.0326334
0.0350104
0.037777
0.0401935
0.0404666
0.0421318
0.0436309
0.0454502
0.0464368
0.0462175
0.0452931
0.0452917
0.0457396
0.0455191
0.0462584
0.0473496
0.0465318
0.0469176
0.0470957
0.0473429
0.0480869
0.0484048
0.0482224
0.0481284
0.048655
0.0489952
0.0489899
0.0482677
0.0485087
0.0494313
0.0484559
0.0465178
)
;

boundaryField
{
    inlet
    {
        type            fixedValue;
        value           uniform 0;
    }
    outlet
    {
        type            zeroGradient;
    }
    yzfaces
    {
        type            empty;
    }
}


// ************************************************************************* //
