/*--------------------------------*- C++ -*----------------------------------*\
| =========                 |                                                 |
| \\      /  F ield         | foam-extend: Open Source CFD                    |
|  \\    /   O peration     | Version:     5.0                                |
|   \\  /    A nd           | Web:         http://www.foam-extend.org         |
|    \\/     M anipulation  |                                                 |
\*---------------------------------------------------------------------------*/
FoamFile
{
    version     2.0;
    format      ascii;
    class       volScalarField;
    location    "80";
    object      H2O.water;
}
// * * * * * * * * * * * * * * * * * * * * * * * * * * * * * * * * * * * * * //

dimensions      [0 0 0 0 0 0 0];

internalField   nonuniform List<scalar> 
100
(
0.00588031
0.0142193
0.0274289
0.0362359
0.0345255
0.0279904
0.0279345
0.0232554
0.0253474
0.0213577
0.0233112
0.0214247
0.0222692
0.0204788
0.0211085
0.0199962
0.0197922
0.0198521
0.0199943
0.0202292
0.0237582
0.0240998
0.0264823
0.0320098
0.0348222
0.0355683
0.0370586
0.0352991
0.0243838
0.0222615
0.0271174
0.0315262
0.0335866
0.0311073
0.027798
0.025452
0.0280004
0.0283488
0.0327154
0.0323708
0.0304997
0.0277065
0.0261345
0.0258753
0.027315
0.0298867
0.0313656
0.031202
0.0306657
0.0277088
0.023144
0.0214801
0.0210257
0.0197181
0.0177192
0.0158751
0.0171542
0.0179798
0.0189432
0.0222574
0.024463
0.0237336
0.0241449
0.0226933
0.0233973
0.0239041
0.023876
0.0262107
0.0289354
0.0318305
0.0366416
0.0384304
0.0392065
0.0416245
0.042829
0.0438255
0.0454461
0.0466165
0.0467232
0.0461284
0.0456431
0.0449698
0.045506
0.0462451
0.045942
0.0465431
0.0464043
0.0466177
0.045215
0.0463918
0.0462531
0.0450179
0.0455204
0.0451088
0.0461194
0.0457712
0.0462528
0.0463287
0.0468685
0.0451577
)
;

boundaryField
{
    inlet
    {
        type            fixedValue;
        value           uniform 0;
    }
    outlet
    {
        type            zeroGradient;
    }
    yzfaces
    {
        type            empty;
    }
}


// ************************************************************************* //
