/*--------------------------------*- C++ -*----------------------------------*\
| =========                 |                                                 |
| \\      /  F ield         | foam-extend: Open Source CFD                    |
|  \\    /   O peration     | Version:     5.0                                |
|   \\  /    A nd           | Web:         http://www.foam-extend.org         |
|    \\/     M anipulation  |                                                 |
\*---------------------------------------------------------------------------*/
FoamFile
{
    version     2.0;
    format      ascii;
    class       volScalarField;
    location    "80";
    object      Na.water;
}
// * * * * * * * * * * * * * * * * * * * * * * * * * * * * * * * * * * * * * //

dimensions      [0 0 0 0 0 0 0];

internalField   nonuniform List<scalar> 
100
(
0.000627945
0.000393739
0.000214461
0.000328066
0.00123889
0.00279211
0.00338773
0.00476305
0.00479528
0.0057977
0.00562362
0.00613147
0.00602187
0.00646721
0.00652493
0.00692592
0.00709351
0.00702201
0.00697208
0.00696518
0.00711996
0.00916542
0.0106319
0.00962327
0.00881146
0.00850591
0.00830526
0.00943429
0.012398
0.0123909
0.0109925
0.00976912
0.00954078
0.0103509
0.0112729
0.0116828
0.0109146
0.0107767
0.00974197
0.0100029
0.0105803
0.0111989
0.0115677
0.0112839
0.010717
0.0101712
0.010079
0.0100264
0.0102655
0.0109994
0.0120261
0.0122115
0.012116
0.0124303
0.0128558
0.0131597
0.0127086
0.0124838
0.0120412
0.0113072
0.0111333
0.0115345
0.0115502
0.0119574
0.0118956
0.0120889
0.0124541
0.0124697
0.0124685
0.0125671
0.0125227
0.0130085
0.0135455
0.0137197
0.0138229
0.0137968
0.0136477
0.0135806
0.0136601
0.0139776
0.0144469
0.0147845
0.0147405
0.0145735
0.0147786
0.0145324
0.0143441
0.0141476
0.0145107
0.0143152
0.0147122
0.0150738
0.0149913
0.0147241
0.0140707
0.0138004
0.0138082
0.0137854
0.0137685
0.0143386
)
;

boundaryField
{
    inlet
    {
        type            fixedValue;
        value           uniform 0;
    }
    outlet
    {
        type            zeroGradient;
    }
    yzfaces
    {
        type            empty;
    }
}


// ************************************************************************* //
