/*--------------------------------*- C++ -*----------------------------------*\
| =========                 |                                                 |
| \\      /  F ield         | foam-extend: Open Source CFD                    |
|  \\    /   O peration     | Version:     5.0                                |
|   \\  /    A nd           | Web:         http://www.foam-extend.org         |
|    \\/     M anipulation  |                                                 |
\*---------------------------------------------------------------------------*/
FoamFile
{
    version     2.0;
    format      ascii;
    class       volScalarField;
    location    "80";
    object      Na.water;
}
// * * * * * * * * * * * * * * * * * * * * * * * * * * * * * * * * * * * * * //

dimensions      [0 0 0 0 0 0 0];

internalField   nonuniform List<scalar> 
100
(
0.000637253
0.000394822
0.000222443
0.000331181
0.00128837
0.0027921
0.00344363
0.00460365
0.00479109
0.00569727
0.00567011
0.00614667
0.00608942
0.00633068
0.00632107
0.0065349
0.00662431
0.00696529
0.00726057
0.0071676
0.00744845
0.00769945
0.00830532
0.00910344
0.00972798
0.00987049
0.00981048
0.0102895
0.0132062
0.0135301
0.0112984
0.00928451
0.00865229
0.00925359
0.00995195
0.00983483
0.00993405
0.0109127
0.0138393
0.013721
0.0120802
0.0109937
0.0096796
0.0094922
0.00970311
0.00974081
0.0106891
0.0115885
0.0115209
0.0115557
0.0114134
0.0107033
0.0111021
0.0114569
0.0111688
0.010334
0.010518
0.0113822
0.0118447
0.0119154
0.0126062
0.0125005
0.0129886
0.0128767
0.0127779
0.0128078
0.0128061
0.012441
0.0124194
0.0125814
0.0126266
0.0129455
0.0130529
0.0128359
0.0130348
0.0133918
0.0137956
0.014326
0.0149146
0.0149015
0.0147541
0.0146977
0.0145071
0.0142504
0.0144661
0.0143936
0.0143392
0.0141754
0.0139089
0.0139238
0.0137616
0.0136441
0.0134547
0.0134319
0.0135396
0.0137939
0.0136658
0.0136259
0.0140106
0.0144949
)
;

boundaryField
{
    inlet
    {
        type            fixedValue;
        value           uniform 0;
    }
    outlet
    {
        type            zeroGradient;
    }
    yzfaces
    {
        type            empty;
    }
}


// ************************************************************************* //
