/*--------------------------------*- C++ -*----------------------------------*\
| =========                 |                                                 |
| \\      /  F ield         | foam-extend: Open Source CFD                    |
|  \\    /   O peration     | Version:     5.0                                |
|   \\  /    A nd           | Web:         http://www.foam-extend.org         |
|    \\/     M anipulation  |                                                 |
\*---------------------------------------------------------------------------*/
FoamFile
{
    version     2.0;
    format      ascii;
    class       surfaceScalarField;
    location    "80";
    object      phi;
}
// * * * * * * * * * * * * * * * * * * * * * * * * * * * * * * * * * * * * * //

dimensions      [0 3 -1 0 0 0 0];

internalField   nonuniform List<scalar> 
99
(
1.22214e-06
1.20995e-06
1.22351e-06
1.21948e-06
1.22091e-06
1.2088e-06
1.2096e-06
1.21333e-06
1.19389e-06
1.20896e-06
1.1992e-06
1.20032e-06
1.2071e-06
1.21442e-06
1.22809e-06
1.21573e-06
1.22639e-06
1.2146e-06
1.20417e-06
1.19268e-06
1.18675e-06
1.16835e-06
1.17948e-06
1.17853e-06
1.1751e-06
1.16455e-06
1.16887e-06
1.14424e-06
1.13667e-06
1.11995e-06
1.12652e-06
1.12674e-06
1.13584e-06
1.14118e-06
1.14746e-06
1.15009e-06
1.1478e-06
1.13439e-06
1.10772e-06
1.11006e-06
1.09624e-06
1.1067e-06
1.11318e-06
1.12786e-06
1.12925e-06
1.12187e-06
1.10668e-06
1.09488e-06
1.0768e-06
1.08464e-06
1.08776e-06
1.08993e-06
1.09099e-06
1.09611e-06
1.10196e-06
1.10296e-06
1.11286e-06
1.10214e-06
1.09802e-06
1.08246e-06
1.08233e-06
1.07312e-06
1.0665e-06
1.05725e-06
1.05045e-06
1.02655e-06
1.02432e-06
1.0065e-06
1.00275e-06
9.90714e-07
9.84949e-07
9.80774e-07
9.79884e-07
9.73514e-07
9.68687e-07
9.66018e-07
9.69364e-07
9.78084e-07
9.61009e-07
9.51713e-07
9.56687e-07
9.59636e-07
9.59241e-07
9.5725e-07
9.59447e-07
9.6462e-07
9.66439e-07
9.66995e-07
9.71904e-07
9.76836e-07
9.84423e-07
9.82219e-07
9.82795e-07
9.88001e-07
9.88516e-07
9.95531e-07
9.99894e-07
1.00409e-06
1.01213e-06
)
;

boundaryField
{
    inlet
    {
        type            calculated;
        value           uniform -1.225e-06;
    }
    outlet
    {
        type            calculated;
        value           uniform 1.00545e-06;
    }
    yzfaces
    {
        type            empty;
    }
}


// ************************************************************************* //
