/*--------------------------------*- C++ -*----------------------------------*\
| =========                 |                                                 |
| \\      /  F ield         | foam-extend: Open Source CFD                    |
|  \\    /   O peration     | Version:     5.0                                |
|   \\  /    A nd           | Web:         http://www.foam-extend.org         |
|    \\/     M anipulation  |                                                 |
\*---------------------------------------------------------------------------*/
FoamFile
{
    version     2.0;
    format      ascii;
    class       surfaceScalarField;
    location    "80";
    object      phi;
}
// * * * * * * * * * * * * * * * * * * * * * * * * * * * * * * * * * * * * * //

dimensions      [0 3 -1 0 0 0 0];

internalField   nonuniform List<scalar> 
99
(
1.21985e-06
1.22188e-06
1.21785e-06
1.26802e-06
1.26707e-06
1.26555e-06
1.27227e-06
1.26434e-06
1.27036e-06
1.2561e-06
1.26059e-06
1.26055e-06
1.25642e-06
1.24934e-06
1.23616e-06
1.24629e-06
1.23922e-06
1.24334e-06
1.24412e-06
1.23884e-06
1.24076e-06
1.23655e-06
1.24826e-06
1.25796e-06
1.2627e-06
1.25554e-06
1.27225e-06
1.28133e-06
1.26867e-06
1.2796e-06
1.28397e-06
1.27828e-06
1.26267e-06
1.27451e-06
1.27897e-06
1.28726e-06
1.29308e-06
1.2977e-06
1.29463e-06
1.30806e-06
1.31264e-06
1.31081e-06
1.32184e-06
1.32681e-06
1.33472e-06
1.32216e-06
1.32778e-06
1.33711e-06
1.3345e-06
1.34289e-06
1.33931e-06
1.33961e-06
1.32834e-06
1.32954e-06
1.34234e-06
1.35448e-06
1.35221e-06
1.34726e-06
1.34272e-06
1.34866e-06
1.35289e-06
1.34466e-06
1.35874e-06
1.36409e-06
1.37595e-06
1.37424e-06
1.38263e-06
1.39469e-06
1.40501e-06
1.40197e-06
1.40766e-06
1.40446e-06
1.40929e-06
1.406e-06
1.41497e-06
1.42544e-06
1.41466e-06
1.42185e-06
1.41651e-06
1.4227e-06
1.42441e-06
1.42831e-06
1.43814e-06
1.44208e-06
1.45476e-06
1.46403e-06
1.47477e-06
1.47944e-06
1.47416e-06
1.47754e-06
1.48768e-06
1.49347e-06
1.49638e-06
1.49758e-06
1.49911e-06
1.50965e-06
1.50964e-06
1.51623e-06
1.52073e-06
)
;

boundaryField
{
    inlet
    {
        type            calculated;
        value           uniform -1.225e-06;
    }
    outlet
    {
        type            calculated;
        value           uniform 1.52364e-06;
    }
    yzfaces
    {
        type            empty;
    }
}


// ************************************************************************* //
