/*--------------------------------*- C++ -*----------------------------------*\
| =========                 |                                                 |
| \\      /  F ield         | foam-extend: Open Source CFD                    |
|  \\    /   O peration     | Version:     5.0                                |
|   \\  /    A nd           | Web:         http://www.foam-extend.org         |
|    \\/     M anipulation  |                                                 |
\*---------------------------------------------------------------------------*/
FoamFile
{
    version     2.0;
    format      ascii;
    class       surfaceScalarField;
    location    "80";
    object      phi.water;
}
// * * * * * * * * * * * * * * * * * * * * * * * * * * * * * * * * * * * * * //

dimensions      [0 3 -1 0 0 0 0];

internalField   nonuniform List<scalar> 
99
(
8.85477e-09
2.19321e-08
5.8376e-08
1.03708e-07
1.09125e-07
8.89159e-08
9.78783e-08
8.39665e-08
9.87634e-08
8.54868e-08
9.4676e-08
8.93823e-08
9.32631e-08
8.71852e-08
9.04056e-08
8.97479e-08
8.98927e-08
8.96661e-08
8.94899e-08
8.57193e-08
9.9851e-08
1.17353e-07
1.46555e-07
1.69944e-07
1.79066e-07
1.77276e-07
1.87567e-07
2.01777e-07
1.65512e-07
1.48654e-07
1.59873e-07
1.70944e-07
1.82797e-07
1.80553e-07
1.72202e-07
1.60679e-07
1.68122e-07
1.65168e-07
1.82625e-07
1.86665e-07
1.84482e-07
1.7422e-07
1.70075e-07
1.64335e-07
1.64837e-07
1.73099e-07
1.83649e-07
1.82814e-07
1.84385e-07
1.78406e-07
1.61691e-07
1.53523e-07
1.49232e-07
1.47379e-07
1.42084e-07
1.34517e-07
1.363e-07
1.3795e-07
1.35168e-07
1.45365e-07
1.58322e-07
1.57756e-07
1.63328e-07
1.57906e-07
1.62287e-07
1.66995e-07
1.70441e-07
1.85096e-07
2.03176e-07
2.2073e-07
2.62293e-07
2.86181e-07
3.02639e-07
3.32561e-07
3.47602e-07
3.5766e-07
3.7293e-07
3.8708e-07
3.91433e-07
3.91187e-07
3.98797e-07
3.99209e-07
4.05922e-07
4.13209e-07
4.17556e-07
4.23058e-07
4.19366e-07
4.18733e-07
4.07477e-07
4.17526e-07
4.29987e-07
4.23901e-07
4.33329e-07
4.19759e-07
4.18209e-07
4.05209e-07
4.12774e-07
4.14188e-07
4.25325e-07
)
;

boundaryField
{
    inlet
    {
        type            fixedValue;
        value           uniform 0;
    }
    outlet
    {
        type            calculated;
        value           uniform 4.199e-07;
    }
    yzfaces
    {
        type            empty;
    }
}


// ************************************************************************* //
