/*--------------------------------*- C++ -*----------------------------------*\
| =========                 |                                                 |
| \\      /  F ield         | foam-extend: Open Source CFD                    |
|  \\    /   O peration     | Version:     5.0                                |
|   \\  /    A nd           | Web:         http://www.foam-extend.org         |
|    \\/     M anipulation  |                                                 |
\*---------------------------------------------------------------------------*/
FoamFile
{
    version     2.0;
    format      ascii;
    class       volVectorField;
    location    "80";
    object      U.gas;
}
// * * * * * * * * * * * * * * * * * * * * * * * * * * * * * * * * * * * * * //

dimensions      [0 1 -1 0 0 0 0];

internalField   nonuniform List<vector> 
100
(
(0.00517908 0 0)
(0.0053979 0 0)
(0.00580441 0 0)
(0.00624412 0 0)
(0.00636742 0 0)
(0.00622782 0 0)
(0.00628631 0 0)
(0.00620899 0 0)
(0.00628779 0 0)
(0.00619009 0 0)
(0.00622809 0 0)
(0.00620507 0 0)
(0.00621911 0 0)
(0.00615702 0 0)
(0.00613549 0 0)
(0.0061159 0 0)
(0.00612871 0 0)
(0.00611824 0 0)
(0.00613232 0 0)
(0.00612938 0 0)
(0.00626864 0 0)
(0.00643925 0 0)
(0.00668333 0 0)
(0.00689639 0 0)
(0.0069883 0 0)
(0.00698629 0 0)
(0.00706516 0 0)
(0.0071602 0 0)
(0.00691161 0 0)
(0.00681602 0 0)
(0.00695338 0 0)
(0.00703961 0 0)
(0.00705485 0 0)
(0.00700126 0 0)
(0.0069781 0 0)
(0.00694335 0 0)
(0.00703053 0 0)
(0.00706061 0 0)
(0.00717536 0 0)
(0.00720999 0 0)
(0.00722447 0 0)
(0.00715755 0 0)
(0.00714515 0 0)
(0.00715061 0 0)
(0.00720067 0 0)
(0.00725939 0 0)
(0.0073023 0 0)
(0.00732879 0 0)
(0.00734452 0 0)
(0.00728699 0 0)
(0.00718061 0 0)
(0.00711431 0 0)
(0.00705598 0 0)
(0.00699936 0 0)
(0.00698431 0 0)
(0.00699481 0 0)
(0.0070383 0 0)
(0.00703556 0 0)
(0.00701408 0 0)
(0.00710288 0 0)
(0.0072154 0 0)
(0.00720632 0 0)
(0.00724244 0 0)
(0.00726357 0 0)
(0.00733841 0 0)
(0.00740881 0 0)
(0.00746105 0 0)
(0.00763619 0 0)
(0.0078387 0 0)
(0.00802549 0 0)
(0.00830251 0 0)
(0.008469 0 0)
(0.00858379 0 0)
(0.00876398 0 0)
(0.00886751 0 0)
(0.00898908 0 0)
(0.00907521 0 0)
(0.0091305 0 0)
(0.00915153 0 0)
(0.00915581 0 0)
(0.00921448 0 0)
(0.00922983 0 0)
(0.00930658 0 0)
(0.00938012 0 0)
(0.00944013 0 0)
(0.0095188 0 0)
(0.00954547 0 0)
(0.00958481 0 0)
(0.00953255 0 0)
(0.00958805 0 0)
(0.00967905 0 0)
(0.00968888 0 0)
(0.00974571 0 0)
(0.00968646 0 0)
(0.00967658 0 0)
(0.00964969 0 0)
(0.0097259 0 0)
(0.00974715 0 0)
(0.0098208 0 0)
(0.00979639 0 0)
)
;

boundaryField
{
    inlet
    {
        type            fixedValue;
        value           uniform (0.005 0 0);
    }
    outlet
    {
        type            zeroGradient;
    }
    yzfaces
    {
        type            empty;
    }
}


// ************************************************************************* //
