/*--------------------------------*- C++ -*----------------------------------*\
| =========                 |                                                 |
| \\      /  F ield         | foam-extend: Open Source CFD                    |
|  \\    /   O peration     | Version:     5.0                                |
|   \\  /    A nd           | Web:         http://www.foam-extend.org         |
|    \\/     M anipulation  |                                                 |
\*---------------------------------------------------------------------------*/
FoamFile
{
    version     2.0;
    format      ascii;
    class       volVectorField;
    location    "80";
    object      U.gas;
}
// * * * * * * * * * * * * * * * * * * * * * * * * * * * * * * * * * * * * * //

dimensions      [0 1 -1 0 0 0 0];

internalField   nonuniform List<vector> 
100
(
(0.00517849 0 0)
(0.00536886 0 0)
(0.00578935 0 0)
(0.00613827 0 0)
(0.00606827 0 0)
(0.00595557 0 0)
(0.00598495 0 0)
(0.00594894 0 0)
(0.00595308 0 0)
(0.00589212 0 0)
(0.00595845 0 0)
(0.00590527 0 0)
(0.00594505 0 0)
(0.00594958 0 0)
(0.00602716 0 0)
(0.00600863 0 0)
(0.00602639 0 0)
(0.00602835 0 0)
(0.00596424 0 0)
(0.0059561 0 0)
(0.00603171 0 0)
(0.00624294 0 0)
(0.00642796 0 0)
(0.006539 0 0)
(0.00654267 0 0)
(0.00650275 0 0)
(0.00647207 0 0)
(0.00638788 0 0)
(0.00612953 0 0)
(0.00593991 0 0)
(0.00598197 0 0)
(0.00610355 0 0)
(0.00622428 0 0)
(0.00630775 0 0)
(0.00633935 0 0)
(0.00636552 0 0)
(0.00635652 0 0)
(0.00625139 0 0)
(0.00594773 0 0)
(0.00578331 0 0)
(0.0057588 0 0)
(0.00577143 0 0)
(0.0059644 0 0)
(0.00612798 0 0)
(0.00622675 0 0)
(0.00622456 0 0)
(0.00612511 0 0)
(0.00595585 0 0)
(0.00583678 0 0)
(0.00580148 0 0)
(0.00582419 0 0)
(0.00587554 0 0)
(0.00587261 0 0)
(0.00586715 0 0)
(0.00590374 0 0)
(0.00597135 0 0)
(0.00602913 0 0)
(0.005979 0 0)
(0.0058734 0 0)
(0.00580357 0 0)
(0.00571615 0 0)
(0.00569811 0 0)
(0.00564968 0 0)
(0.00561711 0 0)
(0.00561864 0 0)
(0.00561279 0 0)
(0.00562591 0 0)
(0.00565957 0 0)
(0.00576559 0 0)
(0.00582504 0 0)
(0.00588909 0 0)
(0.00598754 0 0)
(0.00598828 0 0)
(0.00601977 0 0)
(0.00606973 0 0)
(0.00616067 0 0)
(0.00624275 0 0)
(0.00631809 0 0)
(0.00630189 0 0)
(0.00621479 0 0)
(0.00620795 0 0)
(0.00621688 0 0)
(0.00624375 0 0)
(0.00626383 0 0)
(0.00624388 0 0)
(0.00627977 0 0)
(0.00630532 0 0)
(0.00630988 0 0)
(0.00633934 0 0)
(0.0063892 0 0)
(0.00640297 0 0)
(0.00640396 0 0)
(0.00640765 0 0)
(0.00644169 0 0)
(0.00646953 0 0)
(0.0064826 0 0)
(0.0065195 0 0)
(0.00659143 0 0)
(0.00661805 0 0)
(0.00657213 0 0)
)
;

boundaryField
{
    inlet
    {
        type            fixedValue;
        value           uniform (0.005 0 0);
    }
    outlet
    {
        type            zeroGradient;
    }
    yzfaces
    {
        type            empty;
    }
}


// ************************************************************************* //
