/*--------------------------------*- C++ -*----------------------------------*\
| =========                 |                                                 |
| \\      /  F ield         | foam-extend: Open Source CFD                    |
|  \\    /   O peration     | Version:     5.0                                |
|   \\  /    A nd           | Web:         http://www.foam-extend.org         |
|    \\/     M anipulation  |                                                 |
\*---------------------------------------------------------------------------*/
FoamFile
{
    version     2.0;
    format      ascii;
    class       volVectorField;
    location    "80";
    object      U.water;
}
// * * * * * * * * * * * * * * * * * * * * * * * * * * * * * * * * * * * * * //

dimensions      [0 1 -1 0 0 0 0];

internalField   nonuniform List<vector> 
100
(
(5.61123e-06 0 0)
(1.54612e-05 0 0)
(3.45002e-05 0 0)
(6.31305e-05 0 0)
(8.46509e-05 0 0)
(8.374e-05 0 0)
(7.45814e-05 0 0)
(7.662e-05 0 0)
(7.24108e-05 0 0)
(7.72777e-05 0 0)
(7.22597e-05 0 0)
(7.59672e-05 0 0)
(7.38235e-05 0 0)
(7.47621e-05 0 0)
(7.20671e-05 0 0)
(7.38326e-05 0 0)
(7.3254e-05 0 0)
(7.33987e-05 0 0)
(7.32425e-05 0 0)
(7.33896e-05 0 0)
(7.6317e-05 0 0)
(8.94292e-05 0 0)
(0.000107131 0 0)
(0.000127839 0 0)
(0.000141799 0 0)
(0.000146149 0 0)
(0.000148358 0 0)
(0.000154744 0 0)
(0.000152834 0 0)
(0.000131152 0 0)
(0.000125894 0 0)
(0.000134908 0 0)
(0.000142892 0 0)
(0.00014787 0 0)
(0.000143767 0 0)
(0.000137522 0 0)
(0.000133553 0 0)
(0.000137563 0 0)
(0.000140516 0 0)
(0.000149747 0 0)
(0.000150601 0 0)
(0.000146893 0 0)
(0.000140483 0 0)
(0.000137196 0 0)
(0.000135089 0 0)
(0.000137794 0 0)
(0.000144374 0 0)
(0.000149441 0 0)
(0.000148552 0 0)
(0.000147216 0 0)
(0.000139865 0 0)
(0.00012923 0 0)
(0.000123705 0 0)
(0.000120695 0 0)
(0.000117942 0 0)
(0.000113934 0 0)
(0.000110644 0 0)
(0.000111918 0 0)
(0.000112746 0 0)
(0.000114606 0 0)
(0.000122733 0 0)
(0.000129087 0 0)
(0.000130116 0 0)
(0.000131875 0 0)
(0.000130937 0 0)
(0.000134306 0 0)
(0.000138856 0 0)
(0.000145332 0 0)
(0.000158795 0 0)
(0.000174504 0 0)
(0.000196124 0 0)
(0.000223135 0 0)
(0.000241146 0 0)
(0.000257839 0 0)
(0.000276536 0 0)
(0.000287886 0 0)
(0.000297981 0 0)
(0.000309473 0 0)
(0.000317628 0 0)
(0.00031984 0 0)
(0.000321649 0 0)
(0.000325898 0 0)
(0.00032831 0 0)
(0.000333674 0 0)
(0.000338511 0 0)
(0.00034175 0 0)
(0.00034376 0 0)
(0.000341253 0 0)
(0.000338661 0 0)
(0.000336112 0 0)
(0.000343976 0 0)
(0.000349148 0 0)
(0.00034822 0 0)
(0.000348763 0 0)
(0.000341124 0 0)
(0.000337366 0 0)
(0.00033299 0 0)
(0.000337866 0 0)
(0.000341462 0 0)
(0.000346059 0 0)
)
;

boundaryField
{
    inlet
    {
        type            fixedValue;
        value           uniform (0 0 0);
    }
    outlet
    {
        type            zeroGradient;
    }
    yzfaces
    {
        type            empty;
    }
}


// ************************************************************************* //
