/*--------------------------------*- C++ -*----------------------------------*\
| =========                 |                                                 |
| \\      /  F ield         | foam-extend: Open Source CFD                    |
|  \\    /   O peration     | Version:     5.0                                |
|   \\  /    A nd           | Web:         http://www.foam-extend.org         |
|    \\/     M anipulation  |                                                 |
\*---------------------------------------------------------------------------*/
FoamFile
{
    version     2.0;
    format      ascii;
    class       volVectorField;
    location    "80";
    object      U.water;
}
// * * * * * * * * * * * * * * * * * * * * * * * * * * * * * * * * * * * * * //

dimensions      [0 1 -1 0 0 0 0];

internalField   nonuniform List<vector> 
100
(
(5.42309e-06 0 0)
(1.48891e-05 0 0)
(3.4062e-05 0 0)
(6.15327e-05 0 0)
(8.09384e-05 0 0)
(7.55218e-05 0 0)
(6.94089e-05 0 0)
(7.27259e-05 0 0)
(6.97033e-05 0 0)
(7.20195e-05 0 0)
(6.92782e-05 0 0)
(7.22093e-05 0 0)
(7.05657e-05 0 0)
(7.213e-05 0 0)
(7.08044e-05 0 0)
(7.22718e-05 0 0)
(7.11118e-05 0 0)
(7.25871e-05 0 0)
(7.21195e-05 0 0)
(7.15289e-05 0 0)
(7.61359e-05 0 0)
(8.9194e-05 0 0)
(0.000112454 0 0)
(0.000129796 0 0)
(0.000136675 0 0)
(0.000137619 0 0)
(0.000137219 0 0)
(0.000134489 0 0)
(0.00012749 0 0)
(0.000110408 0 0)
(0.000100887 0 0)
(0.00010842 0 0)
(0.000118992 0 0)
(0.000128276 0 0)
(0.000132507 0 0)
(0.000133034 0 0)
(0.000133043 0 0)
(0.00012992 0 0)
(0.000119898 0 0)
(0.000101333 0 0)
(9.30439e-05 0 0)
(9.35944e-05 0 0)
(9.90516e-05 0 0)
(0.000113086 0 0)
(0.000123119 0 0)
(0.000127491 0 0)
(0.000126871 0 0)
(0.000120745 0 0)
(0.000110769 0 0)
(0.000107273 0 0)
(0.000107171 0 0)
(0.000107554 0 0)
(0.000110051 0 0)
(0.000108983 0 0)
(0.000108194 0 0)
(0.000110142 0 0)
(0.000115088 0 0)
(0.00011645 0 0)
(0.000110734 0 0)
(0.000104201 0 0)
(0.000100977 0 0)
(9.7152e-05 0 0)
(9.68216e-05 0 0)
(9.57749e-05 0 0)
(9.67409e-05 0 0)
(0.000100011 0 0)
(0.000106325 0 0)
(0.000113761 0 0)
(0.000123969 0 0)
(0.00013927 0 0)
(0.000150046 0 0)
(0.00016279 0 0)
(0.00017429 0 0)
(0.000177585 0 0)
(0.000183996 0 0)
(0.000195431 0 0)
(0.000210064 0 0)
(0.000220286 0 0)
(0.000222813 0 0)
(0.000220873 0 0)
(0.000221307 0 0)
(0.000222564 0 0)
(0.000221493 0 0)
(0.000223757 0 0)
(0.000226035 0 0)
(0.000226458 0 0)
(0.000229192 0 0)
(0.000228832 0 0)
(0.000228498 0 0)
(0.000231259 0 0)
(0.000234321 0 0)
(0.000232765 0 0)
(0.000230427 0 0)
(0.000231555 0 0)
(0.000234545 0 0)
(0.000236448 0 0)
(0.000236593 0 0)
(0.000239388 0 0)
(0.000244469 0 0)
(0.000241423 0 0)
)
;

boundaryField
{
    inlet
    {
        type            fixedValue;
        value           uniform (0 0 0);
    }
    outlet
    {
        type            zeroGradient;
    }
    yzfaces
    {
        type            empty;
    }
}


// ************************************************************************* //
