/*--------------------------------*- C++ -*----------------------------------*\
| =========                 |                                                 |
| \\      /  F ield         | foam-extend: Open Source CFD                    |
|  \\    /   O peration     | Version:     5.0                                |
|   \\  /    A nd           | Web:         http://www.foam-extend.org         |
|    \\/     M anipulation  |                                                 |
\*---------------------------------------------------------------------------*/
FoamFile
{
    version     2.0;
    format      ascii;
    class       volScalarField;
    location    "6.8139";
    object      CO2.water;
}
// * * * * * * * * * * * * * * * * * * * * * * * * * * * * * * * * * * * * * //

dimensions      [0 0 0 0 0 0 0];

internalField   nonuniform List<scalar> 
100
(
7.66306e-05
1.82738e-06
3.52998e-08
6.15862e-10
1.00967e-11
1.58539e-13
2.41099e-15
3.57645e-17
5.20132e-19
7.44081e-21
1.04965e-22
1.46339e-24
2.01951e-26
2.76207e-28
3.74812e-30
5.05116e-32
6.76456e-34
9.00839e-36
1.19316e-37
1.573e-39
2.06498e-41
2.70067e-43
3.51955e-45
4.57116e-47
5.91837e-49
7.64158e-51
9.84109e-53
1.26435e-54
1.62079e-56
2.07353e-58
2.64749e-60
3.3752e-62
4.29541e-64
5.46012e-66
6.93088e-68
8.78607e-70
1.11254e-71
1.40762e-73
1.77885e-75
2.2466e-77
2.83481e-79
3.57457e-81
4.50361e-83
5.67215e-85
7.13965e-87
8.98382e-89
1.12958e-90
1.41917e-92
1.78229e-94
2.23656e-96
2.805e-98
3.51637e-100
4.40587e-102
5.51971e-104
6.91486e-106
8.66357e-108
1.0853e-109
1.35972e-111
1.70367e-113
2.13557e-115
2.6776e-117
3.35913e-119
4.21551e-121
5.29167e-123
6.6453e-125
8.34697e-127
1.04855e-128
1.31699e-130
1.65312e-132
2.07355e-134
2.59799e-136
3.25156e-138
4.0632e-140
5.06907e-142
6.3136e-144
7.84883e-146
9.7387e-148
1.20607e-149
1.491e-151
1.84105e-153
2.27017e-155
2.79583e-157
3.44134e-159
4.23737e-161
5.22153e-163
6.44561e-165
7.97301e-167
9.89268e-169
1.23149e-170
1.53972e-172
1.93342e-174
2.43886e-176
3.09216e-178
3.93865e-180
5.04008e-182
6.48272e-184
8.38032e-186
1.0885e-187
1.42061e-189
1.86139e-191
)
;

boundaryField
{
    inlet
    {
        type            fixedValue;
        value           uniform 0;
    }
    outlet
    {
        type            zeroGradient;
    }
    yzfaces
    {
        type            empty;
    }
}


// ************************************************************************* //
