/*--------------------------------*- C++ -*----------------------------------*\
| =========                 |                                                 |
| \\      /  F ield         | foam-extend: Open Source CFD                    |
|  \\    /   O peration     | Version:     5.0                                |
|   \\  /    A nd           | Web:         http://www.foam-extend.org         |
|    \\/     M anipulation  |                                                 |
\*---------------------------------------------------------------------------*/
FoamFile
{
    version     2.0;
    format      ascii;
    class       volScalarField;
    location    "1";
    object      alpha.gas;
}
// * * * * * * * * * * * * * * * * * * * * * * * * * * * * * * * * * * * * * //

dimensions      [0 0 0 0 0 0 0];

internalField   nonuniform List<scalar> 
100
(
0.112181
0.0958157
0.0840956
0.0781936
0.0691458
0.0605181
0.0536085
0.0450953
0.0325896
0.004557
0.0281793
0.0279365
0.0277867
0.0274442
0.0267806
0.0257483
0.0243439
0.0226015
0.0205783
0.0184
0.0162398
0.0143051
0.0127508
0.0116362
0.0109248
0.0105007
0.0102653
0.0101389
0.0100736
0.0100375
0.0100207
0.0100117
0.0100075
0.0100036
0.0100003
0.0099978
0.00999692
0.00999569
0.00999325
0.00999415
0.00999831
0.00999924
0.00999767
0.00999779
0.00999767
0.0100003
0.0100024
0.0100011
0.0100012
0.0100013
0.00999944
0.00999975
0.0100021
0.010001
0.00999997
0.00999904
0.00999964
0.00999845
0.0100011
0.0100026
0.00999972
0.00999962
0.0100012
0.0100012
0.0100018
0.0100025
0.0100028
0.0100045
0.0100024
0.00999997
0.00999938
0.00999684
0.00999496
0.00999612
0.00999357
0.00999411
0.00999359
0.00999531
0.00999723
0.00999973
0.00999846
0.00999823
0.0100004
0.0100001
0.01
0.0100018
0.0100013
0.0100022
0.0100013
0.00999985
0.0100041
0.0100021
0.0100033
0.0100039
0.0100017
0.0100036
0.0100009
0.00999961
0.00999773
0.00999452
)
;

boundaryField
{
    inlet
    {
        type            fixedValue;
        value           uniform 0.2;
    }
    outlet
    {
        type            zeroGradient;
    }
    yzfaces
    {
        type            empty;
    }
}


// ************************************************************************* //
