/*--------------------------------*- C++ -*----------------------------------*\
| =========                 |                                                 |
| \\      /  F ield         | foam-extend: Open Source CFD                    |
|  \\    /   O peration     | Version:     5.0                                |
|   \\  /    A nd           | Web:         http://www.foam-extend.org         |
|    \\/     M anipulation  |                                                 |
\*---------------------------------------------------------------------------*/
FoamFile
{
    version     2.0;
    format      ascii;
    class       volScalarField;
    location    "1";
    object      H2O.gas;
}
// * * * * * * * * * * * * * * * * * * * * * * * * * * * * * * * * * * * * * //

dimensions      [0 0 0 0 0 0 0];

internalField   nonuniform List<scalar> 
100
(
0.000218469
0.000186598
0.000163774
0.00015228
0.000134659
0.000117857
0.000104401
8.78218e-05
6.34672e-05
8.87463e-06
0.00326681
0.00540371
0.00769031
0.0100057
0.012209
0.0141287
0.0155952
0.0164512
0.0166082
0.0160833
0.0150398
0.013774
0.0125378
0.0115708
0.0109026
0.0104919
0.0102613
0.0101344
0.0100631
0.0100298
0.0100198
0.0100084
0.0100015
0.010007
0.0100038
0.0100038
0.0100084
0.0100085
0.0100016
0.00999863
0.00999971
0.00999904
0.0100008
0.010005
0.00999922
0.0100016
0.0100004
0.00999701
0.00999962
0.0100015
0.0100001
0.00999496
0.0100053
0.0100004
0.00999936
0.00999973
0.00999623
0.00999689
0.00999182
0.00999895
0.010002
0.0100023
0.0099993
0.0100005
0.00999985
0.00999564
0.0100038
0.0100025
0.0100044
0.00999949
0.0100074
0.0100037
0.0100004
0.0100044
0.0100031
0.00999909
0.00999396
0.00999688
0.00999444
0.00999705
0.0100024
0.0100033
0.0100017
0.0100002
0.00999636
0.00999574
0.00999872
0.00999151
0.00999518
0.00999487
0.00999384
0.01
0.0100014
0.0099952
0.00999664
0.00999393
0.0100004
0.00999637
0.00999833
0.00999443
)
;

boundaryField
{
    inlet
    {
        type            fixedValue;
        value           uniform 0;
    }
    outlet
    {
        type            zeroGradient;
    }
    yzfaces
    {
        type            empty;
    }
}


// ************************************************************************* //
