/*--------------------------------*- C++ -*----------------------------------*\
| =========                 |                                                 |
| \\      /  F ield         | foam-extend: Open Source CFD                    |
|  \\    /   O peration     | Version:     5.0                                |
|   \\  /    A nd           | Web:         http://www.foam-extend.org         |
|    \\/     M anipulation  |                                                 |
\*---------------------------------------------------------------------------*/
FoamFile
{
    version     2.0;
    format      ascii;
    class       surfaceScalarField;
    location    "1";
    object      phi;
}
// * * * * * * * * * * * * * * * * * * * * * * * * * * * * * * * * * * * * * //

dimensions      [0 3 -1 0 0 0 0];

internalField   nonuniform List<scalar> 
99
(
1.2243e-06
1.22657e-06
1.22433e-06
1.22598e-06
1.22829e-06
1.22762e-06
1.23037e-06
1.22925e-06
1.22935e-06
1.22678e-06
1.22714e-06
1.22752e-06
1.227e-06
1.22616e-06
1.22472e-06
1.22428e-06
1.22333e-06
1.22262e-06
1.22309e-06
1.22294e-06
1.22529e-06
1.22545e-06
1.2242e-06
1.22415e-06
1.22397e-06
1.22535e-06
1.22509e-06
1.22387e-06
1.22483e-06
1.22396e-06
1.22374e-06
1.22401e-06
1.22434e-06
1.22508e-06
1.22531e-06
1.22545e-06
1.22588e-06
1.22684e-06
1.22638e-06
1.2251e-06
1.22519e-06
1.22437e-06
1.22509e-06
1.22607e-06
1.22374e-06
1.22316e-06
1.22261e-06
1.2231e-06
1.22291e-06
1.22231e-06
1.22115e-06
1.22092e-06
1.22126e-06
1.22042e-06
1.22059e-06
1.21974e-06
1.21933e-06
1.21949e-06
1.21875e-06
1.21997e-06
1.22242e-06
1.22183e-06
1.22096e-06
1.22082e-06
1.22135e-06
1.22174e-06
1.223e-06
1.22474e-06
1.22465e-06
1.22641e-06
1.22733e-06
1.22648e-06
1.22746e-06
1.22897e-06
1.22866e-06
1.2279e-06
1.22806e-06
1.22697e-06
1.22683e-06
1.22928e-06
1.22877e-06
1.22994e-06
1.22994e-06
1.22967e-06
1.23028e-06
1.22921e-06
1.23006e-06
1.23015e-06
1.22987e-06
1.23051e-06
1.23152e-06
1.23297e-06
1.23129e-06
1.23087e-06
1.23041e-06
1.2319e-06
1.23197e-06
1.23134e-06
1.23073e-06
)
;

boundaryField
{
    inlet
    {
        type            calculated;
        value           uniform -1.225e-06;
    }
    outlet
    {
        type            calculated;
        value           uniform 1.23089e-06;
    }
    yzfaces
    {
        type            empty;
    }
}


// ************************************************************************* //
