/*--------------------------------*- C++ -*----------------------------------*\
| =========                 |                                                 |
| \\      /  F ield         | foam-extend: Open Source CFD                    |
|  \\    /   O peration     | Version:     5.0                                |
|   \\  /    A nd           | Web:         http://www.foam-extend.org         |
|    \\/     M anipulation  |                                                 |
\*---------------------------------------------------------------------------*/
FoamFile
{
    version     2.0;
    format      ascii;
    class       surfaceScalarField;
    location    "1";
    object      phi.water;
}
// * * * * * * * * * * * * * * * * * * * * * * * * * * * * * * * * * * * * * //

dimensions      [0 3 -1 0 0 0 0];

internalField   nonuniform List<scalar> 
99
(
4.27543e-07
6.92957e-07
1.01305e-06
1.23341e-06
1.55375e-06
1.99794e-06
2.45572e-06
3.02382e-06
4.33318e-06
4.72677e-06
4.8433e-06
4.86886e-06
4.87744e-06
4.90455e-06
4.96075e-06
5.05497e-06
5.17914e-06
5.33075e-06
5.50352e-06
5.67113e-06
5.82966e-06
5.94731e-06
6.02344e-06
6.07539e-06
6.10759e-06
6.13223e-06
6.14037e-06
6.14136e-06
6.14974e-06
6.14374e-06
6.14191e-06
6.14507e-06
6.14488e-06
6.14572e-06
6.14628e-06
6.14452e-06
6.14466e-06
6.1505e-06
6.15088e-06
6.14663e-06
6.14834e-06
6.14358e-06
6.14493e-06
6.15044e-06
6.14058e-06
6.13868e-06
6.13743e-06
6.13983e-06
6.13768e-06
6.13392e-06
6.12966e-06
6.12767e-06
6.1279e-06
6.12492e-06
6.1255e-06
6.12211e-06
6.12074e-06
6.12341e-06
6.12023e-06
6.12275e-06
6.13321e-06
6.1316e-06
6.12813e-06
6.1275e-06
6.13188e-06
6.13305e-06
6.13789e-06
6.14624e-06
6.14539e-06
6.15249e-06
6.15487e-06
6.15133e-06
6.1559e-06
6.16228e-06
6.16179e-06
6.1607e-06
6.16273e-06
6.15815e-06
6.15865e-06
6.16878e-06
6.16377e-06
6.1707e-06
6.17195e-06
6.17218e-06
6.17723e-06
6.17133e-06
6.17705e-06
6.17859e-06
6.17533e-06
6.18004e-06
6.18406e-06
6.18881e-06
6.18239e-06
6.18117e-06
6.17924e-06
6.18521e-06
6.18372e-06
6.18029e-06
6.17628e-06
)
;

boundaryField
{
    inlet
    {
        type            fixedValue;
        value           uniform 0;
    }
    outlet
    {
        type            calculated;
        value           uniform 6.17731e-06;
    }
    yzfaces
    {
        type            empty;
    }
}


// ************************************************************************* //
