/*--------------------------------*- C++ -*----------------------------------*\
| =========                 |                                                 |
| \\      /  F ield         | foam-extend: Open Source CFD                    |
|  \\    /   O peration     | Version:     5.0                                |
|   \\  /    A nd           | Web:         http://www.foam-extend.org         |
|    \\/     M anipulation  |                                                 |
\*---------------------------------------------------------------------------*/
FoamFile
{
    version     2.0;
    format      ascii;
    class       volScalarField;
    location    "1";
    object      S.gas;
}
// * * * * * * * * * * * * * * * * * * * * * * * * * * * * * * * * * * * * * //

dimensions      [0 0 0 0 0 0 0];

internalField   nonuniform List<scalar> 
100
(
0.561614
0.480788
0.418173
0.383495
0.344075
0.302026
0.266649
0.22756
0.164104
0.146034
0.140897
0.139682
0.138934
0.137221
0.133903
0.128742
0.12172
0.113007
0.102891
0.0920002
0.081199
0.0715253
0.063754
0.0581809
0.0546241
0.0525037
0.0513264
0.0506945
0.0503679
0.0501874
0.0501036
0.0500587
0.0500373
0.0500182
0.0500015
0.049989
0.0499846
0.0499785
0.0499662
0.0499708
0.0499916
0.0499962
0.0499884
0.049989
0.0499883
0.0500015
0.0500121
0.0500056
0.0500061
0.0500066
0.0499972
0.0499988
0.0500103
0.0500049
0.0499999
0.0499952
0.0499982
0.0499922
0.0500057
0.0500132
0.0499986
0.0499981
0.0500061
0.0500059
0.0500089
0.0500123
0.0500138
0.0500226
0.0500118
0.0499999
0.0499969
0.0499842
0.0499748
0.0499806
0.0499679
0.0499706
0.049968
0.0499766
0.0499862
0.0499987
0.0499923
0.0499912
0.0500019
0.0500006
0.0500002
0.050009
0.0500065
0.0500108
0.0500066
0.0499992
0.0500204
0.0500105
0.0500165
0.0500194
0.0500084
0.0500179
0.0500047
0.0499981
0.0499887
0.0499726
)
;

boundaryField
{
    inlet
    {
        type            calculated;
        value           uniform 1;
    }
    outlet
    {
        type            calculated;
        value           uniform 0.0499726;
    }
    yzfaces
    {
        type            empty;
    }
}


// ************************************************************************* //
