/*--------------------------------*- C++ -*----------------------------------*\
| =========                 |                                                 |
| \\      /  F ield         | foam-extend: Open Source CFD                    |
|  \\    /   O peration     | Version:     5.0                                |
|   \\  /    A nd           | Web:         http://www.foam-extend.org         |
|    \\/     M anipulation  |                                                 |
\*---------------------------------------------------------------------------*/
FoamFile
{
    version     2.0;
    format      ascii;
    class       volVectorField;
    location    "1";
    object      U.gas;
}
// * * * * * * * * * * * * * * * * * * * * * * * * * * * * * * * * * * * * * //

dimensions      [0 1 -1 0 0 0 0];

internalField   nonuniform List<vector> 
100
(
(0.00875156 0 0)
(0.00990559 0 0)
(0.0109967 0 0)
(0.0115592 0 0)
(0.012379 0 0)
(0.0132414 0 0)
(0.0137937 0 0)
(0.01438 0 0)
(0.015417 0 0)
(0.0127688 0 0)
(0.0117492 0 0)
(0.0114442 0 0)
(0.0113787 0 0)
(0.0113538 0 0)
(0.0112841 0 0)
(0.0111355 0 0)
(0.0108814 0 0)
(0.0104902 0 0)
(0.00994965 0 0)
(0.00925279 0 0)
(0.00842743 0 0)
(0.00753279 0 0)
(0.00666855 0 0)
(0.00594336 0 0)
(0.00541532 0 0)
(0.00508123 0 0)
(0.00488403 0 0)
(0.0047715 0 0)
(0.0047115 0 0)
(0.00468044 0 0)
(0.00466186 0 0)
(0.00465445 0 0)
(0.00465105 0 0)
(0.00465137 0 0)
(0.00465125 0 0)
(0.00465011 0 0)
(0.00465041 0 0)
(0.00465199 0 0)
(0.00465191 0 0)
(0.00464745 0 0)
(0.00464591 0 0)
(0.00464693 0 0)
(0.00464757 0 0)
(0.00464953 0 0)
(0.0046466 0 0)
(0.00464116 0 0)
(0.00464062 0 0)
(0.00464196 0 0)
(0.00464078 0 0)
(0.00463861 0 0)
(0.0046359 0 0)
(0.00463305 0 0)
(0.00463463 0 0)
(0.00463531 0 0)
(0.0046326 0 0)
(0.00463036 0 0)
(0.00462758 0 0)
(0.00462713 0 0)
(0.00462568 0 0)
(0.00462785 0 0)
(0.00463517 0 0)
(0.00463719 0 0)
(0.00463472 0 0)
(0.00463347 0 0)
(0.00463489 0 0)
(0.00463695 0 0)
(0.00463942 0 0)
(0.00464533 0 0)
(0.00464904 0 0)
(0.00465103 0 0)
(0.00465434 0 0)
(0.00465475 0 0)
(0.00465511 0 0)
(0.00465799 0 0)
(0.00466035 0 0)
(0.00465813 0 0)
(0.00465663 0 0)
(0.00465388 0 0)
(0.00465296 0 0)
(0.00465823 0 0)
(0.00466388 0 0)
(0.00466409 0 0)
(0.00466569 0 0)
(0.00466718 0 0)
(0.00466736 0 0)
(0.00466678 0 0)
(0.0046677 0 0)
(0.0046692 0 0)
(0.00466981 0 0)
(0.00467031 0 0)
(0.00467162 0 0)
(0.00467804 0 0)
(0.00467709 0 0)
(0.0046738 0 0)
(0.00467272 0 0)
(0.00467367 0 0)
(0.00467717 0 0)
(0.00467421 0 0)
(0.00467088 0 0)
(0.00467042 0 0)
)
;

boundaryField
{
    inlet
    {
        type            fixedValue;
        value           uniform (0.005 0 0);
    }
    outlet
    {
        type            zeroGradient;
    }
    yzfaces
    {
        type            empty;
    }
}


// ************************************************************************* //
