/*--------------------------------*- C++ -*----------------------------------*\
| =========                 |                                                 |
| \\      /  F ield         | foam-extend: Open Source CFD                    |
|  \\    /   O peration     | Version:     5.0                                |
|   \\  /    A nd           | Web:         http://www.foam-extend.org         |
|    \\/     M anipulation  |                                                 |
\*---------------------------------------------------------------------------*/
FoamFile
{
    version     2.0;
    format      ascii;
    class       volVectorField;
    location    "1";
    object      U.water;
}
// * * * * * * * * * * * * * * * * * * * * * * * * * * * * * * * * * * * * * //

dimensions      [0 1 -1 0 0 0 0];

internalField   nonuniform List<vector> 
100
(
(0.000190636 0 0)
(0.000460843 0 0)
(0.000693184 0 0)
(0.000920904 0 0)
(0.00114249 0 0)
(0.00145107 0 0)
(0.00182481 0 0)
(0.00226209 0 0)
(0.00297592 0 0)
(0.00368612 0 0)
(0.00390241 0 0)
(0.00396477 0 0)
(0.00398152 0 0)
(0.00399693 0 0)
(0.00403052 0 0)
(0.00409106 0 0)
(0.00417936 0 0)
(0.00429121 0 0)
(0.00442256 0 0)
(0.00456019 0 0)
(0.00469318 0 0)
(0.00480652 0 0)
(0.00488563 0 0)
(0.00493815 0 0)
(0.00497193 0 0)
(0.00499404 0 0)
(0.00500723 0 0)
(0.00500997 0 0)
(0.00501251 0 0)
(0.00501428 0 0)
(0.00501289 0 0)
(0.00501337 0 0)
(0.00501482 0 0)
(0.0050171 0 0)
(0.00501918 0 0)
(0.00502004 0 0)
(0.00502125 0 0)
(0.00502414 0 0)
(0.00502522 0 0)
(0.00502173 0 0)
(0.00501926 0 0)
(0.00501765 0 0)
(0.00501738 0 0)
(0.00502093 0 0)
(0.00501818 0 0)
(0.00501221 0 0)
(0.00500983 0 0)
(0.00500964 0 0)
(0.00501034 0 0)
(0.00500875 0 0)
(0.0050051 0 0)
(0.00500227 0 0)
(0.00500244 0 0)
(0.00500133 0 0)
(0.00500003 0 0)
(0.00499869 0 0)
(0.00499613 0 0)
(0.0049956 0 0)
(0.00499443 0 0)
(0.00499537 0 0)
(0.00500287 0 0)
(0.00500675 0 0)
(0.00500375 0 0)
(0.00500165 0 0)
(0.00500241 0 0)
(0.00500428 0 0)
(0.00500769 0 0)
(0.00501383 0 0)
(0.00501718 0 0)
(0.00502066 0 0)
(0.00502623 0 0)
(0.00502635 0 0)
(0.00502662 0 0)
(0.00503182 0 0)
(0.00503427 0 0)
(0.00503209 0 0)
(0.00503087 0 0)
(0.00502902 0 0)
(0.00502642 0 0)
(0.0050311 0 0)
(0.00503498 0 0)
(0.0050364 0 0)
(0.00503882 0 0)
(0.00503815 0 0)
(0.00503888 0 0)
(0.00503793 0 0)
(0.00503739 0 0)
(0.00503935 0 0)
(0.0050389 0 0)
(0.00503965 0 0)
(0.00504314 0 0)
(0.00504808 0 0)
(0.00504764 0 0)
(0.00504331 0 0)
(0.00504146 0 0)
(0.00504361 0 0)
(0.00504677 0 0)
(0.00504573 0 0)
(0.00504324 0 0)
(0.0050423 0 0)
)
;

boundaryField
{
    inlet
    {
        type            fixedValue;
        value           uniform (0 0 0);
    }
    outlet
    {
        type            zeroGradient;
    }
    yzfaces
    {
        type            empty;
    }
}


// ************************************************************************* //
