/*--------------------------------*- C++ -*----------------------------------*\
| =========                 |                                                 |
| \\      /  F ield         | foam-extend: Open Source CFD                    |
|  \\    /   O peration     | Version:     5.0                                |
|   \\  /    A nd           | Web:         http://www.foam-extend.org         |
|    \\/     M anipulation  |                                                 |
\*---------------------------------------------------------------------------*/
FoamFile
{
    version     2.0;
    format      ascii;
    class       volScalarField;
    location    "9.28958";
    object      CO2.water;
}
// * * * * * * * * * * * * * * * * * * * * * * * * * * * * * * * * * * * * * //

dimensions      [0 0 0 0 0 0 0];

internalField   nonuniform List<scalar> 
100
(
5.85702e-05
9.13138e-05
5.31812e-06
7.6359e-07
1.42297e-07
2.61553e-08
4.65696e-09
8.07054e-10
1.36769e-10
2.27472e-11
3.72263e-12
6.00684e-13
9.57296e-14
1.50831e-14
2.35177e-15
3.63249e-16
5.56244e-17
8.44949e-18
1.27374e-18
1.90658e-19
2.83503e-20
4.18907e-21
6.15232e-22
8.9838e-23
1.30491e-23
1.8854e-24
2.71031e-25
3.87773e-26
5.52253e-27
7.82937e-28
1.10517e-28
1.55367e-29
2.17516e-30
3.03337e-31
4.2144e-32
5.83332e-33
8.0444e-34
1.10567e-34
1.51435e-35
2.0672e-36
2.81295e-37
3.81502e-38
5.15795e-39
6.9535e-40
9.34551e-41
1.25243e-41
1.67362e-42
2.22995e-43
2.96356e-44
3.92778e-45
5.19179e-46
6.84621e-47
9.00398e-48
1.18129e-48
1.54601e-49
2.01843e-50
2.62907e-51
3.41635e-52
4.42878e-53
5.72888e-54
7.39348e-55
9.52167e-56
1.2234e-56
1.56855e-57
2.0071e-58
2.56252e-59
3.26542e-60
4.1522e-61
5.26916e-62
6.67395e-63
8.43595e-64
1.06432e-64
1.34022e-65
1.68454e-66
2.11345e-67
2.64669e-68
3.30872e-69
4.12892e-70
5.14411e-71
6.39674e-72
7.94028e-73
9.84098e-74
1.21749e-74
1.50396e-75
1.85491e-76
2.28376e-77
2.80766e-78
3.44589e-79
4.22333e-80
5.16767e-81
6.31464e-82
7.7038e-83
9.38456e-84
1.14138e-84
1.38611e-85
1.68095e-86
2.03531e-87
2.46129e-88
2.97167e-89
3.58337e-90
)
;

boundaryField
{
    inlet
    {
        type            fixedValue;
        value           uniform 0;
    }
    outlet
    {
        type            zeroGradient;
    }
    yzfaces
    {
        type            empty;
    }
}


// ************************************************************************* //
