/*--------------------------------*- C++ -*----------------------------------*\
| =========                 |                                                 |
| \\      /  F ield         | foam-extend: Open Source CFD                    |
|  \\    /   O peration     | Version:     5.0                                |
|   \\  /    A nd           | Web:         http://www.foam-extend.org         |
|    \\/     M anipulation  |                                                 |
\*---------------------------------------------------------------------------*/
FoamFile
{
    version     2.0;
    format      ascii;
    class       volScalarField;
    location    "3";
    object      alpha.gas;
}
// * * * * * * * * * * * * * * * * * * * * * * * * * * * * * * * * * * * * * //

dimensions      [0 0 0 0 0 0 0];

internalField   nonuniform List<scalar> 
100
(
0.144624
0.128781
0.118256
0.110629
0.104434
0.0991159
0.0948648
0.0908764
0.0880715
0.08507
0.0826046
0.0804689
0.0779626
0.0758754
0.07395
0.0721061
0.070363
0.0686762
0.0672301
0.065712
0.0642839
0.0629839
0.061852
0.060573
0.0594091
0.0582471
0.0572076
0.0560752
0.0549051
0.0538361
0.0528054
0.0517541
0.0506668
0.0496988
0.0487255
0.0477023
0.0467455
0.0456943
0.044609
0.0435512
0.042445
0.0413927
0.0402934
0.0391931
0.038032
0.0368304
0.0355453
0.0341818
0.0327571
0.0312462
0.0296128
0.0278712
0.0260119
0.0240323
0.0219495
0.019818
0.0177294
0.0157855
0.0140994
0.0127527
0.0117604
0.0110814
0.0106459
0.0103768
0.0102178
0.010123
0.0100703
0.0100386
0.0100213
0.01001
0.0100038
0.0100014
0.0100026
0.0100022
0.00999861
0.00999966
0.00999955
0.00999986
0.00999943
0.0100005
0.0100014
0.0100005
0.0100022
0.0100018
0.0100015
0.0100038
0.0100029
0.0100029
0.0100037
0.0100038
0.0100054
0.0100023
0.0100025
0.0100021
0.0100017
0.0100006
0.0100007
0.0100028
0.0100035
0.0100044
)
;

boundaryField
{
    inlet
    {
        type            fixedValue;
        value           uniform 0.2;
    }
    outlet
    {
        type            zeroGradient;
    }
    yzfaces
    {
        type            empty;
    }
}


// ************************************************************************* //
