/*--------------------------------*- C++ -*----------------------------------*\
| =========                 |                                                 |
| \\      /  F ield         | foam-extend: Open Source CFD                    |
|  \\    /   O peration     | Version:     5.0                                |
|   \\  /    A nd           | Web:         http://www.foam-extend.org         |
|    \\/     M anipulation  |                                                 |
\*---------------------------------------------------------------------------*/
FoamFile
{
    version     2.0;
    format      ascii;
    class       volScalarField;
    location    "3";
    object      Cl.water;
}
// * * * * * * * * * * * * * * * * * * * * * * * * * * * * * * * * * * * * * //

dimensions      [0 0 0 0 0 0 0];

internalField   nonuniform List<scalar> 
100
(
0.00635888
0.00817778
0.00938791
0.01026
0.0109757
0.0115874
0.0120728
0.0125285
0.0128526
0.0131987
0.0134805
0.0137251
0.0140167
0.0142602
0.014476
0.0146868
0.0148907
0.0150811
0.0152491
0.0154263
0.01559
0.0157352
0.0158643
0.0160081
0.0161404
0.0162789
0.0163958
0.0165215
0.0166568
0.0167823
0.0169007
0.0170247
0.0171482
0.0172575
0.01737
0.017487
0.0175954
0.0177183
0.0178441
0.0179665
0.0180913
0.0182112
0.0183427
0.0194527
0.0196087
0.0197736
0.0199104
0.0200689
0.0202434
0.0204281
0.0206073
0.0208293
0.0210622
0.0212961
0.0215387
0.02183
0.0220593
0.0223017
0.022503
0.0226712
0.022798
0.0228706
0.0229244
0.022965
0.022984
0.0230026
0.023015
0.0230334
0.0230203
0.0230071
0.0230012
0.0230066
0.0229966
0.0229878
0.0229977
0.0230078
0.0229827
0.0229878
0.0229949
0.0229848
0.0229943
0.0230132
0.0229965
0.0230063
0.0230054
0.0229929
0.0229912
0.0230033
0.0230225
0.0230367
0.0230302
0.0230312
0.0230182
0.0230185
0.022998
0.0229874
0.0229595
0.0229426
0.0229366
0.0229566
)
;

boundaryField
{
    inlet
    {
        type            fixedValue;
        value           uniform 0;
    }
    outlet
    {
        type            zeroGradient;
    }
    yzfaces
    {
        type            empty;
    }
}


// ************************************************************************* //
