/*--------------------------------*- C++ -*----------------------------------*\
| =========                 |                                                 |
| \\      /  F ield         | foam-extend: Open Source CFD                    |
|  \\    /   O peration     | Version:     5.0                                |
|   \\  /    A nd           | Web:         http://www.foam-extend.org         |
|    \\/     M anipulation  |                                                 |
\*---------------------------------------------------------------------------*/
FoamFile
{
    version     2.0;
    format      ascii;
    class       volScalarField;
    location    "3";
    object      H2O.gas;
}
// * * * * * * * * * * * * * * * * * * * * * * * * * * * * * * * * * * * * * //

dimensions      [0 0 0 0 0 0 0];

internalField   nonuniform List<scalar> 
100
(
0.000281652
0.000250798
0.000230301
0.000215446
0.000203381
0.000193025
0.000184746
0.000176979
0.000171517
0.000165671
0.00016087
0.000156711
0.00015183
0.000147765
0.000144015
0.000140424
0.00013703
0.000133745
0.000130929
0.000127972
0.000125191
0.000122659
0.000120455
0.000117964
0.000115697
0.000113435
0.00011141
0.000109205
0.000106926
0.000104844
0.000102837
0.00010079
9.86721e-05
9.6787e-05
9.48914e-05
9.28988e-05
9.10355e-05
8.89883e-05
8.68748e-05
8.48148e-05
8.26603e-05
8.0611e-05
7.84702e-05
0.00725392
0.0103741
0.0131799
0.015611
0.0176672
0.0193322
0.0205769
0.0213363
0.0216663
0.0215348
0.0209333
0.0199225
0.0186101
0.0170441
0.0154402
0.0139389
0.0126893
0.0117387
0.011074
0.0106465
0.0103846
0.0102239
0.0101369
0.0100832
0.0100561
0.0100309
0.0100136
0.0100028
0.00999993
0.00999588
0.00999293
0.00999669
0.0100012
0.00998772
0.00998758
0.00999107
0.00999168
0.00999718
0.0100044
0.00999627
0.00999778
0.00999425
0.00998935
0.00998922
0.00999738
0.0100067
0.0100117
0.0100078
0.0100087
0.0100049
0.0100053
0.00999764
0.00999523
0.00998413
0.00998024
0.00997971
0.00998783
)
;

boundaryField
{
    inlet
    {
        type            fixedValue;
        value           uniform 0;
    }
    outlet
    {
        type            zeroGradient;
    }
    yzfaces
    {
        type            empty;
    }
}


// ************************************************************************* //
