/*--------------------------------*- C++ -*----------------------------------*\
| =========                 |                                                 |
| \\      /  F ield         | foam-extend: Open Source CFD                    |
|  \\    /   O peration     | Version:     5.0                                |
|   \\  /    A nd           | Web:         http://www.foam-extend.org         |
|    \\/     M anipulation  |                                                 |
\*---------------------------------------------------------------------------*/
FoamFile
{
    version     2.0;
    format      ascii;
    class       volVectorField;
    location    "3";
    object      U.gas;
}
// * * * * * * * * * * * * * * * * * * * * * * * * * * * * * * * * * * * * * //

dimensions      [0 1 -1 0 0 0 0];

internalField   nonuniform List<vector> 
100
(
(0.00688649 0 0)
(0.00766428 0 0)
(0.00826992 0 0)
(0.00872613 0 0)
(0.00913775 0 0)
(0.00953718 0 0)
(0.00985059 0 0)
(0.010199 0 0)
(0.0104518 0 0)
(0.0106893 0 0)
(0.010851 0 0)
(0.0109965 0 0)
(0.0112374 0 0)
(0.0114449 0 0)
(0.0116066 0 0)
(0.0117862 0 0)
(0.0119518 0 0)
(0.0120971 0 0)
(0.0122129 0 0)
(0.012366 0 0)
(0.0125094 0 0)
(0.0126327 0 0)
(0.012707 0 0)
(0.0128011 0 0)
(0.0128711 0 0)
(0.0129337 0 0)
(0.0129652 0 0)
(0.0130122 0 0)
(0.0130883 0 0)
(0.0131428 0 0)
(0.0131853 0 0)
(0.0132242 0 0)
(0.0132583 0 0)
(0.0132641 0 0)
(0.0132707 0 0)
(0.0132866 0 0)
(0.0132753 0 0)
(0.0132802 0 0)
(0.013292 0 0)
(0.0132814 0 0)
(0.0132716 0 0)
(0.013228 0 0)
(0.0131802 0 0)
(0.0131102 0 0)
(0.0130258 0 0)
(0.0129204 0 0)
(0.0128008 0 0)
(0.0126641 0 0)
(0.0124884 0 0)
(0.0122737 0 0)
(0.0120328 0 0)
(0.0117289 0 0)
(0.0113459 0 0)
(0.0108724 0 0)
(0.0102968 0 0)
(0.00962338 0 0)
(0.00886289 0 0)
(0.00804766 0 0)
(0.00723421 0 0)
(0.00649079 0 0)
(0.00587298 0 0)
(0.00541337 0 0)
(0.00509398 0 0)
(0.00488927 0 0)
(0.00476879 0 0)
(0.00469507 0 0)
(0.00464867 0 0)
(0.00461873 0 0)
(0.00459644 0 0)
(0.0045862 0 0)
(0.00457956 0 0)
(0.00457393 0 0)
(0.004573 0 0)
(0.004577 0 0)
(0.00457777 0 0)
(0.00457392 0 0)
(0.00457188 0 0)
(0.00457195 0 0)
(0.00457147 0 0)
(0.0045733 0 0)
(0.00458178 0 0)
(0.00458323 0 0)
(0.00458217 0 0)
(0.00458413 0 0)
(0.00457893 0 0)
(0.00457523 0 0)
(0.00457488 0 0)
(0.00457371 0 0)
(0.00457742 0 0)
(0.00458224 0 0)
(0.00458553 0 0)
(0.0045905 0 0)
(0.00459167 0 0)
(0.00459323 0 0)
(0.00459365 0 0)
(0.00459371 0 0)
(0.00458919 0 0)
(0.00458561 0 0)
(0.00458864 0 0)
(0.00459377 0 0)
)
;

boundaryField
{
    inlet
    {
        type            fixedValue;
        value           uniform (0.005 0 0);
    }
    outlet
    {
        type            zeroGradient;
    }
    yzfaces
    {
        type            empty;
    }
}


// ************************************************************************* //
