/*--------------------------------*- C++ -*----------------------------------*\
| =========                 |                                                 |
| \\      /  F ield         | foam-extend: Open Source CFD                    |
|  \\    /   O peration     | Version:     5.0                                |
|   \\  /    A nd           | Web:         http://www.foam-extend.org         |
|    \\/     M anipulation  |                                                 |
\*---------------------------------------------------------------------------*/
FoamFile
{
    version     2.0;
    format      ascii;
    class       volVectorField;
    location    "3";
    object      U.water;
}
// * * * * * * * * * * * * * * * * * * * * * * * * * * * * * * * * * * * * * //

dimensions      [0 1 -1 0 0 0 0];

internalField   nonuniform List<vector> 
100
(
(7.46067e-05 0 0)
(0.000177885 0 0)
(0.000266188 0 0)
(0.000346301 0 0)
(0.000422342 0 0)
(0.000498666 0 0)
(0.000572102 0 0)
(0.0006442 0 0)
(0.000713849 0 0)
(0.000773174 0 0)
(0.000834513 0 0)
(0.000889282 0 0)
(0.000950392 0 0)
(0.00101855 0 0)
(0.00107934 0 0)
(0.0011424 0 0)
(0.00120549 0 0)
(0.00126774 0 0)
(0.00132812 0 0)
(0.00138866 0 0)
(0.00145284 0 0)
(0.0015157 0 0)
(0.00157124 0 0)
(0.00162531 0 0)
(0.00168346 0 0)
(0.00173918 0 0)
(0.00179264 0 0)
(0.00184526 0 0)
(0.00190808 0 0)
(0.00197295 0 0)
(0.00203448 0 0)
(0.00209521 0 0)
(0.00215853 0 0)
(0.00222133 0 0)
(0.00228047 0 0)
(0.00234342 0 0)
(0.0024075 0 0)
(0.00247396 0 0)
(0.00255122 0 0)
(0.00262914 0 0)
(0.0027084 0 0)
(0.00278955 0 0)
(0.00286903 0 0)
(0.00295177 0 0)
(0.00303684 0 0)
(0.00312573 0 0)
(0.00322132 0 0)
(0.00332876 0 0)
(0.00344093 0 0)
(0.00355921 0 0)
(0.00369092 0 0)
(0.00383154 0 0)
(0.00397599 0 0)
(0.00412273 0 0)
(0.00427102 0 0)
(0.00441752 0 0)
(0.0045542 0 0)
(0.00467236 0 0)
(0.00476877 0 0)
(0.00483946 0 0)
(0.00488404 0 0)
(0.00491365 0 0)
(0.00492981 0 0)
(0.0049408 0 0)
(0.00495159 0 0)
(0.00495506 0 0)
(0.00495453 0 0)
(0.00494931 0 0)
(0.0049421 0 0)
(0.00493994 0 0)
(0.00493847 0 0)
(0.00493569 0 0)
(0.0049367 0 0)
(0.00494029 0 0)
(0.00494081 0 0)
(0.00493877 0 0)
(0.00493597 0 0)
(0.00493563 0 0)
(0.0049354 0 0)
(0.00493749 0 0)
(0.00494555 0 0)
(0.00494739 0 0)
(0.00494654 0 0)
(0.00494673 0 0)
(0.00494176 0 0)
(0.00493891 0 0)
(0.00493716 0 0)
(0.00493598 0 0)
(0.00494043 0 0)
(0.00494489 0 0)
(0.00494759 0 0)
(0.00495219 0 0)
(0.00495554 0 0)
(0.00495738 0 0)
(0.00495778 0 0)
(0.00495819 0 0)
(0.00495409 0 0)
(0.00495 0 0)
(0.00495167 0 0)
(0.00495606 0 0)
)
;

boundaryField
{
    inlet
    {
        type            fixedValue;
        value           uniform (0 0 0);
    }
    outlet
    {
        type            zeroGradient;
    }
    yzfaces
    {
        type            empty;
    }
}


// ************************************************************************* //
