/*--------------------------------*- C++ -*----------------------------------*\
| =========                 |                                                 |
| \\      /  F ield         | foam-extend: Open Source CFD                    |
|  \\    /   O peration     | Version:     5.0                                |
|   \\  /    A nd           | Web:         http://www.foam-extend.org         |
|    \\/     M anipulation  |                                                 |
\*---------------------------------------------------------------------------*/
FoamFile
{
    version     2.0;
    format      ascii;
    class       volVectorField;
    location    "3";
    object      U.water;
}
// * * * * * * * * * * * * * * * * * * * * * * * * * * * * * * * * * * * * * //

dimensions      [0 1 -1 0 0 0 0];

internalField   nonuniform List<vector> 
100
(
(7.41312e-05 0 0)
(0.000177518 0 0)
(0.000267022 0 0)
(0.000345911 0 0)
(0.000418138 0 0)
(0.000494643 0 0)
(0.000571387 0 0)
(0.000638996 0 0)
(0.000702877 0 0)
(0.000769212 0 0)
(0.000822179 0 0)
(0.000885379 0 0)
(0.000955317 0 0)
(0.00101711 0 0)
(0.00107483 0 0)
(0.00114074 0 0)
(0.00120485 0 0)
(0.00126539 0 0)
(0.0013249 0 0)
(0.00138501 0 0)
(0.0014455 0 0)
(0.00150243 0 0)
(0.00155533 0 0)
(0.00161444 0 0)
(0.00167294 0 0)
(0.00172672 0 0)
(0.00178308 0 0)
(0.00184291 0 0)
(0.00189809 0 0)
(0.0019531 0 0)
(0.00201464 0 0)
(0.00207862 0 0)
(0.00213311 0 0)
(0.00219639 0 0)
(0.00226499 0 0)
(0.00233176 0 0)
(0.00240001 0 0)
(0.00246855 0 0)
(0.00253847 0 0)
(0.00261101 0 0)
(0.00268962 0 0)
(0.00277198 0 0)
(0.002853 0 0)
(0.00293768 0 0)
(0.0030273 0 0)
(0.00312016 0 0)
(0.00321704 0 0)
(0.00332213 0 0)
(0.00343321 0 0)
(0.00355284 0 0)
(0.00368386 0 0)
(0.00381851 0 0)
(0.00395775 0 0)
(0.00410373 0 0)
(0.00425386 0 0)
(0.00439912 0 0)
(0.00453236 0 0)
(0.00464512 0 0)
(0.00473827 0 0)
(0.00481288 0 0)
(0.00486363 0 0)
(0.00489474 0 0)
(0.00491605 0 0)
(0.00493071 0 0)
(0.00493834 0 0)
(0.00493991 0 0)
(0.00494452 0 0)
(0.00495185 0 0)
(0.00495231 0 0)
(0.00494925 0 0)
(0.00495107 0 0)
(0.00495067 0 0)
(0.00495038 0 0)
(0.00495338 0 0)
(0.00495292 0 0)
(0.00495364 0 0)
(0.00496005 0 0)
(0.00496289 0 0)
(0.00496149 0 0)
(0.0049631 0 0)
(0.00496607 0 0)
(0.0049674 0 0)
(0.004963 0 0)
(0.00495652 0 0)
(0.00495127 0 0)
(0.00494915 0 0)
(0.00494725 0 0)
(0.00494795 0 0)
(0.00494856 0 0)
(0.00494602 0 0)
(0.00494505 0 0)
(0.00494313 0 0)
(0.00494066 0 0)
(0.00494284 0 0)
(0.00494669 0 0)
(0.00494724 0 0)
(0.00494608 0 0)
(0.0049434 0 0)
(0.00494524 0 0)
(0.00495046 0 0)
)
;

boundaryField
{
    inlet
    {
        type            fixedValue;
        value           uniform (0 0 0);
    }
    outlet
    {
        type            zeroGradient;
    }
    yzfaces
    {
        type            empty;
    }
}


// ************************************************************************* //
