/*--------------------------------*- C++ -*----------------------------------*\
| =========                 |                                                 |
| \\      /  F ield         | foam-extend: Open Source CFD                    |
|  \\    /   O peration     | Version:     5.0                                |
|   \\  /    A nd           | Web:         http://www.foam-extend.org         |
|    \\/     M anipulation  |                                                 |
\*---------------------------------------------------------------------------*/
FoamFile
{
    version     2.0;
    format      ascii;
    class       volScalarField;
    location    "8";
    object      alpha.water;
}
// * * * * * * * * * * * * * * * * * * * * * * * * * * * * * * * * * * * * * //

dimensions      [0 0 0 0 0 0 0];

internalField   nonuniform List<scalar> 
100
(
0.000847591
0.00136854
0.00192093
0.00227742
0.00276989
0.00321898
0.00373519
0.00417225
0.00449003
0.00471494
0.00500458
0.00535814
0.0057762
0.00624518
0.00668605
0.00708931
0.00749317
0.0077741
0.00798198
0.00829268
0.00869306
0.00911623
0.00950147
0.00983114
0.0100782
0.0103413
0.0107141
0.0111008
0.0114439
0.0116824
0.0119379
0.0122922
0.0126509
0.0129686
0.0132238
0.0135036
0.0138541
0.0141688
0.0144068
0.0146622
0.0149602
0.0153015
0.0155659
0.0158355
0.0161678
0.0164634
0.0167413
0.0170659
0.0174368
0.0177984
0.018192
0.0186737
0.0191591
0.0196354
0.0200833
0.0204986
0.0208791
0.021245
0.0215887
0.0219401
0.0222989
0.0226173
0.0229275
0.0232142
0.0235079
0.0237466
0.0240123
0.0243011
0.0245196
0.0247732
0.0249412
0.0249835
0.024968
0.0249903
0.0249685
0.0249753
0.0249757
0.024964
0.0249696
0.0249605
0.0249822
0.0249663
0.0249748
0.0249699
0.0249683
0.0249836
0.0249683
0.0249761
0.0249744
0.0249582
0.0249838
0.0249664
0.024973
0.0249698
0.024979
0.0249971
0.0251119
0.0253001
0.0254789
0.0257862
)
;

boundaryField
{
    inlet
    {
        type            fixedValue;
        value           uniform 0;
    }
    outlet
    {
        type            zeroGradient;
    }
    yzfaces
    {
        type            empty;
    }
}


// ************************************************************************* //
