/*--------------------------------*- C++ -*----------------------------------*\
| =========                 |                                                 |
| \\      /  F ield         | foam-extend: Open Source CFD                    |
|  \\    /   O peration     | Version:     5.0                                |
|   \\  /    A nd           | Web:         http://www.foam-extend.org         |
|    \\/     M anipulation  |                                                 |
\*---------------------------------------------------------------------------*/
FoamFile
{
    version     2.0;
    format      ascii;
    class       volScalarField;
    location    "8";
    object      CO2.water;
}
// * * * * * * * * * * * * * * * * * * * * * * * * * * * * * * * * * * * * * //

dimensions      [0 0 0 0 0 0 0];

internalField   nonuniform List<scalar> 
100
(
2.22616e-05
3.5944e-05
5.04524e-05
5.98154e-05
7.27498e-05
8.45451e-05
9.81031e-05
0.000109582
0.000117929
0.000123836
0.000131443
0.000140729
0.000151709
0.000164027
0.000175606
0.000186198
0.000196805
0.000204183
0.000209643
0.000217803
0.000228319
0.000239434
0.000249552
0.00025821
0.000264699
0.00027161
0.0002814
0.000291557
0.00030057
0.000306833
0.000313543
0.00032285
0.000332269
0.000340613
0.000347316
0.000354666
0.000363872
0.000372138
0.000378389
0.000385095
0.000392922
0.000401887
0.000408833
0.000415913
0.000424639
0.000432403
0.000439702
0.000448227
0.00045797
0.000467467
0.000477803
0.000490456
0.000503205
0.000515714
0.000527479
0.000538387
0.000548379
0.000557991
0.000567019
0.000576245
0.000585671
0.000594033
0.000602181
0.00060971
0.000617424
0.000623694
0.000630672
0.000638256
0.000643996
0.000650656
0.000655069
0.000656181
0.000655774
0.000656359
0.000655786
0.000655965
0.000655976
0.000655667
0.000655814
0.000655576
0.000656145
0.000655729
0.000655952
0.000655822
0.000655782
0.000656183
0.000655781
0.000655985
0.000655942
0.000655516
0.000656187
0.000655732
0.000655904
0.000655819
0.000656061
0.000656536
0.000659554
0.000664495
0.000669192
0.000677263
)
;

boundaryField
{
    inlet
    {
        type            fixedValue;
        value           uniform 0;
    }
    outlet
    {
        type            zeroGradient;
    }
    yzfaces
    {
        type            empty;
    }
}


// ************************************************************************* //
