/*--------------------------------*- C++ -*----------------------------------*\
| =========                 |                                                 |
| \\      /  F ield         | foam-extend: Open Source CFD                    |
|  \\    /   O peration     | Version:     5.0                                |
|   \\  /    A nd           | Web:         http://www.foam-extend.org         |
|    \\/     M anipulation  |                                                 |
\*---------------------------------------------------------------------------*/
FoamFile
{
    version     2.0;
    format      ascii;
    class       volScalarField;
    location    "8";
    object      H2O.gas;
}
// * * * * * * * * * * * * * * * * * * * * * * * * * * * * * * * * * * * * * //

dimensions      [0 0 0 0 0 0 0];

internalField   nonuniform List<scalar> 
100
(
0.000387844
0.000386829
0.000385753
0.000385059
0.0003841
0.000383225
0.00038222
0.000381369
0.00038075
0.000380312
0.000379748
0.000379059
0.000378245
0.000377332
0.000376473
0.000375688
0.000374901
0.000374354
0.00037395
0.000373344
0.000372565
0.000371741
0.00037099
0.000370348
0.000369867
0.000369355
0.000368629
0.000367876
0.000367207
0.000366743
0.000366245
0.000365555
0.000364857
0.000364238
0.000363741
0.000363196
0.000362514
0.000361901
0.000361437
0.00036094
0.00036036
0.000359695
0.00035918
0.000358655
0.000358008
0.000357432
0.000356891
0.000356259
0.000355537
0.000354832
0.000354066
0.000353128
0.000352182
0.000351255
0.000350382
0.000349574
0.000348833
0.00034812
0.000347451
0.000346767
0.000346068
0.000345448
0.000344843
0.000344285
0.000343713
0.000343248
0.000342731
0.000342169
0.000341743
0.000341249
0.000340922
0.000340839
0.00034087
0.000340826
0.000340869
0.000340856
0.000340855
0.000340878
0.000340867
0.000340884
0.000340842
0.000340873
0.000340856
0.000340866
0.000340869
0.000340839
0.000340869
0.000340854
0.000340857
0.000340889
0.000340839
0.000340873
0.00034086
0.000340866
0.000340848
0.000340813
0.000340589
0.000340223
0.000339875
0.000339276
)
;

boundaryField
{
    inlet
    {
        type            fixedValue;
        value           uniform 0;
    }
    outlet
    {
        type            zeroGradient;
    }
    yzfaces
    {
        type            empty;
    }
}


// ************************************************************************* //
