/*--------------------------------*- C++ -*----------------------------------*\
| =========                 |                                                 |
| \\      /  F ield         | foam-extend: Open Source CFD                    |
|  \\    /   O peration     | Version:     5.0                                |
|   \\  /    A nd           | Web:         http://www.foam-extend.org         |
|    \\/     M anipulation  |                                                 |
\*---------------------------------------------------------------------------*/
FoamFile
{
    version     2.0;
    format      ascii;
    class       volScalarField;
    location    "8";
    object      H2O.water;
}
// * * * * * * * * * * * * * * * * * * * * * * * * * * * * * * * * * * * * * //

dimensions      [0 0 0 0 0 0 0];

internalField   nonuniform List<scalar> 
100
(
0.00082533
0.00133259
0.00187048
0.0022176
0.00269714
0.00313444
0.00363709
0.00406267
0.0043721
0.0045911
0.00487314
0.00521741
0.00562449
0.00608116
0.00651045
0.00690312
0.00729637
0.00756991
0.00777234
0.00807488
0.00846474
0.0088768
0.00925192
0.00957293
0.00981348
0.0100697
0.0104327
0.0108092
0.0111434
0.0113756
0.0116243
0.0119694
0.0123186
0.0126279
0.0128764
0.0131489
0.0134902
0.0137967
0.0140284
0.0142771
0.0145673
0.0148996
0.0151571
0.0154196
0.0157431
0.016031
0.0163016
0.0166176
0.0169788
0.0173309
0.0177142
0.0181832
0.0186559
0.0191197
0.0195558
0.0199602
0.0203307
0.020687
0.0210217
0.0213638
0.0217133
0.0220233
0.0223254
0.0226045
0.0228905
0.0231229
0.0233816
0.0236628
0.0238756
0.0241225
0.0242861
0.0243273
0.0243123
0.0243339
0.0243127
0.0243193
0.0243198
0.0243083
0.0243138
0.0243049
0.024326
0.0243106
0.0243189
0.024314
0.0243125
0.0243274
0.0243125
0.0243201
0.0243185
0.0243027
0.0243276
0.0243107
0.0243171
0.0243139
0.0243229
0.0243405
0.0244524
0.0246356
0.0248097
0.025109
)
;

boundaryField
{
    inlet
    {
        type            fixedValue;
        value           uniform 0;
    }
    outlet
    {
        type            zeroGradient;
    }
    yzfaces
    {
        type            empty;
    }
}


// ************************************************************************* //
