/*--------------------------------*- C++ -*----------------------------------*\
| =========                 |                                                 |
| \\      /  F ield         | foam-extend: Open Source CFD                    |
|  \\    /   O peration     | Version:     5.0                                |
|   \\  /    A nd           | Web:         http://www.foam-extend.org         |
|    \\/     M anipulation  |                                                 |
\*---------------------------------------------------------------------------*/
FoamFile
{
    version     2.0;
    format      ascii;
    class       surfaceScalarField;
    location    "8";
    object      phi;
}
// * * * * * * * * * * * * * * * * * * * * * * * * * * * * * * * * * * * * * //

dimensions      [0 3 -1 0 0 0 0];

internalField   nonuniform List<scalar> 
99
(
0.000122503
0.000122506
0.000122475
0.000122487
0.000122467
0.000122482
0.000122497
0.000122485
0.000122503
0.0001225
0.000122495
0.00012248
0.000122478
0.000122476
0.000122483
0.000122483
0.000122476
0.000122484
0.000122477
0.000122507
0.000122474
0.000122458
0.000122473
0.000122474
0.000122483
0.000122494
0.000122488
0.0001225
0.000122477
0.000122522
0.000122509
0.000122505
0.000122531
0.000122517
0.000122533
0.000122509
0.000122508
0.000122517
0.000122515
0.000122537
0.000122529
0.000122547
0.000122553
0.000122551
0.000122539
0.000122539
0.000122542
0.000122528
0.000122542
0.00012255
0.000122532
0.00012255
0.000122526
0.000122538
0.000122527
0.000122527
0.000122545
0.000122578
0.000122588
0.000122601
0.000122602
0.000122613
0.000122622
0.000122622
0.000122635
0.000122642
0.000122664
0.000122656
0.000122666
0.000122664
0.000122695
0.000122718
0.000122689
0.000122708
0.000122742
0.000122745
0.000122745
0.000122773
0.000122769
0.00012277
0.000122791
0.000122814
0.00012287
0.000122864
0.000122872
0.000122897
0.000122916
0.000122935
0.000122933
0.000122938
0.000122958
0.000122954
0.000122965
0.000122981
0.000122997
0.000123018
0.000122996
0.000122991
0.000122978
)
;

boundaryField
{
    inlet
    {
        type            calculated;
        value           uniform -0.0001225;
    }
    outlet
    {
        type            calculated;
        value           uniform 0.000123014;
    }
    yzfaces
    {
        type            empty;
    }
}


// ************************************************************************* //
