/*--------------------------------*- C++ -*----------------------------------*\
| =========                 |                                                 |
| \\      /  F ield         | foam-extend: Open Source CFD                    |
|  \\    /   O peration     | Version:     5.0                                |
|   \\  /    A nd           | Web:         http://www.foam-extend.org         |
|    \\/     M anipulation  |                                                 |
\*---------------------------------------------------------------------------*/
FoamFile
{
    version     2.0;
    format      ascii;
    class       surfaceScalarField;
    location    "8";
    object      phi.gas;
}
// * * * * * * * * * * * * * * * * * * * * * * * * * * * * * * * * * * * * * //

dimensions      [0 3 -1 0 0 0 0];

internalField   nonuniform List<scalar> 
99
(
0.000615923
0.000617573
0.000618848
0.000620249
0.000621643
0.000623268
0.0006248
0.000625948
0.000626942
0.000627727
0.00062874
0.000629917
0.000631339
0.000632784
0.000634202
0.000635514
0.000636606
0.000637493
0.000638327
0.00063963
0.000640797
0.000642098
0.000643386
0.000644399
0.000645307
0.000646414
0.000647657
0.000648927
0.000649848
0.000650949
0.000651884
0.000653124
0.000654425
0.000655306
0.000656317
0.000657321
0.0006585
0.000659504
0.000660359
0.000661441
0.000662531
0.000663696
0.000664698
0.000665781
0.000666807
0.000667863
0.000668944
0.000670139
0.000671577
0.000672933
0.000674432
0.000676334
0.000678001
0.000679776
0.000681314
0.000682834
0.000684372
0.000685883
0.00068722
0.000688648
0.000689973
0.000691242
0.000692376
0.000693511
0.000694657
0.000695668
0.000696852
0.000697781
0.000698763
0.000699585
0.000700206
0.000700347
0.000700187
0.000700359
0.000700536
0.000700504
0.000700497
0.000700656
0.000700586
0.00070069
0.000700818
0.000700936
0.000701274
0.000701172
0.000701257
0.000701397
0.000701464
0.000701607
0.000701547
0.000701605
0.000701723
0.000701663
0.000701755
0.000701897
0.000702052
0.000702352
0.00070279
0.000703489
0.000704431
)
;

boundaryField
{
    inlet
    {
        type            fixedValue;
        value           uniform -0.0006125;
    }
    outlet
    {
        type            calculated;
        value           uniform 0.000705279;
    }
    yzfaces
    {
        type            empty;
    }
}


// ************************************************************************* //
