/*--------------------------------*- C++ -*----------------------------------*\
| =========                 |                                                 |
| \\      /  F ield         | foam-extend: Open Source CFD                    |
|  \\    /   O peration     | Version:     5.0                                |
|   \\  /    A nd           | Web:         http://www.foam-extend.org         |
|    \\/     M anipulation  |                                                 |
\*---------------------------------------------------------------------------*/
FoamFile
{
    version     2.0;
    format      ascii;
    class       surfaceScalarField;
    location    "8";
    object      phi.water;
}
// * * * * * * * * * * * * * * * * * * * * * * * * * * * * * * * * * * * * * //

dimensions      [0 3 -1 0 0 0 0];

internalField   nonuniform List<scalar> 
99
(
1.13782e-07
2.00879e-07
3.11763e-07
3.6587e-07
4.58335e-07
5.35596e-07
6.37583e-07
7.29326e-07
7.97626e-07
8.34843e-07
8.84794e-07
9.47262e-07
1.02398e-06
1.11809e-06
1.20859e-06
1.28885e-06
1.381e-06
1.44476e-06
1.47779e-06
1.5333e-06
1.61337e-06
1.70463e-06
1.79073e-06
1.86807e-06
1.91919e-06
1.96514e-06
2.04389e-06
2.13172e-06
2.21642e-06
2.26802e-06
2.31456e-06
2.39291e-06
2.47758e-06
2.5549e-06
2.61051e-06
2.66713e-06
2.75107e-06
2.83155e-06
2.88504e-06
2.94093e-06
3.00646e-06
3.0952e-06
3.1577e-06
3.21605e-06
3.29944e-06
3.37288e-06
3.43573e-06
3.51015e-06
3.60359e-06
3.69018e-06
3.77928e-06
3.90143e-06
4.02616e-06
4.15235e-06
4.27206e-06
4.38512e-06
4.48876e-06
4.59013e-06
4.68227e-06
4.77723e-06
4.88023e-06
4.96942e-06
5.0579e-06
5.13723e-06
5.22701e-06
5.29191e-06
5.3653e-06
5.45581e-06
5.51508e-06
5.59798e-06
5.6627e-06
5.68205e-06
5.67231e-06
5.68525e-06
5.67715e-06
5.67975e-06
5.68064e-06
5.67681e-06
5.67968e-06
5.6743e-06
5.68612e-06
5.67956e-06
5.68634e-06
5.68377e-06
5.682e-06
5.69118e-06
5.6844e-06
5.68865e-06
5.68997e-06
5.68093e-06
5.69394e-06
5.68583e-06
5.68975e-06
5.68792e-06
5.69051e-06
5.68523e-06
5.70914e-06
5.7653e-06
5.80318e-06
)
;

boundaryField
{
    inlet
    {
        type            fixedValue;
        value           uniform 0;
    }
    outlet
    {
        type            calculated;
        value           uniform 5.93092e-06;
    }
    yzfaces
    {
        type            empty;
    }
}


// ************************************************************************* //
