/*--------------------------------*- C++ -*----------------------------------*\
| =========                 |                                                 |
| \\      /  F ield         | foam-extend: Open Source CFD                    |
|  \\    /   O peration     | Version:     5.0                                |
|   \\  /    A nd           | Web:         http://www.foam-extend.org         |
|    \\/     M anipulation  |                                                 |
\*---------------------------------------------------------------------------*/
FoamFile
{
    version     2.0;
    format      ascii;
    class       volVectorField;
    location    "8";
    object      U.water;
}
// * * * * * * * * * * * * * * * * * * * * * * * * * * * * * * * * * * * * * //

dimensions      [0 1 -1 0 0 0 0];

internalField   nonuniform List<vector> 
100
(
(6.07142e-05 0 0)
(0.000136148 0 0)
(0.000209268 0 0)
(0.000282777 0 0)
(0.0003383 0 0)
(0.00041015 0 0)
(0.000478969 0 0)
(0.000555645 0 0)
(0.000620862 0 0)
(0.00066901 0 0)
(0.000704792 0 0)
(0.000750941 0 0)
(0.000807554 0 0)
(0.00087474 0 0)
(0.000949518 0 0)
(0.00102035 0 0)
(0.00108616 0 0)
(0.00115107 0 0)
(0.00119689 0 0)
(0.0012328 0 0)
(0.00128601 0 0)
(0.00135374 0 0)
(0.00142524 0 0)
(0.00149064 0 0)
(0.00154659 0 0)
(0.00158985 0 0)
(0.00163741 0 0)
(0.00170328 0 0)
(0.00177114 0 0)
(0.00183118 0 0)
(0.00187451 0 0)
(0.00192202 0 0)
(0.00198675 0 0)
(0.00205196 0 0)
(0.00210963 0 0)
(0.00215727 0 0)
(0.00221045 0 0)
(0.00227581 0 0)
(0.00233417 0 0)
(0.0023799 0 0)
(0.00242958 0 0)
(0.00248775 0 0)
(0.00255266 0 0)
(0.0026043 0 0)
(0.00265821 0 0)
(0.00272294 0 0)
(0.00278121 0 0)
(0.00283733 0 0)
(0.00290352 0 0)
(0.00297878 0 0)
(0.00305308 0 0)
(0.00313593 0 0)
(0.00323604 0 0)
(0.00333756 0 0)
(0.00343769 0 0)
(0.00353246 0 0)
(0.00362154 0 0)
(0.00370478 0 0)
(0.00378516 0 0)
(0.00386163 0 0)
(0.00394021 0 0)
(0.00401993 0 0)
(0.00409191 0 0)
(0.00416188 0 0)
(0.00422793 0 0)
(0.00429458 0 0)
(0.00435096 0 0)
(0.00441373 0 0)
(0.00447962 0 0)
(0.00453212 0 0)
(0.00459025 0 0)
(0.00462762 0 0)
(0.00463614 0 0)
(0.00463347 0 0)
(0.00463859 0 0)
(0.00463489 0 0)
(0.00463619 0 0)
(0.00463627 0 0)
(0.00463449 0 0)
(0.00463548 0 0)
(0.00463471 0 0)
(0.00463974 0 0)
(0.00463803 0 0)
(0.00464066 0 0)
(0.00463964 0 0)
(0.00464044 0 0)
(0.00464402 0 0)
(0.00464148 0 0)
(0.00464348 0 0)
(0.00464296 0 0)
(0.00464065 0 0)
(0.00464584 0 0)
(0.00464254 0 0)
(0.00464423 0 0)
(0.00464423 0 0)
(0.00464746 0 0)
(0.0046544 0 0)
(0.00468343 0 0)
(0.004728 0 0)
(0.00477514 0 0)
)
;

boundaryField
{
    inlet
    {
        type            fixedValue;
        value           uniform (0 0 0);
    }
    outlet
    {
        type            zeroGradient;
    }
    yzfaces
    {
        type            empty;
    }
}


// ************************************************************************* //
