/*--------------------------------*- C++ -*----------------------------------*\
| =========                 |                                                 |
| \\      /  F ield         | foam-extend: Open Source CFD                    |
|  \\    /   O peration     | Version:     5.0                                |
|   \\  /    A nd           | Web:         http://www.foam-extend.org         |
|    \\/     M anipulation  |                                                 |
\*---------------------------------------------------------------------------*/
FoamFile
{
    version     2.0;
    format      ascii;
    class       volScalarField;
    location    "6";
    object      alpha.gas;
}
// * * * * * * * * * * * * * * * * * * * * * * * * * * * * * * * * * * * * * //

dimensions      [0 0 0 0 0 0 0];

internalField   nonuniform List<scalar> 
100
(
0.175841
0.175476
0.155137
0.148957
0.15
0.152273
0.148244
0.143489
0.140328
0.136356
0.132197
0.129345
0.125365
0.125324
0.121503
0.118223
0.114395
0.112108
0.110006
0.108985
0.107258
0.106185
0.105302
0.104204
0.103025
0.100839
0.0993336
0.0980782
0.0966698
0.0950535
0.094659
0.0936845
0.0920544
0.0908338
0.0895801
0.0887965
0.0872329
0.0865086
0.0856388
0.0833588
0.0819494
0.0802704
0.0788619
0.0772746
0.0761117
0.074241
0.0724506
0.0707019
0.0688227
0.0669599
0.0647049
0.0619162
0.0588503
0.0550339
0.049888
0.0424712
0.0281931
0.0288113
0.0288792
0.0286686
0.0284353
0.0282479
0.028127
0.0280568
0.0280199
0.0280044
0.0279837
0.0279672
0.0279604
0.0279571
0.0279366
0.0279097
0.0278976
0.0278749
0.0278427
0.027808
0.027772
0.027742
0.0277058
0.0276586
0.0275892
0.0274991
0.0273688
0.0272126
0.0270122
0.0267581
0.0264428
0.0260549
0.0255819
0.0250103
0.0243115
0.0234919
0.0225306
0.0214271
0.0201669
0.0187735
0.0173003
0.0158121
0.014406
0.0131813
)
;

boundaryField
{
    inlet
    {
        type            fixedValue;
        value           uniform 0.2;
    }
    outlet
    {
        type            zeroGradient;
    }
    yzfaces
    {
        type            empty;
    }
}


// ************************************************************************* //
