/*--------------------------------*- C++ -*----------------------------------*\
| =========                 |                                                 |
| \\      /  F ield         | foam-extend: Open Source CFD                    |
|  \\    /   O peration     | Version:     5.0                                |
|   \\  /    A nd           | Web:         http://www.foam-extend.org         |
|    \\/     M anipulation  |                                                 |
\*---------------------------------------------------------------------------*/
FoamFile
{
    version     2.0;
    format      ascii;
    class       volScalarField;
    location    "6";
    object      Cl.water;
}
// * * * * * * * * * * * * * * * * * * * * * * * * * * * * * * * * * * * * * //

dimensions      [0 0 0 0 0 0 0];

internalField   nonuniform List<scalar> 
100
(
0.00454534
0.00512463
0.00885164
0.0102468
0.0103542
0.0101996
0.0109893
0.0118977
0.0126574
0.0134167
0.0140796
0.0145904
0.0153331
0.0155642
0.0160927
0.0168066
0.0175193
0.01786
0.018354
0.018636
0.0189436
0.0193235
0.0193819
0.01961
0.0198091
0.0201129
0.0203751
0.0206981
0.0210238
0.0213633
0.0215865
0.0218069
0.0219998
0.0221883
0.022549
0.0227374
0.0229775
0.0232777
0.0235852
0.0238472
0.0241919
0.0245107
0.0247891
0.0250789
0.0253822
0.0257121
0.0260387
0.0264547
0.0268537
0.0272678
0.0277848
0.028319
0.0289591
0.0297256
0.030742
0.0323112
0.0352037
0.035758
0.0359238
0.0360449
0.0361014
0.0361181
0.0361568
0.0361809
0.0361898
0.0361871
0.0361818
0.0362069
0.0362014
0.0362165
0.0361928
0.0362152
0.0362346
0.0362625
0.0362641
0.0362808
0.0363049
0.0363148
0.0363215
0.0363135
0.036328
0.0363248
0.0363733
0.0363794
0.0364059
0.0364699
0.036545
0.0366112
0.0367247
0.0368935
0.0370114
0.0372238
0.0374038
0.0376228
0.0378713
0.0381765
0.0384785
0.038779
0.0390606
0.0393443
)
;

boundaryField
{
    inlet
    {
        type            fixedValue;
        value           uniform 0;
    }
    outlet
    {
        type            zeroGradient;
    }
    yzfaces
    {
        type            empty;
    }
}


// ************************************************************************* //
