/*--------------------------------*- C++ -*----------------------------------*\
| =========                 |                                                 |
| \\      /  F ield         | foam-extend: Open Source CFD                    |
|  \\    /   O peration     | Version:     5.0                                |
|   \\  /    A nd           | Web:         http://www.foam-extend.org         |
|    \\/     M anipulation  |                                                 |
\*---------------------------------------------------------------------------*/
FoamFile
{
    version     2.0;
    format      ascii;
    class       volScalarField;
    location    "6";
    object      CO2.gas;
}
// * * * * * * * * * * * * * * * * * * * * * * * * * * * * * * * * * * * * * //

dimensions      [0 0 0 0 0 0 0];

internalField   nonuniform List<scalar> 
100
(
0.175499
0.175135
0.154835
0.148667
0.149708
0.151976
0.147955
0.143209
0.140055
0.136091
0.13194
0.129093
0.125121
0.12508
0.121266
0.117993
0.114173
0.11189
0.109791
0.108773
0.10705
0.105978
0.105097
0.104001
0.102824
0.100643
0.0991401
0.0978872
0.0964816
0.0948684
0.0944746
0.0935021
0.0918752
0.0906569
0.0894057
0.0886236
0.087063
0.0863401
0.085472
0.0831964
0.0817898
0.0801141
0.0787084
0.0771241
0.0759635
0.0740964
0.0723095
0.0705642
0.0686887
0.0668295
0.0645788
0.0617956
0.0587357
0.0549267
0.0497909
0.0423884
0.0281382
0.0283491
0.0279035
0.0271216
0.026222
0.025276
0.0243489
0.0233929
0.0224078
0.0213749
0.0202875
0.019183
0.0180315
0.0168802
0.0156861
0.0145028
0.0133362
0.0121829
0.0110492
0.00995816
0.00891794
0.00792907
0.00699704
0.0061189
0.00530568
0.00455511
0.00387749
0.00325946
0.00270787
0.00222126
0.00179465
0.00142527
0.0011114
0.000849153
0.000631091
0.000456485
0.00031841
0.000213187
0.000135726
8.14883e-05
4.55808e-05
2.35e-05
1.10766e-05
4.80122e-06
)
;

boundaryField
{
    inlet
    {
        type            fixedValue;
        value           uniform 0.2;
    }
    outlet
    {
        type            zeroGradient;
    }
    yzfaces
    {
        type            empty;
    }
}


// ************************************************************************* //
