/*--------------------------------*- C++ -*----------------------------------*\
| =========                 |                                                 |
| \\      /  F ield         | foam-extend: Open Source CFD                    |
|  \\    /   O peration     | Version:     5.0                                |
|   \\  /    A nd           | Web:         http://www.foam-extend.org         |
|    \\/     M anipulation  |                                                 |
\*---------------------------------------------------------------------------*/
FoamFile
{
    version     2.0;
    format      ascii;
    class       volScalarField;
    location    "6";
    object      CO2.water;
}
// * * * * * * * * * * * * * * * * * * * * * * * * * * * * * * * * * * * * * //

dimensions      [0 0 0 0 0 0 0];

internalField   nonuniform List<scalar> 
100
(
0.000634514
0.000644102
0.00117831
0.00134062
0.00131323
0.00125353
0.00135936
0.00148424
0.00156725
0.00167157
0.00178081
0.00185573
0.00196025
0.00196132
0.00206169
0.00214784
0.00224836
0.00230844
0.00236366
0.00239046
0.00243582
0.002464
0.0024872
0.00251603
0.00254701
0.00260441
0.00264396
0.00267693
0.00271392
0.00275637
0.00276673
0.00279233
0.00283514
0.0028672
0.00290013
0.00292071
0.00296178
0.0029808
0.00300364
0.00306353
0.00310054
0.00314464
0.00318164
0.00322333
0.00325387
0.003303
0.00335003
0.00339596
0.00344531
0.00349424
0.00355346
0.00362671
0.00370723
0.00380747
0.00394262
0.00413742
0.00451243
0.00138929
0.000452644
0.000153328
5.28071e-05
1.82482e-05
6.29967e-06
2.16414e-06
7.39284e-07
2.51362e-07
8.50314e-08
2.86939e-08
9.63264e-09
3.22405e-09
1.07206e-09
3.55329e-10
1.1699e-10
3.80891e-11
1.22493e-11
3.87416e-12
1.22273e-12
3.65698e-13
1.08614e-13
3.22704e-14
9.59042e-15
2.85947e-15
8.52026e-16
2.54315e-16
7.59189e-17
2.2709e-17
6.82383e-18
2.06086e-18
6.24463e-19
1.90584e-19
5.84793e-20
1.81082e-20
5.6634e-21
1.79276e-21
5.73124e-22
1.86182e-22
6.10859e-23
2.0299e-23
6.84688e-24
2.81199e-24
)
;

boundaryField
{
    inlet
    {
        type            fixedValue;
        value           uniform 0;
    }
    outlet
    {
        type            zeroGradient;
    }
    yzfaces
    {
        type            empty;
    }
}


// ************************************************************************* //
