/*--------------------------------*- C++ -*----------------------------------*\
| =========                 |                                                 |
| \\      /  F ield         | foam-extend: Open Source CFD                    |
|  \\    /   O peration     | Version:     5.0                                |
|   \\  /    A nd           | Web:         http://www.foam-extend.org         |
|    \\/     M anipulation  |                                                 |
\*---------------------------------------------------------------------------*/
FoamFile
{
    version     2.0;
    format      ascii;
    class       volScalarField;
    location    "6";
    object      H2O.water;
}
// * * * * * * * * * * * * * * * * * * * * * * * * * * * * * * * * * * * * * //

dimensions      [0 0 0 0 0 0 0];

internalField   nonuniform List<scalar> 
100
(
0.014434
0.0136325
0.0259805
0.0292088
0.0279711
0.0260734
0.028421
0.0312223
0.0327869
0.0351253
0.0378475
0.0396091
0.0420026
0.0415765
0.044232
0.0460146
0.0483193
0.0498663
0.0509179
0.0513576
0.0524176
0.0526957
0.0534221
0.0540566
0.0548098
0.0563187
0.05727
0.0578442
0.0585457
0.0594409
0.0593568
0.0598674
0.0610676
0.0618842
0.0623921
0.062786
0.0638346
0.0639396
0.0641741
0.0658803
0.0665592
0.0675742
0.0683795
0.069343
0.0698833
0.0710511
0.0721304
0.0729985
0.0740185
0.0750161
0.0761814
0.0778228
0.0795222
0.0816952
0.0846663
0.0887492
0.0968558
0.0984345
0.0988866
0.0992179
0.0993882
0.099424
0.0995119
0.0995244
0.0995573
0.0995164
0.0994754
0.099549
0.0995135
0.0995947
0.0995535
0.099631
0.0996456
0.0996946
0.099651
0.0996886
0.0997671
0.0998064
0.0998519
0.0998324
0.0998581
0.099824
0.0999589
0.0999842
0.100093
0.100253
0.100434
0.100642
0.10093
0.101448
0.10178
0.102388
0.102849
0.103423
0.104088
0.104922
0.105763
0.106613
0.107437
0.108247
)
;

boundaryField
{
    inlet
    {
        type            fixedValue;
        value           uniform 0;
    }
    outlet
    {
        type            zeroGradient;
    }
    yzfaces
    {
        type            empty;
    }
}


// ************************************************************************* //
