/*--------------------------------*- C++ -*----------------------------------*\
| =========                 |                                                 |
| \\      /  F ield         | foam-extend: Open Source CFD                    |
|  \\    /   O peration     | Version:     5.0                                |
|   \\  /    A nd           | Web:         http://www.foam-extend.org         |
|    \\/     M anipulation  |                                                 |
\*---------------------------------------------------------------------------*/
FoamFile
{
    version     2.0;
    format      ascii;
    class       volScalarField;
    location    "6";
    object      H2O.gas;
}
// * * * * * * * * * * * * * * * * * * * * * * * * * * * * * * * * * * * * * //

dimensions      [0 0 0 0 0 0 0];

internalField   nonuniform List<scalar> 
100
(
0.000342446
0.000341735
0.000302125
0.00029009
0.000292121
0.000296547
0.0002887
0.00027944
0.000273285
0.00026555
0.00025745
0.000251895
0.000244145
0.000244065
0.000236623
0.000230235
0.000222782
0.000218328
0.000214233
0.000212246
0.000208883
0.000206793
0.000205072
0.000202935
0.000200638
0.000196382
0.000193449
0.000191005
0.000188262
0.000185114
0.000184346
0.000182448
0.000179273
0.000176896
0.000174455
0.000172929
0.000169883
0.000168473
0.000166779
0.000162339
0.000159594
0.000156324
0.000153581
0.00015049
0.000148225
0.000144582
0.000141095
0.00013769
0.00013403
0.000130402
0.000126011
0.00012058
0.000114609
0.000107177
9.71555e-05
8.27113e-05
5.49053e-05
0.000494012
0.000991772
0.00157106
0.00222956
0.00296455
0.0037756
0.00465753
0.00560545
0.0066123
0.00766604
0.00877129
0.00990569
0.0110725
0.0122297
0.0134015
0.0145614
0.0157027
0.0167911
0.0178534
0.0188733
0.0198361
0.0207362
0.0215538
0.0222967
0.0229355
0.0234985
0.0239419
0.024288
0.0245257
0.0246389
0.0246138
0.0244609
0.0241934
0.023694
0.0230787
0.022236
0.0212254
0.0200304
0.0186966
0.0172568
0.015788
0.0143934
0.0131865
)
;

boundaryField
{
    inlet
    {
        type            fixedValue;
        value           uniform 0;
    }
    outlet
    {
        type            zeroGradient;
    }
    yzfaces
    {
        type            empty;
    }
}


// ************************************************************************* //
