/*--------------------------------*- C++ -*----------------------------------*\
| =========                 |                                                 |
| \\      /  F ield         | foam-extend: Open Source CFD                    |
|  \\    /   O peration     | Version:     5.0                                |
|   \\  /    A nd           | Web:         http://www.foam-extend.org         |
|    \\/     M anipulation  |                                                 |
\*---------------------------------------------------------------------------*/
FoamFile
{
    version     2.0;
    format      ascii;
    class       volScalarField;
    location    "6";
    object      Na.water;
}
// * * * * * * * * * * * * * * * * * * * * * * * * * * * * * * * * * * * * * //

dimensions      [0 0 0 0 0 0 0];

internalField   nonuniform List<scalar> 
100
(
0.00454469
0.00512235
0.00885269
0.0102467
0.0103615
0.0102005
0.0109866
0.011907
0.0126603
0.0134299
0.0140948
0.0146001
0.0153388
0.0155738
0.0161107
0.0168082
0.0175176
0.017857
0.0183588
0.0186306
0.0189446
0.0193316
0.0194069
0.0196132
0.0198092
0.0201245
0.0203774
0.0207024
0.0210468
0.0213859
0.021631
0.0218488
0.022043
0.0222265
0.0225787
0.0227594
0.0229933
0.0232933
0.0235983
0.0238502
0.0241989
0.0245
0.0247878
0.0250802
0.0253689
0.0256929
0.0260303
0.0264489
0.0268598
0.027262
0.0277755
0.0283154
0.0289612
0.0297378
0.030761
0.032331
0.0352349
0.0357957
0.0359526
0.0360591
0.0361203
0.0361468
0.0361826
0.0361961
0.0361913
0.0361861
0.0361737
0.0361971
0.0361817
0.0362044
0.0361889
0.0362104
0.0362217
0.0362341
0.0362275
0.0362448
0.036275
0.0362808
0.0362919
0.0362829
0.0363068
0.036299
0.0363437
0.036352
0.0363844
0.0364469
0.0365176
0.0365867
0.0366976
0.0368732
0.036996
0.0372213
0.0374036
0.0376224
0.0378667
0.0381721
0.0384808
0.0387898
0.0390769
0.0393685
)
;

boundaryField
{
    inlet
    {
        type            fixedValue;
        value           uniform 0;
    }
    outlet
    {
        type            zeroGradient;
    }
    yzfaces
    {
        type            empty;
    }
}


// ************************************************************************* //
