/*--------------------------------*- C++ -*----------------------------------*\
| =========                 |                                                 |
| \\      /  F ield         | foam-extend: Open Source CFD                    |
|  \\    /   O peration     | Version:     5.0                                |
|   \\  /    A nd           | Web:         http://www.foam-extend.org         |
|    \\/     M anipulation  |                                                 |
\*---------------------------------------------------------------------------*/
FoamFile
{
    version     2.0;
    format      ascii;
    class       surfaceScalarField;
    location    "6";
    object      phi;
}
// * * * * * * * * * * * * * * * * * * * * * * * * * * * * * * * * * * * * * //

dimensions      [0 3 -1 0 0 0 0];

internalField   nonuniform List<scalar> 
99
(
1.22446e-06
1.23247e-06
1.24376e-06
1.25108e-06
1.27636e-06
1.2703e-06
1.2586e-06
1.26021e-06
1.2567e-06
1.23785e-06
1.24177e-06
1.23305e-06
1.22838e-06
1.22746e-06
1.21966e-06
1.20803e-06
1.21201e-06
1.21322e-06
1.21652e-06
1.21417e-06
1.21427e-06
1.2132e-06
1.20081e-06
1.20379e-06
1.20493e-06
1.20496e-06
1.20329e-06
1.20172e-06
1.19819e-06
1.20673e-06
1.2058e-06
1.20257e-06
1.20198e-06
1.19967e-06
1.20582e-06
1.20557e-06
1.20794e-06
1.20665e-06
1.20619e-06
1.21256e-06
1.21055e-06
1.20933e-06
1.21174e-06
1.21552e-06
1.21483e-06
1.21287e-06
1.21645e-06
1.21712e-06
1.21891e-06
1.21766e-06
1.21565e-06
1.21813e-06
1.21782e-06
1.21546e-06
1.21719e-06
1.21573e-06
1.21521e-06
1.21509e-06
1.21581e-06
1.2169e-06
1.21749e-06
1.21775e-06
1.21869e-06
1.21806e-06
1.21861e-06
1.2172e-06
1.21686e-06
1.21813e-06
1.21862e-06
1.21772e-06
1.21846e-06
1.22111e-06
1.21995e-06
1.21868e-06
1.21946e-06
1.22103e-06
1.22128e-06
1.22199e-06
1.2203e-06
1.21903e-06
1.2197e-06
1.22012e-06
1.21964e-06
1.22093e-06
1.2199e-06
1.21931e-06
1.21827e-06
1.21874e-06
1.21875e-06
1.21914e-06
1.21964e-06
1.22021e-06
1.21863e-06
1.21778e-06
1.21774e-06
1.21678e-06
1.2156e-06
1.21665e-06
1.21602e-06
)
;

boundaryField
{
    inlet
    {
        type            calculated;
        value           uniform -1.225e-06;
    }
    outlet
    {
        type            calculated;
        value           uniform 1.21496e-06;
    }
    yzfaces
    {
        type            empty;
    }
}


// ************************************************************************* //
