/*--------------------------------*- C++ -*----------------------------------*\
| =========                 |                                                 |
| \\      /  F ield         | foam-extend: Open Source CFD                    |
|  \\    /   O peration     | Version:     5.0                                |
|   \\  /    A nd           | Web:         http://www.foam-extend.org         |
|    \\/     M anipulation  |                                                 |
\*---------------------------------------------------------------------------*/
FoamFile
{
    version     2.0;
    format      ascii;
    class       surfaceScalarField;
    location    "6";
    object      phi.water;
}
// * * * * * * * * * * * * * * * * * * * * * * * * * * * * * * * * * * * * * //

dimensions      [0 3 -1 0 0 0 0];

internalField   nonuniform List<scalar> 
99
(
5.7321e-08
4.04648e-08
1.22068e-07
1.70158e-07
1.59507e-07
1.43503e-07
1.66951e-07
1.89285e-07
2.10313e-07
2.38118e-07
2.66505e-07
2.87831e-07
3.29753e-07
3.1955e-07
3.59447e-07
3.92645e-07
4.34789e-07
4.6552e-07
4.96185e-07
5.10203e-07
5.35677e-07
5.54561e-07
5.63761e-07
5.81488e-07
5.96889e-07
6.36419e-07
6.60536e-07
6.90435e-07
7.12243e-07
7.43584e-07
7.58789e-07
7.80361e-07
8.11039e-07
8.42058e-07
8.71398e-07
8.91249e-07
9.33835e-07
9.58596e-07
9.72874e-07
1.04289e-06
1.08933e-06
1.14229e-06
1.18984e-06
1.24675e-06
1.29266e-06
1.36168e-06
1.43419e-06
1.51287e-06
1.59636e-06
1.68701e-06
1.79619e-06
1.94496e-06
2.12598e-06
2.36566e-06
2.71839e-06
3.2862e-06
4.86034e-06
4.73386e-06
4.72667e-06
4.75126e-06
4.78026e-06
4.80285e-06
4.81856e-06
4.82418e-06
4.83108e-06
4.82922e-06
4.82971e-06
4.8355e-06
4.83756e-06
4.83395e-06
4.83935e-06
4.8509e-06
4.84538e-06
4.84244e-06
4.84989e-06
4.85775e-06
4.86074e-06
4.8657e-06
4.8632e-06
4.86332e-06
4.87525e-06
4.88543e-06
4.8966e-06
4.91813e-06
4.93306e-06
4.95407e-06
4.98025e-06
5.01899e-06
5.05774e-06
5.10978e-06
5.17435e-06
5.24842e-06
5.32839e-06
5.42056e-06
5.52284e-06
5.62381e-06
5.72319e-06
5.82544e-06
5.90249e-06
)
;

boundaryField
{
    inlet
    {
        type            fixedValue;
        value           uniform 0;
    }
    outlet
    {
        type            calculated;
        value           uniform 5.97667e-06;
    }
    yzfaces
    {
        type            empty;
    }
}


// ************************************************************************* //
