/*--------------------------------*- C++ -*----------------------------------*\
| =========                 |                                                 |
| \\      /  F ield         | foam-extend: Open Source CFD                    |
|  \\    /   O peration     | Version:     5.0                                |
|   \\  /    A nd           | Web:         http://www.foam-extend.org         |
|    \\/     M anipulation  |                                                 |
\*---------------------------------------------------------------------------*/
FoamFile
{
    version     2.0;
    format      ascii;
    class       volVectorField;
    location    "6";
    object      U.gas;
}
// * * * * * * * * * * * * * * * * * * * * * * * * * * * * * * * * * * * * * //

dimensions      [0 1 -1 0 0 0 0];

internalField   nonuniform List<vector> 
100
(
(0.00571252 0 0)
(0.00571926 0 0)
(0.0064956 0 0)
(0.00682794 0 0)
(0.00680909 0 0)
(0.00681109 0 0)
(0.00696838 0 0)
(0.00711403 0 0)
(0.00728374 0 0)
(0.00743431 0 0)
(0.00757139 0 0)
(0.00771642 0 0)
(0.00789622 0 0)
(0.00786086 0 0)
(0.00809081 0 0)
(0.00822896 0 0)
(0.00840569 0 0)
(0.00857046 0 0)
(0.00872249 0 0)
(0.00879322 0 0)
(0.00890782 0 0)
(0.00898571 0 0)
(0.00899897 0 0)
(0.00903874 0 0)
(0.00912645 0 0)
(0.00929707 0 0)
(0.0093949 0 0)
(0.00950063 0 0)
(0.00955947 0 0)
(0.00967969 0 0)
(0.00976929 0 0)
(0.0098433 0 0)
(0.00993953 0 0)
(0.0100322 0 0)
(0.0101269 0 0)
(0.0102233 0 0)
(0.0103708 0 0)
(0.0104412 0 0)
(0.0104887 0 0)
(0.0107306 0 0)
(0.0108794 0 0)
(0.0110033 0 0)
(0.0111195 0 0)
(0.0112859 0 0)
(0.0114135 0 0)
(0.01158 0 0)
(0.0117322 0 0)
(0.0119172 0 0)
(0.0120893 0 0)
(0.0122726 0 0)
(0.0124553 0 0)
(0.0127078 0 0)
(0.0129966 0 0)
(0.0133083 0 0)
(0.0137207 0 0)
(0.0143118 0 0)
(0.0155081 0 0)
(0.01111 0 0)
(0.0114496 0 0)
(0.0114986 0 0)
(0.011462 0 0)
(0.0114077 0 0)
(0.011365 0 0)
(0.0113349 0 0)
(0.0113151 0 0)
(0.0113004 0 0)
(0.0112881 0 0)
(0.011288 0 0)
(0.0112923 0 0)
(0.011288 0 0)
(0.0112866 0 0)
(0.0112971 0 0)
(0.0112979 0 0)
(0.0112866 0 0)
(0.0112788 0 0)
(0.0112807 0 0)
(0.0112806 0 0)
(0.0112757 0 0)
(0.0112646 0 0)
(0.0112442 0 0)
(0.0112313 0 0)
(0.0112203 0 0)
(0.0112015 0 0)
(0.0111758 0 0)
(0.0111427 0 0)
(0.0110889 0 0)
(0.0110206 0 0)
(0.0109394 0 0)
(0.0108446 0 0)
(0.0107239 0 0)
(0.0105724 0 0)
(0.0103779 0 0)
(0.0101315 0 0)
(0.00981911 0 0)
(0.0094468 0 0)
(0.00899793 0 0)
(0.00846818 0 0)
(0.00788137 0 0)
(0.00725972 0 0)
(0.00663083 0 0)
)
;

boundaryField
{
    inlet
    {
        type            fixedValue;
        value           uniform (0.005 0 0);
    }
    outlet
    {
        type            zeroGradient;
    }
    yzfaces
    {
        type            empty;
    }
}


// ************************************************************************* //
