/*--------------------------------*- C++ -*----------------------------------*\
| =========                 |                                                 |
| \\      /  F ield         | foam-extend: Open Source CFD                    |
|  \\    /   O peration     | Version:     5.0                                |
|   \\  /    A nd           | Web:         http://www.foam-extend.org         |
|    \\/     M anipulation  |                                                 |
\*---------------------------------------------------------------------------*/
FoamFile
{
    version     2.0;
    format      ascii;
    class       volVectorField;
    location    "6";
    object      U.water;
}
// * * * * * * * * * * * * * * * * * * * * * * * * * * * * * * * * * * * * * //

dimensions      [0 1 -1 0 0 0 0];

internalField   nonuniform List<vector> 
100
(
(2.33121e-05 0 0)
(4.66471e-05 0 0)
(6.64379e-05 0 0)
(0.000114328 0 0)
(0.000135099 0 0)
(0.000127238 0 0)
(0.000126854 0 0)
(0.000145675 0 0)
(0.000164028 0 0)
(0.000183178 0 0)
(0.00020601 0 0)
(0.000227311 0 0)
(0.000248996 0 0)
(0.000268904 0 0)
(0.000277333 0 0)
(0.000307656 0 0)
(0.000337207 0 0)
(0.000367198 0 0)
(0.000391465 0 0)
(0.000411503 0 0)
(0.000426525 0 0)
(0.00044512 0 0)
(0.000457198 0 0)
(0.000467905 0 0)
(0.000482587 0 0)
(0.000502651 0 0)
(0.000529709 0 0)
(0.000551342 0 0)
(0.000572633 0 0)
(0.00059292 0 0)
(0.000613659 0 0)
(0.000629146 0 0)
(0.000649735 0 0)
(0.000674167 0 0)
(0.000698707 0 0)
(0.000719966 0 0)
(0.000743793 0 0)
(0.00077219 0 0)
(0.000790724 0 0)
(0.000821641 0 0)
(0.000870451 0 0)
(0.00091057 0 0)
(0.00095187 0 0)
(0.0009938 0 0)
(0.00103765 0 0)
(0.00108329 0 0)
(0.00114129 0 0)
(0.00120269 0 0)
(0.00126949 0 0)
(0.00134124 0 0)
(0.00142353 0 0)
(0.0015286 0 0)
(0.0016646 0 0)
(0.00183876 0 0)
(0.00208652 0 0)
(0.00248507 0 0)
(0.00326479 0 0)
(0.0039247 0 0)
(0.00386596 0 0)
(0.00387139 0 0)
(0.00389183 0 0)
(0.00391106 0 0)
(0.00392616 0 0)
(0.00393485 0 0)
(0.0039395 0 0)
(0.0039405 0 0)
(0.00393921 0 0)
(0.00394213 0 0)
(0.00394591 0 0)
(0.00394578 0 0)
(0.0039465 0 0)
(0.003954 0 0)
(0.00395791 0 0)
(0.00395494 0 0)
(0.00395641 0 0)
(0.00396316 0 0)
(0.00396902 0 0)
(0.00397334 0 0)
(0.00397435 0 0)
(0.0039726 0 0)
(0.00397619 0 0)
(0.0039843 0 0)
(0.00399261 0 0)
(0.00400509 0 0)
(0.00401916 0 0)
(0.00403412 0 0)
(0.00405352 0 0)
(0.00407986 0 0)
(0.00411349 0 0)
(0.00415368 0 0)
(0.00420286 0 0)
(0.00426077 0 0)
(0.00432285 0 0)
(0.00439069 0 0)
(0.00446845 0 0)
(0.00455097 0 0)
(0.00463221 0 0)
(0.00471331 0 0)
(0.00478648 0 0)
(0.00484337 0 0)
)
;

boundaryField
{
    inlet
    {
        type            fixedValue;
        value           uniform (0 0 0);
    }
    outlet
    {
        type            zeroGradient;
    }
    yzfaces
    {
        type            empty;
    }
}


// ************************************************************************* //
